<event>
10    4  0.2866397E-005  0.3585419E+03  0.7546771E-02  0.1064905E+00
         21   -1    0    0  503  502  0.00000000000E+00  0.00000000000E+00  0.22274322028E+03  0.22274322028E+03  0.00000000000E+00 0. -1.
          2   -1    0    0  502    0 -0.00000000000E+00 -0.00000000000E+00 -0.12421625202E+04  0.12421625202E+04  0.00000000000E+00 0. -1.
         24    2    1    2    0    0 -0.26406133803E+03  0.11554635981E+03 -0.84383190750E+03  0.89579012395E+03  0.85488634045E+02 0.  0.
         23    2    1    2    0    0  0.25177782163E+02 -0.10596035451E+03 -0.20989564723E+02  0.14393805145E+03  0.91739214001E+02 0.  0.
        -13    1    3    3    0    0 -0.10575077405E+03  0.24474583729E+02 -0.21316427671E+03  0.23920961587E+03  0.00000000000E+00 0.  1.
         14    1    3    3    0    0 -0.15831056399E+03  0.91071776084E+02 -0.63066763079E+03  0.65658050809E+03  0.00000000000E+00 0. -1.
        -11    1    4    4    0    0  0.50601886169E+02 -0.59082187318E+02 -0.39811359619E+02  0.87385354018E+02  0.00000000000E+00 0.  1.
         11    1    4    4    0    0 -0.25424104006E+02 -0.46878167193E+02  0.18821794896E+02  0.56552697433E+02  0.00000000000E+00 0. -1.
         21    1    1    2  503  501  0.18298392345E+02  0.12608640316E+03 -0.96355030718E+02  0.15974011446E+03  0.00000000000E+00 0. -1.
          1    1    1    2  501    0  0.22058516352E+03 -0.13567240846E+03 -0.58242796973E+02  0.26543745061E+03  0.00000000000E+00 0. -1.
<scales pt_clust_5="13000.00000" pt_clust_6="13000.00000" pt_clust_7="13000.00000" pt_clust_8="13000.00000" pt_clust_9="127.40727" pt_clust_10="13000.00000"></scales>
<clustering>
<clus scale="   85.489">  5  6 -1 -1</clus>
<clus scale="   91.739">  7  8 -1 -1</clus>
<clus scale="  127.407">  1  9  2 -1</clus>
<clus scale="  240.132">  7 10 -1 -1</clus>
<clus scale="  305.509">  2  5  1 -1</clus>
<clus scale="  127.407">  1  5  2 -1</clus>
</clustering>
</event>
<event>
10    4  0.2866397E-005  0.2076222E+03  0.7546771E-02  0.1179367E+00
         21   -1    0    0  503  502  0.00000000000E+00  0.00000000000E+00  0.24191811567E+03  0.24191811567E+03  0.00000000000E+00 0. -1.
         -1   -1    0    0    0  501 -0.00000000000E+00 -0.00000000000E+00 -0.23031854813E+03  0.23031854813E+03  0.00000000000E+00 0.  1.
         24    2    1    2    0    0 -0.15296015258E+02 -0.41921546263E+02  0.10805351207E+03  0.14174355570E+03  0.80151668653E+02 0.  0.
         23    2    1    2    0    0  0.90036164006E+02  0.53117185416E+02 -0.86185477794E+02  0.16488940728E+03  0.93982093167E+02 0.  0.
        -11    1    3    3    0    0  0.24562470719E+02 -0.60209045148E+01  0.53125634254E+01  0.25841625126E+02  0.00000000000E+00 0.  1.
         12    1    3    3    0    0 -0.39858485977E+02 -0.35900641748E+02  0.10274094864E+03  0.11590193057E+03  0.00000000000E+00 0. -1.
        -13    1    4    4    0    0  0.21506222759E+02  0.67235905124E+02 -0.42231745246E+02  0.82259983356E+02  0.00000000000E+00 0.  1.
         13    1    4    4    0    0  0.68529941246E+02 -0.14118719709E+02 -0.43953732548E+02  0.82629423926E+02  0.00000000000E+00 0. -1.
         21    1    1    2  503  501 -0.35234470812E+02  0.44227420163E+02  0.49403069662E+02  0.75087921264E+02  0.00000000000E+00 0. -1.
         -2    1    1    2    0  502 -0.39505677935E+02 -0.55423059315E+02 -0.59671536393E+02  0.90515779555E+02  0.00000000000E+00 0.  1.
<scales pt_clust_5="13000.00000" pt_clust_6="13000.00000" pt_clust_7="13000.00000" pt_clust_8="13000.00000" pt_clust_9="56.54673" pt_clust_10="13000.00000"></scales>
<clustering>
<clus scale="   56.547">  1  9  2 -1</clus>
<clus scale="   80.152">  5  6 -1 -1</clus>
<clus scale="   90.180">  2  5  1 -1</clus>
<clus scale="   93.982">  7  8 -1 -1</clus>
<clus scale="   79.912">  7 10 -1 -1</clus>
<clus scale="   56.547">  1  5  2 -1</clus>
</clustering>
</event>
<event>
10    4  0.2866397E-005  0.2341129E+03  0.7546771E-02  0.1167487E+00
         -3   -1    0    0    0  501 -0.00000000000E+00  0.00000000000E+00  0.12000828552E+03  0.12000828552E+03  0.00000000000E+00 0.  1.
         21   -1    0    0  503  502  0.00000000000E+00 -0.00000000000E+00 -0.35709982286E+03  0.35709982286E+03  0.00000000000E+00 0.  1.
         24    2    1    2    0    0 -0.15521232237E+02  0.13547596853E+02 -0.20023048494E+02  0.84805127598E+02  0.79790608252E+02 0.  0.
         23    2    1    2    0    0 -0.18919265198E+02  0.12822585984E+03 -0.83242224890E+02  0.17927212530E+03  0.91702874420E+02 0.  0.
        -13    1    3    3    0    0  0.11324153883E+02  0.26161608977E+02  0.20120191868E+02  0.34892525937E+02  0.00000000000E+00 0.  1.
         14    1    3    3    0    0 -0.26845386119E+02 -0.12614012124E+02 -0.40143240363E+02  0.49912601661E+02  0.00000000000E+00 0. -1.
        -13    1    4    4    0    0 -0.47479684726E+02  0.86598444704E+02 -0.82656748336E+02  0.12878567130E+03  0.00000000000E+00 0.  1.
         13    1    4    4    0    0  0.28560419528E+02  0.41627415133E+02 -0.58547655424E+00  0.50486453996E+02  0.00000000000E+00 0. -1.
         21    1    1    2  503  501 -0.15033935989E+02 -0.88206073973E+02 -0.94668482769E+02  0.13026301220E+03  0.00000000000E+00 0.  1.
         -4    1    1    2    0  502  0.49474433423E+02 -0.53567382717E+02 -0.39157781188E+02  0.82767843280E+02  0.00000000000E+00 0.  1.
<scales pt_clust_5="13000.00000" pt_clust_6="13000.00000" pt_clust_7="13000.00000" pt_clust_8="13000.00000" pt_clust_9="87.36806" pt_clust_10="13000.00000"></scales>
<clustering>
<clus scale="   79.791">  5  6 -1 -1</clus>
<clus scale="   82.407">  1  5  2 -1</clus>
<clus scale="   87.368">  2  9  1 -1</clus>
<clus scale="   91.703">  7  8 -1 -1</clus>
<clus scale="   86.368">  7 10 -1 -1</clus>
<clus scale="   87.368">  2  5  1 -1</clus>
</clustering>
</event>
<event>
10    4  0.2866397E-005  0.2022383E+03  0.7546771E-02  0.1155757E+00
          4   -1    0    0  502    0 -0.00000000000E+00  0.00000000000E+00  0.66857502565E+03  0.66857502565E+03  0.00000000000E+00 0. -1.
         21   -1    0    0  503  502  0.00000000000E+00 -0.00000000000E+00 -0.72646634495E+02  0.72646634495E+02  0.00000000000E+00 0. -1.
         24    2    1    2    0    0 -0.53393668615E+02  0.14699642083E+03  0.34164631406E+03  0.38378356279E+03  0.78158733200E+02 0.  0.
         23    2    1    2    0    0  0.42663473797E+02 -0.68095456140E+02  0.11125452533E+03  0.15765539940E+03  0.77591832110E+02 0.  0.
        -11    1    3    3    0    0  0.70709312213E+01  0.89002055574E+02  0.20338223691E+03  0.22211640700E+03  0.00000000000E+00 0.  1.
         12    1    3    3    0    0 -0.60464599836E+02  0.57994365253E+02  0.13826407714E+03  0.16166715580E+03  0.00000000000E+00 0. -1.
        -11    1    4    4    0    0 -0.31197018374E+01 -0.63394888671E+02  0.79548475105E+02  0.10176740313E+03  0.00000000000E+00 0.  1.
         11    1    4    4    0    0  0.45783175634E+02 -0.47005674690E+01  0.31706050223E+02  0.55887996264E+02  0.00000000000E+00 0. -1.
         21    1    1    2  503  501  0.54725597550E+02 -0.72018292249E+01  0.51920730896E+02  0.75779414541E+02  0.00000000000E+00 0. -1.
          3    1    1    2  501    0 -0.43995402731E+02 -0.71699135462E+02  0.91106820868E+02  0.12400328341E+03  0.00000000000E+00 0. -1.
<scales pt_clust_5="13000.00000" pt_clust_6="13000.00000" pt_clust_7="13000.00000" pt_clust_8="13000.00000" pt_clust_9="55.19744" pt_clust_10="13000.00000"></scales>
<clustering>
<clus scale="   55.197">  2  9  1 -1</clus>
<clus scale="   77.592">  7  8 -1 -1</clus>
<clus scale="   78.159">  5  6 -1 -1</clus>
<clus scale="   79.216">  7 10 -1 -1</clus>
<clus scale="  167.845">  1  5  2 -1</clus>
<clus scale="   55.197">  2  5  1 -1</clus>
</clustering>
</event>
<event>
10    4  0.2866397E-005  0.1371648E+03  0.7546771E-02  0.1240449E+00
         21   -1    0    0  503  502  0.00000000000E+00  0.00000000000E+00  0.61191352596E+02  0.61191352596E+02  0.00000000000E+00 0.  1.
          2   -1    0    0  502    0 -0.00000000000E+00 -0.00000000000E+00 -0.56161568703E+03  0.56161568703E+03  0.00000000000E+00 0. -1.
         24    2    1    2    0    0  0.49095205393E+01 -0.15101860276E+02 -0.38135164164E+03  0.39081922404E+03  0.84014413753E+02 0.  0.
         23    2    1    2    0    0 -0.10776137920E+02  0.17394438228E+02 -0.12300490160E+03  0.15469212949E+03  0.91546477158E+02 0.  0.
        -11    1    3    3    0    0 -0.26901294234E+02 -0.22426087617E+02 -0.75468071724E+02  0.83198791379E+02  0.00000000000E+00 0.  1.
         12    1    3    3    0    0  0.31810814774E+02  0.73242273414E+01 -0.30588356992E+03  0.30762043266E+03  0.00000000000E+00 0. -1.
        -11    1    4    4    0    0 -0.25616440057E+02 -0.12417084575E+02 -0.12819842366E+01  0.28496130862E+02  0.00000000000E+00 0.  1.
         11    1    4    4    0    0  0.14840302137E+02  0.29811522803E+02 -0.12172291736E+03  0.12619599863E+03  0.00000000000E+00 0. -1.
         21    1    1    2  503  501 -0.14613533379E+02  0.28821091449E+02  0.18574203532E+02  0.37272130432E+02  0.00000000000E+00 0.  1.
          1    1    1    2  501    0  0.20480150759E+02 -0.31113669401E+02 -0.14641994733E+02  0.40023555670E+02  0.00000000000E+00 0. -1.
<scales pt_clust_5="13000.00000" pt_clust_6="13000.00000" pt_clust_7="13000.00000" pt_clust_8="13000.00000" pt_clust_9="32.31425" pt_clust_10="13000.00000"></scales>
<clustering>
<clus scale="   32.314">  1  9  2 -1</clus>
<clus scale="   84.014">  5  6 -1 -1</clus>
<clus scale="   84.779">  2  5  1 -1</clus>
<clus scale="   91.546">  7  8 -1 -1</clus>
<clus scale="   26.175">  7 10 -1 -1</clus>
<clus scale="   32.314">  1  5  2 -1</clus>
</clustering>
</event>
<event>
10    4  0.2866397E-005  0.1961202E+03  0.7546771E-02  0.1177334E+00
         -1   -1    0    0    0  501 -0.00000000000E+00  0.00000000000E+00  0.39025390304E+03  0.39025390304E+03  0.00000000000E+00 0.  1.
         21   -1    0    0  501  502  0.00000000000E+00 -0.00000000000E+00 -0.17642315771E+03  0.17642315771E+03  0.00000000000E+00 0. -1.
         24    2    1    2    0    0 -0.58479687319E+02 -0.68712330032E+01 -0.34925033342E+02  0.10543327252E+03  0.80183098776E+02 0.  0.
         23    2    1    2    0    0 -0.64536366487E+01  0.87704042645E+01  0.72949478924E+02  0.11846739434E+03  0.92705596532E+02 0.  0.
        -11    1    3    3    0    0 -0.25960125798E+02  0.36727008716E+02 -0.13292858759E+02  0.46898842146E+02  0.00000000000E+00 0.  1.
         12    1    3    3    0    0 -0.32519561520E+02 -0.43598241719E+02 -0.21632174584E+02  0.58534430378E+02  0.00000000000E+00 0. -1.
        -13    1    4    4    0    0  0.17431471368E+02  0.37029249397E+02  0.51781270882E+01  0.41253296900E+02  0.00000000000E+00 0.  1.
         13    1    4    4    0    0 -0.23885108017E+02 -0.28258845132E+02  0.67771351836E+02  0.77214097436E+02  0.00000000000E+00 0. -1.
         21    1    1    2  503  502  0.25106767460E+02 -0.86956113184E+02 -0.46275183820E+02  0.10165189634E+03  0.00000000000E+00 0. -1.
         -2    1    1    2    0  503  0.39826556507E+02  0.85056941923E+02  0.22208148357E+03  0.24112449754E+03  0.00000000000E+00 0.  1.
<scales pt_clust_5="13000.00000" pt_clust_6="13000.00000" pt_clust_7="13000.00000" pt_clust_8="13000.00000" pt_clust_9="90.50810" pt_clust_10="13000.00000"></scales>
<clustering>
<clus scale="   80.183">  5  6 -1 -1</clus>
<clus scale="   90.508">  2  9  1 -1</clus>
<clus scale="   92.706">  7  8 -1 -1</clus>
<clus scale="   87.765">  7 10 -1 -1</clus>
<clus scale="  112.012">  1  5  2 -1</clus>
<clus scale="   90.508">  2  5  1 -1</clus>
</clustering>
</event>
<event>
10    4  0.2866397E-005  0.6687407E+03  0.7546771E-02  0.1029570E+00
         21   -1    0    0  503  502  0.00000000000E+00  0.00000000000E+00  0.43338550166E+03  0.43338550166E+03  0.00000000000E+00 0. -1.
          2   -1    0    0  502    0 -0.00000000000E+00 -0.00000000000E+00 -0.10506462064E+04  0.10506462064E+04  0.00000000000E+00 0. -1.
         24    2    1    2    0    0  0.87162700207E+02 -0.42017272874E+02 -0.20951402781E+03  0.24645109179E+03  0.86482514221E+02 0.  0.
         23    2    1    2    0    0  0.21736331634E+03 -0.12965405339E+03 -0.33403486625E+03  0.42882730410E+03  0.90865725220E+02 0.  0.
        -13    1    3    3    0    0  0.81069742184E+02 -0.40396261540E+02 -0.21789046719E+03  0.23596698230E+03  0.00000000000E+00 0.  1.
         14    1    3    3    0    0  0.60929580229E+01 -0.16210113339E+01  0.83764393735E+01  0.10484109490E+02  0.00000000000E+00 0. -1.
        -11    1    4    4    0    0  0.32584771365E+02  0.11415033816E+02 -0.27671283669E+02  0.44246697750E+02  0.00000000000E+00 0.  1.
         11    1    4    4    0    0  0.18477854498E+03 -0.14106908721E+03 -0.30636358258E+03  0.38458060635E+03  0.00000000000E+00 0. -1.
         21    1    1    2  503  501 -0.15161214293E+03 -0.18634273338E+03  0.21633448656E+03  0.32328078545E+03  0.00000000000E+00 0. -1.
          1    1    1    2  501    0 -0.15291387363E+03  0.35801405965E+03 -0.29004629722E+03  0.48547252670E+03  0.00000000000E+00 0. -1.
<scales pt_clust_5="13000.00000" pt_clust_6="13000.00000" pt_clust_7="13000.00000" pt_clust_8="13000.00000" pt_clust_9="238.85000" pt_clust_10="13000.00000"></scales>
<clustering>
<clus scale="   86.483">  5  6 -1 -1</clus>
<clus scale="   90.866">  7  8 -1 -1</clus>
<clus scale="  129.777">  2  5  1 -1</clus>
<clus scale="  238.850">  1  9  2 -1</clus>
<clus scale="  303.034">  7 10 -1 -1</clus>
<clus scale="  238.850">  1  5  2 -1</clus>
</clustering>
</event>
<event>
10    4  0.2866397E-005  0.4918596E+03  0.7546771E-02  0.1018565E+00
          2   -1    0    0  502    0 -0.00000000000E+00  0.00000000000E+00  0.27755683120E+04  0.27755683120E+04  0.00000000000E+00 0. -1.
         21   -1    0    0  503  502  0.00000000000E+00 -0.00000000000E+00 -0.11174677870E+03  0.11174677870E+03  0.00000000000E+00 0. -1.
         24    2    1    2    0    0  0.45014005002E+03 -0.14286705830E+03  0.89155330645E+03  0.10125035336E+04  0.85200036877E+02 0.  0.
         23    2    1    2    0    0 -0.12510044702E+03  0.89513107068E+02  0.46796636309E+03  0.49992682655E+03  0.85273657941E+02 0.  0.
        -13    1    3    3    0    0  0.20465091266E+03 -0.77381462323E+02  0.32740215294E+03  0.39377919767E+03  0.00000000000E+00 0.  1.
         14    1    3    3    0    0  0.24548913736E+03 -0.65485595978E+02  0.56415115351E+03  0.61872433591E+03  0.00000000000E+00 0. -1.
        -11    1    4    4    0    0 -0.43820591728E+02 -0.73594542689E+01  0.75653471281E+02  0.87737412449E+02  0.00000000000E+00 0.  1.
         11    1    4    4    0    0 -0.81279855290E+02  0.96872561337E+02  0.39231289181E+03  0.41218941410E+03  0.00000000000E+00 0. -1.
         21    1    1    2  503  501 -0.38689391392E+02  0.11541532726E+02  0.15772417406E+01  0.40404995675E+02  0.00000000000E+00 0. -1.
          1    1    1    2  501    0 -0.28635021161E+03  0.41812418508E+02  0.13027246220E+04  0.13344797349E+04  0.00000000000E+00 0. -1.
<scales pt_clust_5="13000.00000" pt_clust_6="13000.00000" pt_clust_7="13000.00000" pt_clust_8="13000.00000" pt_clust_9="40.37420" pt_clust_10="13000.00000"></scales>
<clustering>
<clus scale="   40.374">  2  9  1 -1</clus>
<clus scale="   85.200">  5  6 -1 -1</clus>
<clus scale="   85.274">  7  8 -1 -1</clus>
<clus scale="  296.259">  7 10 -1 -1</clus>
<clus scale="  453.897">  1  5  2 -1</clus>
<clus scale="   40.374">  2  5  1 -1</clus>
</clustering>
</event>
<event>
10    4  0.2866397E-005  0.2168408E+03  0.7546771E-02  0.1171791E+00
         21   -1    0    0  503  502  0.00000000000E+00  0.00000000000E+00  0.45243048884E+03  0.45243048884E+03  0.00000000000E+00 0. -1.
         -3   -1    0    0    0  501 -0.00000000000E+00 -0.00000000000E+00 -0.33217902590E+03  0.33217902590E+03  0.00000000000E+00 0.  1.
         24    2    1    2    0    0 -0.24493662698E+02 -0.41109212304E+02 -0.16132898194E+03  0.18670651165E+03  0.80884944391E+02 0.  0.
         23    2    1    2    0    0  0.24688727812E+02 -0.52619539586E+02  0.84495395091E+00  0.10832983082E+03  0.91412740197E+02 0.  0.
        -11    1    3    3    0    0  0.12078647478E+02 -0.23988194719E+02 -0.13690245021E+03  0.13951203563E+03  0.00000000000E+00 0.  1.
         12    1    3    3    0    0 -0.36572310176E+02 -0.17121017585E+02 -0.24426531732E+02  0.47194476024E+02  0.00000000000E+00 0. -1.
        -11    1    4    4    0    0  0.42791402835E+02 -0.12550248060E+02  0.31615015409E+02  0.54663718152E+02  0.00000000000E+00 0.  1.
         11    1    4    4    0    0 -0.18102675022E+02 -0.40069291526E+02 -0.30770061458E+02  0.53666112665E+02  0.00000000000E+00 0. -1.
         21    1    1    2  503  501  0.64566598044E+02  0.89579178237E+02  0.36607270070E+03  0.38236435105E+03  0.00000000000E+00 0. -1.
         -4    1    1    2    0  502 -0.64761663159E+02  0.41495736530E+01 -0.85337209768E+02  0.10720882122E+03  0.00000000000E+00 0.  1.
<scales pt_clust_5="13000.00000" pt_clust_6="13000.00000" pt_clust_7="13000.00000" pt_clust_8="13000.00000" pt_clust_9="107.96815" pt_clust_10="13000.00000"></scales>
<clustering>
<clus scale="   80.885">  5  6 -1 -1</clus>
<clus scale="   91.413">  7  8 -1 -1</clus>
<clus scale="   64.895">  7 10 -1 -1</clus>
<clus scale="   93.980">  2  5  1 -1</clus>
<clus scale="  107.968">  1  9  2 -1</clus>
<clus scale="  107.968">  1  5  2 -1</clus>
</clustering>
</event>
<event>
10    4  0.2866397E-005  0.1880107E+03  0.7546771E-02  0.1196482E+00
         21   -1    0    0  503  502  0.00000000000E+00  0.00000000000E+00  0.76788539137E+02  0.76788539137E+02  0.00000000000E+00 0.  1.
          2   -1    0    0  502    0 -0.00000000000E+00 -0.00000000000E+00 -0.30249397738E+03  0.30249397738E+03  0.00000000000E+00 0. -1.
         24    2    1    2    0    0 -0.19605236196E+02  0.99120259386E+01 -0.87078377214E+02  0.12039817114E+03  0.80190163300E+02 0.  0.
         23    2    1    2    0    0  0.25163359530E+01  0.56141728047E+02 -0.18852936006E+02  0.10839067900E+03  0.90746242477E+02 0.  0.
        -13    1    3    3    0    0  0.26793815936E+02  0.17622559257E+02 -0.17849210148E+02  0.36702281538E+02  0.00000000000E+00 0.  1.
         14    1    3    3    0    0 -0.46399052132E+02 -0.77105333188E+01 -0.69229167066E+02  0.83695889598E+02  0.00000000000E+00 0. -1.
        -13    1    4    4    0    0  0.38639251641E+02  0.57905475415E+02 -0.54701237474E+01  0.69828061008E+02  0.00000000000E+00 0. -1.
         13    1    4    4    0    0 -0.36122915688E+02 -0.17637473679E+01 -0.13382812259E+02  0.38562617994E+02  0.00000000000E+00 0.  1.
         21    1    1    2  503  501 -0.75830927552E+01 -0.26150364300E+02 -0.66512472357E+01  0.28028270345E+02  0.00000000000E+00 0.  1.
          1    1    1    2  501    0  0.24671992998E+02 -0.39903389686E+02 -0.11312287779E+03  0.12246539603E+03  0.00000000000E+00 0. -1.
<scales pt_clust_5="13000.00000" pt_clust_6="13000.00000" pt_clust_7="13000.00000" pt_clust_8="13000.00000" pt_clust_9="27.22765" pt_clust_10="13000.00000"></scales>
<clustering>
<clus scale="   27.228">  1  9  2 -1</clus>
<clus scale="   80.190">  5  6 -1 -1</clus>
<clus scale="   83.093">  2  5  1 -1</clus>
<clus scale="   90.746">  7  8 -1 -1</clus>
<clus scale="   40.889">  7 10 -1 -1</clus>
<clus scale="   27.228">  1  5  2 -1</clus>
</clustering>
</event>
<event>
10    4  0.2866397E-005  0.3461818E+03  0.7546771E-02  0.1101621E+00
          2   -1    0    0  503    0 -0.00000000000E+00  0.00000000000E+00  0.13290537546E+04  0.13290537546E+04  0.00000000000E+00 0. -1.
         21   -1    0    0  501  502  0.00000000000E+00 -0.00000000000E+00 -0.52221865928E+02  0.52221865928E+02  0.00000000000E+00 0. -1.
         24    2    1    2    0    0  0.73637065656E+01  0.99981273362E+02  0.33106454875E+03  0.35473726495E+03  0.78640399970E+02 0.  0.
         23    2    1    2    0    0  0.11530106949E+03 -0.22122816136E+02  0.19101063750E+03  0.24222363795E+03  0.91670450673E+02 0.  0.
        -11    1    3    3    0    0 -0.48648398653E+01  0.10612080453E+03  0.31989872857E+03  0.33707638357E+03  0.00000000000E+00 0.  1.
         12    1    3    3    0    0  0.12228546431E+02 -0.61395311680E+01  0.11165820182E+02  0.17660881380E+02  0.00000000000E+00 0. -1.
        -11    1    4    4    0    0 -0.55899619491E+01  0.20059525100E+02  0.23866647797E+02  0.31674107705E+02  0.00000000000E+00 0.  1.
         11    1    4    4    0    0  0.12089103144E+03 -0.42182341236E+02  0.16714398970E+03  0.21054953025E+03  0.00000000000E+00 0. -1.
         21    1    1    2  503  502 -0.23050738647E+02 -0.10780693229E+01  0.44013678275E+01  0.23491931049E+02  0.00000000000E+00 0.  1.
          1    1    1    2  501    0 -0.99614037409E+02 -0.76780387903E+02  0.75035533464E+03  0.76082278661E+03  0.00000000000E+00 0. -1.
<scales pt_clust_5="13000.00000" pt_clust_6="13000.00000" pt_clust_7="13000.00000" pt_clust_8="13000.00000" pt_clust_9="23.07594" pt_clust_10="13000.00000"></scales>
<clustering>
<clus scale="   23.076">  2  9  1 -1</clus>
<clus scale="   78.640">  5  6 -1 -1</clus>
<clus scale="   91.670">  7  8 -1 -1</clus>
<clus scale="  126.972">  1  5  2 -1</clus>
<clus scale="  101.702">  7 10 -1 -1</clus>
<clus scale="   23.076">  2  5  1 -1</clus>
</clustering>
</event>
<event>
10    4  0.2866397E-005  0.4814863E+03  0.7546771E-02  0.1068215E+00
          2   -1    0    0  502    0 -0.00000000000E+00  0.00000000000E+00  0.84301335155E+03  0.84301335155E+03  0.00000000000E+00 0. -1.
         21   -1    0    0  503  502  0.00000000000E+00 -0.00000000000E+00 -0.11538368425E+03  0.11538368425E+03  0.00000000000E+00 0. -1.
         24    2    1    2    0    0  0.31456360883E+02  0.74911010422E+02  0.18087367894E+03  0.21430162959E+03  0.81294148551E+02 0.  0.
         23    2    1    2    0    0  0.21902760475E+03 -0.62900077748E+02  0.31954020000E+03  0.40309902232E+03  0.91942215331E+02 0.  0.
        -11    1    3    3    0    0  0.37900791020E+02  0.71838917982E+02  0.18764004205E+03  0.20446536498E+03  0.00000000000E+00 0.  1.
         12    1    3    3    0    0 -0.64444301369E+01  0.30720924398E+01 -0.67663631075E+01  0.98362646087E+01  0.00000000000E+00 0. -1.
        -13    1    4    4    0    0  0.50825932736E+02  0.75935143831E+01  0.26191512517E+02  0.57679565074E+02  0.00000000000E+00 0.  1.
         13    1    4    4    0    0  0.16820167202E+03 -0.70493592131E+02  0.29334868748E+03  0.34541945725E+03  0.00000000000E+00 0. -1.
         21    1    1    2  503  501 -0.18923493557E+02  0.93828385105E+01  0.12871989340E+02  0.24735083919E+02  0.00000000000E+00 0.  1.
          1    1    1    2  501    0 -0.23156047208E+03 -0.21393771185E+02  0.21434379903E+03  0.31626129997E+03  0.00000000000E+00 0. -1.
<scales pt_clust_5="13000.00000" pt_clust_6="13000.00000" pt_clust_7="13000.00000" pt_clust_8="13000.00000" pt_clust_9="21.12194" pt_clust_10="13000.00000"></scales>
<clustering>
<clus scale="   21.122">  2  9  1 -1</clus>
<clus scale="   81.294">  5  6 -1 -1</clus>
<clus scale="   91.942">  7  8 -1 -1</clus>
<clus scale="  115.122">  1  5  2 -1</clus>
<clus scale="  228.013">  7 10 -1 -1</clus>
<clus scale="   21.122">  2  5  1 -1</clus>
</clustering>
</event>
<event>
10    4  0.2866397E-005  0.2305058E+03  0.7546771E-02  0.1138086E+00
         21   -1    0    0  501  502  0.00000000000E+00  0.00000000000E+00  0.11784307964E+03  0.11784307964E+03  0.00000000000E+00 0. -1.
          2   -1    0    0  503    0 -0.00000000000E+00 -0.00000000000E+00 -0.54499203818E+03  0.54499203818E+03  0.00000000000E+00 0. -1.
         24    2    1    2    0    0 -0.73439734937E+02 -0.13824835007E+03 -0.17435786406E+03  0.24736773917E+03  0.79272521466E+02 0.  0.
         23    2    1    2    0    0  0.63325425726E+02  0.36552992308E+02 -0.18958010509E+03  0.22261654490E+03  0.90946572367E+02 0.  0.
        -13    1    3    3    0    0 -0.56545383673E+02 -0.38788127199E+02 -0.40115193283E+02  0.79442607954E+02  0.00000000000E+00 0.  1.
         14    1    3    3    0    0 -0.16894351264E+02 -0.99460222867E+02 -0.13424267077E+03  0.16792513121E+03  0.00000000000E+00 0. -1.
        -11    1    4    4    0    0 -0.10814402476E+02 -0.20434018442E+02 -0.40587733796E+02  0.46710432938E+02  0.00000000000E+00 0. -1.
         11    1    4    4    0    0  0.74139828202E+02  0.56987010750E+02 -0.14899237129E+03  0.17590611196E+03  0.00000000000E+00 0.  1.
         21    1    1    2  503  502  0.24374964949E+02 -0.46117441764E+01  0.37998247531E+02  0.45379223396E+02  0.00000000000E+00 0. -1.
          1    1    1    2  501    0 -0.14260655738E+02  0.10630710193E+03 -0.10120923693E+03  0.14747161036E+03  0.00000000000E+00 0. -1.
<scales pt_clust_5="13000.00000" pt_clust_6="13000.00000" pt_clust_7="13000.00000" pt_clust_8="13000.00000" pt_clust_9="24.80740" pt_clust_10="13000.00000"></scales>
<clustering>
<clus scale="   24.807">  1  9  2 -1</clus>
<clus scale="   79.273">  5  6 -1 -1</clus>
<clus scale="   90.947">  7  8 -1 -1</clus>
<clus scale="  105.130">  7 10 -1 -1</clus>
<clus scale="  172.704">  2  5  1 -1</clus>
<clus scale="   24.807">  1  5  2 -1</clus>
</clustering>
</event>
<event>
10    4  0.2866397E-005  0.3173666E+03  0.7546771E-02  0.1128052E+00
          2   -1    0    0  503    0 -0.00000000000E+00  0.00000000000E+00  0.10099109360E+04  0.10099109360E+04  0.00000000000E+00 0. -1.
         21   -1    0    0  501  502  0.00000000000E+00 -0.00000000000E+00 -0.23378406526E+03  0.23378406526E+03  0.00000000000E+00 0. -1.
         24    2    1    2    0    0  0.24481737152E+02  0.89836687957E+01  0.45820850635E+02  0.95259899026E+02  0.79340004099E+02 0.  0.
         23    2    1    2    0    0 -0.10837374179E+03  0.71793024760E+02  0.47555264606E+03  0.50376734879E+03  0.10359592764E+03 0.  0.
        -13    1    3    3    0    0  0.18109993736E+02  0.16017831444E+02  0.67443413160E+02  0.71646052061E+02  0.00000000000E+00 0.  1.
         14    1    3    3    0    0  0.63717434156E+01 -0.70341626485E+01 -0.21622562525E+02  0.23613846964E+02  0.00000000000E+00 0. -1.
        -13    1    4    4    0    0 -0.29876738234E+02  0.81179596715E+02  0.22586075635E+03  0.24185910706E+03  0.00000000000E+00 0. -1.
         13    1    4    4    0    0 -0.78497003561E+02 -0.93865719552E+01  0.24969188970E+03  0.26190824173E+03  0.00000000000E+00 0.  1.
         21    1    1    2  503  502 -0.18168121861E+02  0.32652708155E+02 -0.18004029120E+03  0.18387709606E+03  0.00000000000E+00 0. -1.
          1    1    1    2  501    0  0.10206012650E+03 -0.11342940171E+03  0.43479366526E+03  0.46079065740E+03  0.00000000000E+00 0. -1.
<scales pt_clust_5="13000.00000" pt_clust_6="13000.00000" pt_clust_7="13000.00000" pt_clust_8="13000.00000" pt_clust_9="37.36683" pt_clust_10="13000.00000"></scales>
<clustering>
<clus scale="   37.367">  2  9  1 -1</clus>
<clus scale="   79.340">  5  6 -1 -1</clus>
<clus scale="   84.546">  1  5  2 -1</clus>
<clus scale="  103.596">  7  8 -1 -1</clus>
<clus scale="  140.885">  7 10 -1 -1</clus>
<clus scale="   37.367">  2  5  1 -1</clus>
</clustering>
</event>
<event>
10    4  0.2866397E-005  0.3080845E+03  0.7546771E-02  0.1127989E+00
         21   -1    0    0  501  502  0.00000000000E+00  0.00000000000E+00  0.58298758851E+02  0.58298758851E+02  0.00000000000E+00 0. -1.
          2   -1    0    0  503    0 -0.00000000000E+00 -0.00000000000E+00 -0.16197591684E+04  0.16197591684E+04  0.00000000000E+00 0. -1.
         24    2    1    2    0    0  0.45530001386E+02 -0.24487004322E+02 -0.26546513692E+03  0.28113985153E+03  0.76780744929E+02 0.  0.
         23    2    1    2    0    0 -0.11286741300E+02  0.13852257616E+03 -0.24825490106E+03  0.29994877162E+03  0.94988815454E+02 0.  0.
        -11    1    3    3    0    0  0.27350555174E+02  0.24764849382E+02 -0.14705421660E+03  0.15161231234E+03  0.00000000000E+00 0.  1.
         12    1    3    3    0    0  0.18179446212E+02 -0.49251853704E+02 -0.11841092032E+03  0.12952753919E+03  0.00000000000E+00 0. -1.
        -13    1    4    4    0    0 -0.76788434700E+01  0.48844377602E+02 -0.18144576652E+03  0.18806196864E+03  0.00000000000E+00 0.  1.
         13    1    4    4    0    0 -0.36078978303E+01  0.89678198559E+02 -0.66809134537E+02  0.11188680298E+03  0.00000000000E+00 0. -1.
         21    1    1    2  503  502 -0.10986455022E+03 -0.17966707298E+03 -0.54331918429E+03  0.58270594001E+03  0.00000000000E+00 0. -1.
          1    1    1    2  501    0  0.75621290132E+02  0.65631501143E+02 -0.50442118725E+03  0.51426336406E+03  0.00000000000E+00 0. -1.
<scales pt_clust_5="13000.00000" pt_clust_6="13000.00000" pt_clust_7="13000.00000" pt_clust_8="13000.00000" pt_clust_9="210.50853" pt_clust_10="13000.00000"></scales>
<clustering>
<clus scale="   76.781">  5  6 -1 -1</clus>
<clus scale="   92.563">  2  5  1 -1</clus>
<clus scale="   94.989">  7  8 -1 -1</clus>
<clus scale="  108.616">  7 10 -1 -1</clus>
<clus scale="  210.509">  1  9  2 -1</clus>
<clus scale="  210.509">  1  5  2 -1</clus>
</clustering>
</event>
<event>
10    4  0.2866397E-005  0.2165795E+03  0.7546771E-02  0.1172177E+00
         21   -1    0    0  503  502  0.00000000000E+00  0.00000000000E+00  0.94435505532E+02  0.94435505532E+02  0.00000000000E+00 0. -1.
          2   -1    0    0  502    0 -0.00000000000E+00 -0.00000000000E+00 -0.47583934141E+03  0.47583934141E+03  0.00000000000E+00 0. -1.
         24    2    1    2    0    0  0.69087163952E+01  0.49097451085E+02 -0.15405022687E+03  0.18011407398E+03  0.79065271642E+02 0.  0.
         23    2    1    2    0    0 -0.12514843496E+02 -0.43850241238E+02 -0.29074418674E+02  0.10721172371E+03  0.92571955337E+02 0.  0.
        -13    1    3    3    0    0  0.37512686127E+02  0.44692103828E+02 -0.12378382235E+03  0.13684670416E+03  0.00000000000E+00 0.  1.
         14    1    3    3    0    0 -0.30603969731E+02  0.44053472569E+01 -0.30266404521E+02  0.43267369812E+02  0.00000000000E+00 0. -1.
        -11    1    4    4    0    0  0.20987629708E+02  0.15441102852E+02  0.10900587652E+02  0.28244133359E+02  0.00000000000E+00 0.  1.
         11    1    4    4    0    0 -0.33502473203E+02 -0.59291344091E+02 -0.39975006327E+02  0.78967590350E+02  0.00000000000E+00 0. -1.
         21    1    1    2  503  501  0.38904736606E+02 -0.80917530326E+01  0.31527429833E+02  0.50725080872E+02  0.00000000000E+00 0. -1.
          1    1    1    2  501    0 -0.33298609506E+02  0.28445431863E+01 -0.22980662016E+03  0.23222396838E+03  0.00000000000E+00 0. -1.
<scales pt_clust_5="13000.00000" pt_clust_6="13000.00000" pt_clust_7="13000.00000" pt_clust_8="13000.00000" pt_clust_9="39.73732" pt_clust_10="13000.00000"></scales>
<clustering>
<clus scale="   39.737">  1  9  2 -1</clus>
<clus scale="   79.065">  5  6 -1 -1</clus>
<clus scale="   92.572">  7  8 -1 -1</clus>
<clus scale="   32.526">  7 10 -1 -1</clus>
<clus scale="   93.494">  2  5  1 -1</clus>
<clus scale="   39.737">  1  5  2 -1</clus>
</clustering>
</event>
<event>
10    4  0.2866397E-005  0.7155060E+03  0.7546771E-02  0.9897868E-01
         21   -1    0    0  503  502  0.00000000000E+00  0.00000000000E+00  0.21546012612E+03  0.21546012612E+03  0.00000000000E+00 0. -1.
          2   -1    0    0  502    0 -0.00000000000E+00 -0.00000000000E+00 -0.20785100998E+04  0.20785100998E+04  0.00000000000E+00 0. -1.
         24    2    1    2    0    0  0.25974211262E+03 -0.24955513346E+03 -0.10356754490E+04  0.10994406375E+04  0.80014686031E+02 0.  0.
         23    2    1    2    0    0  0.17808524777E+03 -0.35057252716E+02 -0.36484256569E+03  0.41740589533E+03  0.90411378026E+02 0.  0.
        -13    1    3    3    0    0  0.40298351676E+02 -0.74150437985E+02 -0.17941901477E+03  0.19827613942E+03  0.00000000000E+00 0.  1.
         14    1    3    3    0    0  0.21944376095E+03 -0.17540469548E+03 -0.85625643424E+03  0.90116449808E+03  0.00000000000E+00 0. -1.
        -11    1    4    4    0    0  0.83994623829E+02 -0.19621493819E+02 -0.26784721465E+03  0.28139337278E+03  0.00000000000E+00 0.  1.
         11    1    4    4    0    0  0.94090623938E+02 -0.15435758898E+02 -0.96995351045E+02  0.13601252255E+03  0.00000000000E+00 0. -1.
         21    1    1    2  503  501 -0.34310304726E+02  0.11041756969E+02  0.55240302700E+02  0.65959142275E+02  0.00000000000E+00 0. -1.
          1    1    1    2  501    0 -0.40351705566E+03  0.27357062921E+03 -0.51777226164E+03  0.71116455079E+03  0.00000000000E+00 0. -1.
<scales pt_clust_5="13000.00000" pt_clust_6="13000.00000" pt_clust_7="13000.00000" pt_clust_8="13000.00000" pt_clust_9="36.04327" pt_clust_10="13000.00000"></scales>
<clustering>
<clus scale="   36.043">  1  9  2 -1</clus>
<clus scale="   80.015">  5  6 -1 -1</clus>
<clus scale="   90.411">  7  8 -1 -1</clus>
<clus scale="  362.487">  2  5  1 -1</clus>
<clus scale="  289.317">  7 10 -1 -1</clus>
<clus scale="   36.043">  1  5  2 -1</clus>
</clustering>
</event>
<event>
10    4  0.2866397E-005  0.1625664E+03  0.7546771E-02  0.1215278E+00
         21   -1    0    0  503  502  0.00000000000E+00  0.00000000000E+00  0.17948323466E+03  0.17948323466E+03  0.00000000000E+00 0. -1.
          2   -1    0    0  502    0 -0.00000000000E+00 -0.00000000000E+00 -0.57635011231E+03  0.57635011231E+03  0.00000000000E+00 0. -1.
         24    2    1    2    0    0  0.22360328268E+02  0.18480459480E+02 -0.25658837453E+03  0.27055294807E+03  0.80745229611E+02 0.  0.
         23    2    1    2    0    0  0.72149900515E+02 -0.42557829569E+02 -0.20216860861E+03  0.23412774656E+03  0.83227870335E+02 0.  0.
        -11    1    3    3    0    0  0.46271088458E+02  0.16721581584E+02 -0.22797121953E+03  0.23321985733E+03  0.00000000000E+00 0.  1.
         12    1    3    3    0    0 -0.23910760191E+02  0.17588778954E+01 -0.28617154994E+02  0.37333090741E+02  0.00000000000E+00 0. -1.
        -11    1    4    4    0    0  0.18037938168E+02 -0.32821524681E+02 -0.16138053882E+03  0.16566924279E+03  0.00000000000E+00 0.  1.
         11    1    4    4    0    0  0.54111962347E+02 -0.97363048878E+01 -0.40788069794E+02  0.68458503777E+02  0.00000000000E+00 0. -1.
         21    1    1    2  503  501 -0.93659941493E+02  0.66048212280E+02  0.12864785030E+03  0.17229283320E+03  0.00000000000E+00 0. -1.
          1    1    1    2  501    0 -0.85028728942E+00 -0.41970842191E+02 -0.66757744802E+02  0.78859819134E+02  0.00000000000E+00 0. -1.
<scales pt_clust_5="13000.00000" pt_clust_6="13000.00000" pt_clust_7="13000.00000" pt_clust_8="13000.00000" pt_clust_9="114.09091" pt_clust_10="13000.00000"></scales>
<clustering>
<clus scale="   80.745">  5  6 -1 -1</clus>
<clus scale="   83.228">  7  8 -1 -1</clus>
<clus scale="   41.979">  7 10 -1 -1</clus>
<clus scale="   85.798">  2  5  1 -1</clus>
<clus scale="  114.091">  1  9  2 -1</clus>
<clus scale="  114.091">  1  5  2 -1</clus>
</clustering>
</event>
<event>
10    4  0.2866398E-005  0.3705685E+03  0.7546771E-02  0.1080355E+00
          2   -1    0    0  503    0 -0.00000000000E+00  0.00000000000E+00  0.75696811236E+03  0.75696811236E+03  0.00000000000E+00 0. -1.
         21   -1    0    0  501  502  0.00000000000E+00 -0.00000000000E+00 -0.51305721468E+03  0.51305721468E+03  0.00000000000E+00 0. -1.
         24    2    1    2    0    0 -0.40580840551E+02  0.18875507754E+03  0.36398207977E+03  0.41900882628E+03  0.76224393658E+02 0.  0.
         23    2    1    2    0    0 -0.13062970171E+02  0.63029912890E+02  0.24207879785E+03  0.26657012756E+03  0.91181563002E+02 0.  0.
        -13    1    3    3    0    0 -0.24881939521E+02  0.11434231359E+03  0.29081965641E+03  0.31347942221E+03  0.00000000000E+00 0.  1.
         14    1    3    3    0    0 -0.15698901030E+02  0.74412763949E+02  0.73162423359E+02  0.10552940407E+03  0.00000000000E+00 0. -1.
        -11    1    4    4    0    0 -0.49963100258E+02  0.27806560501E+02  0.16021677003E+03  0.17011446027E+03  0.00000000000E+00 0. -1.
         11    1    4    4    0    0  0.36900130087E+02  0.35223352389E+02  0.81862027819E+02  0.96455667291E+02  0.00000000000E+00 0.  1.
         21    1    1    2  503  502  0.14210118894E+03 -0.10569445442E+03 -0.37342359289E+03  0.41329075155E+03  0.00000000000E+00 0. -1.
          1    1    1    2  501    0 -0.88457378220E+02 -0.14609053601E+03  0.11273612943E+02  0.17115562165E+03  0.00000000000E+00 0. -1.
<scales pt_clust_5="13000.00000" pt_clust_6="13000.00000" pt_clust_7="13000.00000" pt_clust_8="13000.00000" pt_clust_9="177.09903" pt_clust_10="13000.00000"></scales>
<clustering>
<clus scale="   76.224">  5  6 -1 -1</clus>
<clus scale="   91.182">  7  8 -1 -1</clus>
<clus scale="  170.784">  7 10 -1 -1</clus>
<clus scale="  177.099">  2  9  1 -1</clus>
<clus scale="  181.439">  1  5  2 -1</clus>
<clus scale="  177.099">  2  5  1 -1</clus>
</clustering>
</event>
<event>
10    4  0.2866397E-005  0.2847268E+03  0.7546771E-02  0.1143511E+00
          2   -1    0    0  503    0 -0.00000000000E+00  0.00000000000E+00  0.26313251755E+03  0.26313251755E+03  0.00000000000E+00 0. -1.
         21   -1    0    0  501  502  0.00000000000E+00 -0.00000000000E+00 -0.23687703439E+03  0.23687703439E+03  0.00000000000E+00 0. -1.
         24    2    1    2    0    0  0.50541292553E+01 -0.17001106200E+02  0.65440012882E+02  0.10463639315E+03  0.79698165921E+02 0.  0.
         23    2    1    2    0    0 -0.53605045590E+02 -0.12862939319E+03  0.30592284675E+02  0.17182140275E+03  0.95748027958E+02 0.  0.
        -13    1    3    3    0    0  0.18975676162E+02  0.28369310459E+02  0.29346747087E+02  0.45012505222E+02  0.00000000000E+00 0.  1.
         14    1    3    3    0    0 -0.13921546906E+02 -0.45370416659E+02  0.36093265795E+02  0.59623887930E+02  0.00000000000E+00 0. -1.
        -13    1    4    4    0    0 -0.26564400354E+02 -0.86137134885E+01  0.39612852511E+02  0.48466911499E+02  0.00000000000E+00 0.  1.
         13    1    4    4    0    0 -0.27040645236E+02 -0.12001567970E+03 -0.90205678362E+01  0.12335449125E+03  0.00000000000E+00 0. -1.
         21    1    1    2  503  502 -0.15796986219E+02  0.47569021396E+02 -0.91442135920E+02  0.10427857302E+03  0.00000000000E+00 0. -1.
          1    1    1    2  501    0  0.64347902554E+02  0.98061477991E+02  0.21665321529E+02  0.11927318301E+03  0.00000000000E+00 0. -1.
<scales pt_clust_5="13000.00000" pt_clust_6="13000.00000" pt_clust_7="13000.00000" pt_clust_8="13000.00000" pt_clust_9="50.12341" pt_clust_10="13000.00000"></scales>
<clustering>
<clus scale="   50.123">  2  9  1 -1</clus>
<clus scale="   79.698">  5  6 -1 -1</clus>
<clus scale="   80.410">  1  5  2 -1</clus>
<clus scale="   95.748">  7  8 -1 -1</clus>
<clus scale="  125.097">  7 10 -1 -1</clus>
<clus scale="   50.123">  2  5  1 -1</clus>
</clustering>
</event>
<event>
10    4  0.2866397E-005  0.2976215E+03  0.7546771E-02  0.1133039E+00
         21   -1    0    0  501  502  0.00000000000E+00  0.00000000000E+00  0.68412666552E+02  0.68412666552E+02  0.00000000000E+00 0.  1.
          2   -1    0    0  503    0 -0.00000000000E+00 -0.00000000000E+00 -0.73393286671E+03  0.73393286671E+03  0.00000000000E+00 0. -1.
         24    2    1    2    0    0  0.26751967142E+02 -0.20589377143E+02 -0.66090168906E+02  0.10959896108E+03  0.80650056712E+02 0.  0.
         23    2    1    2    0    0  0.90059193586E+02 -0.31142624034E+02 -0.14927492904E+03  0.19925686954E+03  0.91322364384E+02 0.  0.
        -13    1    3    3    0    0  0.43521031931E+02 -0.27410659745E+02 -0.73773142765E+02  0.89932758667E+02  0.00000000000E+00 0.  1.
         14    1    3    3    0    0 -0.16769064789E+02  0.68212826014E+01  0.76829738590E+01  0.19666202418E+02  0.00000000000E+00 0. -1.
        -13    1    4    4    0    0  0.39961764375E+02 -0.32040267199E+02 -0.13896186925E+03  0.14810105482E+03  0.00000000000E+00 0. -1.
         13    1    4    4    0    0  0.50097429212E+02  0.89764316543E+00 -0.10313059789E+02  0.51155814714E+02  0.00000000000E+00 0.  1.
         21    1    1    2  503  502 -0.18357923494E+01 -0.31236656206E+02 -0.12942479075E+02  0.33861579837E+02  0.00000000000E+00 0.  1.
          1    1    1    2  501    0 -0.11497536838E+03  0.82968657382E+02 -0.43721262314E+03  0.45962812281E+03  0.00000000000E+00 0. -1.
<scales pt_clust_5="13000.00000" pt_clust_6="13000.00000" pt_clust_7="13000.00000" pt_clust_8="13000.00000" pt_clust_9="31.29055" pt_clust_10="13000.00000"></scales>
<clustering>
<clus scale="   31.291">  1  9  2 -1</clus>
<clus scale="   80.650">  5  6 -1 -1</clus>
<clus scale="   90.708">  2  5  1 -1</clus>
<clus scale="   91.322">  7  8 -1 -1</clus>
<clus scale="  111.727">  7 10 -1 -1</clus>
<clus scale="   31.291">  1  5  2 -1</clus>
</clustering>
</event>
<event>
10    4  0.2866397E-005  0.3232359E+03  0.7546771E-02  0.1103185E+00
         21   -1    0    0  501  502  0.00000000000E+00  0.00000000000E+00  0.69693813297E+02  0.69693813297E+02  0.00000000000E+00 0. -1.
          2   -1    0    0  503    0 -0.00000000000E+00 -0.00000000000E+00 -0.11666916016E+04  0.11666916016E+04  0.00000000000E+00 0. -1.
         24    2    1    2    0    0 -0.77613115822E+02  0.58138646237E+02 -0.90862552848E+02  0.15531026398E+03  0.80382688773E+02 0.  0.
         23    2    1    2    0    0  0.78015563412E+01 -0.46357832287E+02 -0.80404001240E+02  0.13100740013E+03  0.92131550396E+02 0.  0.
        -13    1    3    3    0    0 -0.11925853462E+02 -0.19334904446E+02 -0.75439394000E+01  0.23936907328E+02  0.00000000000E+00 0.  1.
         14    1    3    3    0    0 -0.65687262360E+02  0.77473550683E+02 -0.83318613448E+02  0.13137335665E+03  0.00000000000E+00 0. -1.
        -13    1    4    4    0    0 -0.26667925391E+02  0.16615021149E+02 -0.28494243863E+02  0.42416495680E+02  0.00000000000E+00 0.  1.
         13    1    4    4    0    0  0.34469481732E+02 -0.62972853436E+02 -0.51909757377E+02  0.88590904453E+02  0.00000000000E+00 0. -1.
         21    1    1    2  503  502 -0.51361250602E+02  0.26201304339E+02 -0.10699114555E+03  0.12153843687E+03  0.00000000000E+00 0.  1.
          1    1    1    2  501    0  0.12117281008E+03 -0.37982118289E+02 -0.81874008868E+03  0.82852931392E+03  0.00000000000E+00 0. -1.
<scales pt_clust_5="13000.00000" pt_clust_6="13000.00000" pt_clust_7="13000.00000" pt_clust_8="13000.00000" pt_clust_9="57.65836" pt_clust_10="13000.00000"></scales>
<clustering>
<clus scale="   57.658">  1  9  2 -1</clus>
<clus scale="   80.383">  5  6 -1 -1</clus>
<clus scale="   92.132">  7  8 -1 -1</clus>
<clus scale="  122.531">  7 10 -1 -1</clus>
<clus scale="  149.799">  2  5  1 -1</clus>
<clus scale="   57.658">  1  5  2 -1</clus>
</clustering>
</event>
<event>
10    4  0.2866397E-005  0.2965477E+03  0.7546771E-02  0.1130566E+00
         -3   -1    0    0    0  501 -0.00000000000E+00  0.00000000000E+00  0.48865065381E+03  0.48865065381E+03  0.00000000000E+00 0.  1.
         21   -1    0    0  503  502  0.00000000000E+00 -0.00000000000E+00 -0.11055195299E+03  0.11055195299E+03  0.00000000000E+00 0.  1.
         24    2    1    2    0    0  0.25838213803E+02 -0.41872207461E+02  0.11857988179E+02  0.91317861524E+02  0.76009505323E+02 0.  0.
         23    2    1    2    0    0  0.11630360121E+03  0.52111829984E+02  0.22730041473E+03  0.27624870913E+03  0.91682606222E+02 0.  0.
        -13    1    3    3    0    0  0.25543246089E+02  0.13132993454E+02 -0.12295117714E+02  0.31242644854E+02  0.00000000000E+00 0.  1.
         14    1    3    3    0    0  0.29496771353E+00 -0.55005200915E+02  0.24153105893E+02  0.60075216670E+02  0.00000000000E+00 0. -1.
        -13    1    4    4    0    0  0.10797948752E+02  0.42143737305E+02  0.31854442072E+02  0.53920272357E+02  0.00000000000E+00 0. -1.
         13    1    4    4    0    0  0.10550565246E+03  0.99680926794E+01  0.19544597265E+03  0.22232843677E+03  0.00000000000E+00 0.  1.
         21    1    1    2  503  501 -0.34669323608E+01 -0.32841596851E+02 -0.13931234696E+01  0.33053455141E+02  0.00000000000E+00 0. -1.
         -4    1    1    2    0  502 -0.13867488265E+03  0.22601974328E+02  0.14033342138E+03  0.19858258100E+03  0.00000000000E+00 0.  1.
<scales pt_clust_5="13000.00000" pt_clust_6="13000.00000" pt_clust_7="13000.00000" pt_clust_8="13000.00000" pt_clust_9="33.02408" pt_clust_10="13000.00000"></scales>
<clustering>
<clus scale="   33.024">  2  9  1 -1</clus>
<clus scale="   76.010">  5  6 -1 -1</clus>
<clus scale="   91.683">  7  8 -1 -1</clus>
<clus scale="   97.419">  1  5  2 -1</clus>
<clus scale="  130.120">  7 10 -1 -1</clus>
<clus scale="   33.024">  2  5  1 -1</clus>
</clustering>
</event>
<event>
10    4  0.2866397E-005  0.3034239E+03  0.7546771E-02  0.1121107E+00
          2   -1    0    0  502    0 -0.00000000000E+00  0.00000000000E+00  0.75134944376E+03  0.75134944376E+03  0.00000000000E+00 0. -1.
         21   -1    0    0  503  502  0.00000000000E+00 -0.00000000000E+00 -0.15902970371E+03  0.15902970371E+03  0.00000000000E+00 0. -1.
         24    2    1    2    0    0  0.45143541087E+02  0.27329540344E+02  0.26531197467E+03  0.28834856573E+03  0.99847926279E+02 0.  0.
         23    2    1    2    0    0 -0.11476503127E+03  0.62527226311E+02  0.33189890959E+03  0.36888870094E+03  0.94028299235E+02 0.  0.
        -11    1    3    3    0    0 -0.11401473788E+02  0.36854802120E+02  0.18898274258E+03  0.19288013645E+03  0.00000000000E+00 0.  1.
         12    1    3    3    0    0  0.56545014874E+02 -0.95252617753E+01  0.76329232084E+02  0.95468429282E+02  0.00000000000E+00 0. -1.
        -13    1    4    4    0    0 -0.12809137600E+03  0.38993572866E+02  0.27990176489E+03  0.31027874133E+03  0.00000000000E+00 0. -1.
         13    1    4    4    0    0  0.13326344729E+02  0.23533653446E+02  0.51997144699E+02  0.58609959607E+02  0.00000000000E+00 0.  1.
         21    1    1    2  503  501  0.13056515131E+02  0.20733560606E+02 -0.96010794292E+02  0.99087969721E+02  0.00000000000E+00 0. -1.
          1    1    1    2  501    0  0.56564975051E+02 -0.11059032726E+03  0.91119650087E+02  0.15405391108E+03  0.00000000000E+00 0. -1.
<scales pt_clust_5="13000.00000" pt_clust_6="13000.00000" pt_clust_7="13000.00000" pt_clust_8="13000.00000" pt_clust_9="24.50210" pt_clust_10="13000.00000"></scales>
<clustering>
<clus scale="   24.502">  2  9  1 -1</clus>
<clus scale="   94.028">  7  8 -1 -1</clus>
<clus scale="   99.848">  5  6 -1 -1</clus>
<clus scale="  114.929">  1  5  2 -1</clus>
<clus scale="  118.891">  7 10 -1 -1</clus>
<clus scale="   24.502">  2  5  1 -1</clus>
</clustering>
</event>
<event>
10    4  0.2866397E-005  0.4871298E+03  0.7546771E-02  0.1055459E+00
          2   -1    0    0  503    0 -0.00000000000E+00  0.00000000000E+00  0.12564355766E+04  0.12564355766E+04  0.00000000000E+00 0. -1.
         21   -1    0    0  501  502  0.00000000000E+00 -0.00000000000E+00 -0.15593896111E+03  0.15593896111E+03  0.00000000000E+00 0.  1.
         24    2    1    2    0    0  0.10922734100E+03  0.98964499181E+02  0.40859598279E+01  0.16829498178E+03  0.81129043545E+02 0.  0.
         23    2    1    2    0    0 -0.12946977439E+02  0.92163071846E+02  0.57192692911E+02  0.14083683729E+03  0.88895188731E+02 0.  0.
        -11    1    3    3    0    0  0.10442368996E+03  0.50116570265E+02 -0.12464752868E+02  0.11649612742E+03  0.00000000000E+00 0.  1.
         12    1    3    3    0    0  0.48036510369E+01  0.48847928916E+02  0.16550712695E+02  0.51798854363E+02  0.00000000000E+00 0. -1.
        -13    1    4    4    0    0  0.23034384826E+02  0.26755575350E+01  0.34804479952E+02  0.41822162990E+02  0.00000000000E+00 0.  1.
         13    1    4    4    0    0 -0.35981362264E+02  0.89487514311E+02  0.22388212958E+02  0.99014674304E+02  0.00000000000E+00 0. -1.
         21    1    1    2  503  502 -0.54274093006E+01 -0.21064649291E+02 -0.18217070094E+02  0.28373189181E+02  0.00000000000E+00 0. -1.
          1    1    1    2  501    0 -0.90852954256E+02 -0.17006292174E+03  0.10574350329E+04  0.10748695295E+04  0.00000000000E+00 0. -1.
<scales pt_clust_5="13000.00000" pt_clust_6="13000.00000" pt_clust_7="13000.00000" pt_clust_8="13000.00000" pt_clust_9="21.75261" pt_clust_10="13000.00000"></scales>
<clustering>
<clus scale="   21.753">  2  9  1 -1</clus>
<clus scale="   81.129">  5  6 -1 -1</clus>
<clus scale="   88.895">  7  8 -1 -1</clus>
<clus scale="  158.661">  1  5  2 -1</clus>
<clus scale="   92.614">  7 10 -1 -1</clus>
<clus scale="   21.753">  2  5  1 -1</clus>
</clustering>
</event>
<event>
10    4  0.2866397E-005  0.2878496E+03  0.7546771E-02  0.1097955E+00
          2   -1    0    0  502    0 -0.00000000000E+00  0.00000000000E+00  0.78152704662E+03  0.78152704662E+03  0.00000000000E+00 0. -1.
         21   -1    0    0  503  502  0.00000000000E+00 -0.00000000000E+00 -0.10376999183E+03  0.10376999183E+03  0.00000000000E+00 0. -1.
         24    2    1    2    0    0  0.13720571872E+03  0.17667554792E+03  0.31001662476E+03  0.39006083348E+03  0.77443448447E+02 0.  0.
         23    2    1    2    0    0 -0.12849798979E+03 -0.95747834577E+02  0.15263840708E+03  0.23850305091E+03  0.88914795028E+02 0.  0.
        -11    1    3    3    0    0  0.19333140211E+01  0.47788583132E+02  0.44034902157E+02  0.65011991116E+02  0.00000000000E+00 0.  1.
         12    1    3    3    0    0  0.13527240470E+03  0.12888696479E+03  0.26598172260E+03  0.32504884237E+03  0.00000000000E+00 0. -1.
        -11    1    4    4    0    0 -0.12938971685E+03 -0.62482663826E+02  0.14545851596E+03  0.20446017209E+03  0.00000000000E+00 0. -1.
         11    1    4    4    0    0  0.89172706323E+00 -0.33265170751E+02  0.71798911166E+01  0.34042878825E+02  0.00000000000E+00 0.  1.
         21    1    1    2  503  501  0.21581506784E+02  0.18755134101E+01 -0.26345621276E+01  0.21822463271E+02  0.00000000000E+00 0. -1.
          1    1    1    2  501    0 -0.30289235718E+02 -0.82803226752E+02  0.21773658508E+03  0.23491069078E+03  0.00000000000E+00 0. -1.
<scales pt_clust_5="13000.00000" pt_clust_6="13000.00000" pt_clust_7="13000.00000" pt_clust_8="13000.00000" pt_clust_9="21.66285" pt_clust_10="13000.00000"></scales>
<clustering>
<clus scale="   21.663">  2  9  1 -1</clus>
<clus scale="   77.443">  5  6 -1 -1</clus>
<clus scale="   88.915">  7  8 -1 -1</clus>
<clus scale="   87.328">  7 10 -1 -1</clus>
<clus scale="  242.911">  1  5  2 -1</clus>
<clus scale="   21.663">  2  5  1 -1</clus>
</clustering>
</event>
<event>
10    4  0.2866397E-005  0.4026518E+03  0.7546771E-02  0.1090105E+00
          2   -1    0    0  503    0 -0.00000000000E+00  0.00000000000E+00  0.17008005037E+04  0.17008005037E+04  0.00000000000E+00 0. -1.
         21   -1    0    0  501  502  0.00000000000E+00 -0.00000000000E+00 -0.10750343616E+03  0.10750343616E+03  0.00000000000E+00 0. -1.
         24    2    1    2    0    0 -0.23174020326E+02  0.68621878305E+02  0.11966523640E+04  0.12015949634E+04  0.81287012726E+02 0.  0.
         23    2    1    2    0    0 -0.60058596381E+02  0.13515529943E+03  0.15757005601E+03  0.23379762554E+03  0.89213324074E+02 0.  0.
        -13    1    3    3    0    0  0.21835888709E+02  0.23049348725E+02  0.16954323072E+03  0.17249053770E+03  0.00000000000E+00 0.  1.
         14    1    3    3    0    0 -0.45009909035E+02  0.45572529580E+02  0.10271091333E+04  0.10291044257E+04  0.00000000000E+00 0. -1.
        -11    1    4    4    0    0 -0.31466329197E+02  0.12827583306E+03  0.15592085802E+03  0.20434317504E+03  0.00000000000E+00 0. -1.
         11    1    4    4    0    0 -0.28592267184E+02  0.68794663733E+01  0.16491979957E+01  0.29454450501E+02  0.00000000000E+00 0.  1.
         21    1    1    2  503  502 -0.23605471152E+02  0.13251075881E+01 -0.16046719557E+02  0.28573963446E+02  0.00000000000E+00 0. -1.
          1    1    1    2  501    0  0.10683808786E+03 -0.20510228532E+03  0.25512136711E+03  0.34433738748E+03  0.00000000000E+00 0. -1.
<scales pt_clust_5="13000.00000" pt_clust_6="13000.00000" pt_clust_7="13000.00000" pt_clust_8="13000.00000" pt_clust_9="23.64263" pt_clust_10="13000.00000"></scales>
<clustering>
<clus scale="   23.643">  2  9  1 -1</clus>
<clus scale="   81.287">  5  6 -1 -1</clus>
<clus scale="   89.213">  7  8 -1 -1</clus>
<clus scale="  109.046">  1  5  2 -1</clus>
<clus scale="  183.503">  7 10 -1 -1</clus>
<clus scale="   23.643">  2  5  1 -1</clus>
</clustering>
</event>
<event>
10    4  0.2866397E-005  0.3282233E+03  0.7546771E-02  0.1111940E+00
         21   -1    0    0  503  502  0.00000000000E+00  0.00000000000E+00  0.12501773886E+03  0.12501773886E+03  0.00000000000E+00 0. -1.
          2   -1    0    0  502    0 -0.00000000000E+00 -0.00000000000E+00 -0.91223055734E+03  0.91223055734E+03  0.00000000000E+00 0. -1.
         24    2    1    2    0    0 -0.29945767184E+02  0.66980495919E+02  0.42210379779E+02  0.11638149340E+03  0.79873650474E+02 0.  0.
         23    2    1    2    0    0 -0.13821071357E+03 -0.53815235630E+02 -0.24659485298E+03  0.30179013281E+03  0.90939440368E+02 0.  0.
        -13    1    3    3    0    0  0.25480517548E+02  0.84330997971E+01  0.39046405000E+01  0.27122318561E+02  0.00000000000E+00 0.  1.
         14    1    3    3    0    0 -0.55426284732E+02  0.58547396122E+02  0.38305739279E+02  0.89259174842E+02  0.00000000000E+00 0. -1.
        -13    1    4    4    0    0 -0.51286838354E+02 -0.66780698001E+02 -0.98538224328E+02  0.12961397713E+03  0.00000000000E+00 0. -1.
         13    1    4    4    0    0 -0.86923875214E+02  0.12965462372E+02 -0.14805662865E+03  0.17217615568E+03  0.00000000000E+00 0.  1.
         21    1    1    2  503  501  0.55367313611E+02  0.20605437669E+02 -0.64171487481E+02  0.87224442008E+02  0.00000000000E+00 0. -1.
          1    1    1    2  501    0  0.11278916714E+03 -0.33770697958E+02 -0.51865685779E+03  0.53185222798E+03  0.00000000000E+00 0. -1.
<scales pt_clust_5="13000.00000" pt_clust_6="13000.00000" pt_clust_7="13000.00000" pt_clust_8="13000.00000" pt_clust_9="59.07727" pt_clust_10="13000.00000"></scales>
<clustering>
<clus scale="   59.077">  1  9  2 -1</clus>
<clus scale="   79.874">  5  6 -1 -1</clus>
<clus scale="   90.939">  7  8 -1 -1</clus>
<clus scale="  114.361">  2  5  1 -1</clus>
<clus scale="  124.164">  7 10 -1 -1</clus>
<clus scale="   59.077">  1  5  2 -1</clus>
</clustering>
</event>
<event>
10    4  0.2866397E-005  0.2395165E+03  0.7546771E-02  0.1152357E+00
         21   -1    0    0  503  502  0.00000000000E+00  0.00000000000E+00  0.14206287329E+03  0.14206287329E+03  0.00000000000E+00 0.  1.
          2   -1    0    0  502    0 -0.00000000000E+00 -0.00000000000E+00 -0.32182313989E+03  0.32182313989E+03  0.00000000000E+00 0. -1.
         24    2    1    2    0    0 -0.78375319393E+02  0.36491421063E+02 -0.10913574918E+02  0.11926704960E+03  0.81432232579E+02 0.  0.
         23    2    1    2    0    0  0.17214018810E+02 -0.19874398621E+02  0.10035978024E+02  0.97422631853E+02  0.93269149123E+02 0.  0.
        -13    1    3    3    0    0 -0.49966828970E+02  0.14035487273E+02  0.33643117489E+02  0.61850935762E+02  0.00000000000E+00 0.  1.
         14    1    3    3    0    0 -0.28408490423E+02  0.22455933789E+02 -0.44556692407E+02  0.57416113842E+02  0.00000000000E+00 0. -1.
        -13    1    4    4    0    0 -0.33591769639E+02  0.48084416519E+01 -0.13111890576E+02  0.36379249210E+02  0.00000000000E+00 0.  1.
         13    1    4    4    0    0  0.50805788449E+02 -0.24682840273E+02  0.23147868600E+02  0.61043382644E+02  0.00000000000E+00 0. -1.
         21    1    1    2  503  501  0.18233242632E+02 -0.27445992093E+02  0.23214319377E+02  0.40306801449E+02  0.00000000000E+00 0. -1.
          1    1    1    2  501    0  0.42928057950E+02  0.10828969652E+02 -0.20209698908E+03  0.20688953028E+03  0.00000000000E+00 0. -1.
<scales pt_clust_5="13000.00000" pt_clust_6="13000.00000" pt_clust_7="13000.00000" pt_clust_8="13000.00000" pt_clust_9="32.95047" pt_clust_10="13000.00000"></scales>
<clustering>
<clus scale="   32.950">  1  9  2 -1</clus>
<clus scale="   81.432">  5  6 -1 -1</clus>
<clus scale="   93.269">  7  8 -1 -1</clus>
<clus scale="   44.516">  7 10 -1 -1</clus>
<clus scale="  109.452">  2  5  1 -1</clus>
<clus scale="   32.950">  1  5  2 -1</clus>
</clustering>
</event>
<event>
10    4  0.2866397E-005  0.1633541E+03  0.7546771E-02  0.1201067E+00
         21   -1    0    0  503  502  0.00000000000E+00  0.00000000000E+00  0.22404922534E+03  0.22404922534E+03  0.00000000000E+00 0. -1.
          2   -1    0    0  502    0 -0.00000000000E+00 -0.00000000000E+00 -0.22854055599E+03  0.22854055599E+03  0.00000000000E+00 0. -1.
         24    2    1    2    0    0 -0.79299792151E+02  0.28517215420E+02 -0.14333885561E+03  0.18423487173E+03  0.79339598083E+02 0.  0.
         23    2    1    2    0    0  0.21131391451E+02 -0.45051479178E+02  0.67222721032E+02  0.12242448183E+03  0.89401834697E+02 0.  0.
        -13    1    3    3    0    0 -0.18118177989E+02  0.47512192518E+02 -0.52599522282E+02  0.73160006532E+02  0.00000000000E+00 0.  1.
         14    1    3    3    0    0 -0.61181614162E+02 -0.18994977098E+02 -0.90739333324E+02  0.11107486520E+03  0.00000000000E+00 0. -1.
        -11    1    4    4    0    0  0.66074920974E+01  0.23151785699E+02 -0.20107447104E+01  0.24160033675E+02  0.00000000000E+00 0. -1.
         11    1    4    4    0    0  0.14523899354E+02 -0.68203264877E+02  0.69233465742E+02  0.98264448154E+02  0.00000000000E+00 0.  1.
         21    1    1    2  503  501  0.20159320103E+02  0.25764975138E+02  0.94923862873E+02  0.10040304713E+03  0.00000000000E+00 0. -1.
          1    1    1    2  501    0  0.38009080597E+02 -0.92307113798E+01 -0.23299058948E+02  0.45527380644E+02  0.00000000000E+00 0. -1.
<scales pt_clust_5="13000.00000" pt_clust_6="13000.00000" pt_clust_7="13000.00000" pt_clust_8="13000.00000" pt_clust_9="32.71440" pt_clust_10="13000.00000"></scales>
<clustering>
<clus scale="   32.714">  1  9  2 -1</clus>
<clus scale="   79.340">  5  6 -1 -1</clus>
<clus scale="   89.402">  7  8 -1 -1</clus>
<clus scale="   40.387">  7 10 -1 -1</clus>
<clus scale="  114.651">  2  5  1 -1</clus>
<clus scale="   32.714">  1  5  2 -1</clus>
</clustering>
</event>
<event>
10    4  0.2866397E-005  0.2218349E+03  0.7546771E-02  0.1173518E+00
          2   -1    0    0  502    0 -0.00000000000E+00  0.00000000000E+00  0.62568583163E+03  0.62568583163E+03  0.00000000000E+00 0. -1.
         21   -1    0    0  503  502  0.00000000000E+00 -0.00000000000E+00 -0.37425664553E+03  0.37425664553E+03  0.00000000000E+00 0. -1.
         24    2    1    2    0    0 -0.29106892500E+02 -0.17748597743E+01  0.22692980745E+03  0.24236508259E+03  0.79958329336E+02 0.  0.
         23    2    1    2    0    0  0.75533827558E+02  0.21478957019E+02  0.10249106054E+03  0.15552582672E+03  0.86701560461E+02 0.  0.
        -11    1    3    3    0    0 -0.53609795453E+02  0.80477987041E+00  0.19378807745E+03  0.20106833864E+03  0.00000000000E+00 0.  1.
         12    1    3    3    0    0  0.24502902953E+02 -0.25796396448E+01  0.33141730001E+02  0.41296743955E+02  0.00000000000E+00 0. -1.
        -13    1    4    4    0    0  0.52902099243E+02 -0.22849876933E+01  0.10980368779E+03  0.12190448361E+03  0.00000000000E+00 0.  1.
         13    1    4    4    0    0  0.22631728315E+02  0.23763944712E+02 -0.73126272527E+01  0.33621343104E+02  0.00000000000E+00 0. -1.
         21    1    1    2  503  501  0.30043769182E+02 -0.61697243775E+02 -0.32912141696E+03  0.33619947213E+03  0.00000000000E+00 0. -1.
          1    1    1    2  501    0 -0.76470704240E+02  0.41993146530E+02  0.25112973507E+03  0.26585209572E+03  0.00000000000E+00 0. -1.
<scales pt_clust_5="13000.00000" pt_clust_6="13000.00000" pt_clust_7="13000.00000" pt_clust_8="13000.00000" pt_clust_9="68.62345" pt_clust_10="13000.00000"></scales>
<clustering>
<clus scale="   68.623">  2  9  1 -1</clus>
<clus scale="   79.958">  5  6 -1 -1</clus>
<clus scale="   84.392">  1  5  2 -1</clus>
<clus scale="   86.702">  7  8 -1 -1</clus>
<clus scale="   87.304">  7 10 -1 -1</clus>
<clus scale="   68.623">  2  5  1 -1</clus>
</clustering>
</event>
<event>
10    4  0.2866397E-005  0.2212345E+03  0.7546771E-02  0.1167874E+00
         21   -1    0    0  501  502  0.00000000000E+00  0.00000000000E+00  0.22430686323E+03  0.22430686323E+03  0.00000000000E+00 0. -1.
          2   -1    0    0  503    0 -0.00000000000E+00 -0.00000000000E+00 -0.20906189441E+03  0.20906189441E+03  0.00000000000E+00 0. -1.
         24    2    1    2    0    0  0.63720960423E+01  0.10510669024E+01  0.56004222473E+02  0.10412645808E+03  0.87545062607E+02 0.  0.
         23    2    1    2    0    0 -0.83106560198E+02  0.96228661432E+02  0.52573704078E+01  0.15638188078E+03  0.90890027308E+02 0.  0.
        -11    1    3    3    0    0 -0.36986549518E+02  0.29724674215E+01  0.54601420515E+01  0.37505380401E+02  0.00000000000E+00 0.  1.
         12    1    3    3    0    0  0.43358645560E+02 -0.19214005191E+01  0.50544080422E+02  0.66621077674E+02  0.00000000000E+00 0. -1.
        -11    1    4    4    0    0 -0.42572145765E+02  0.59580949159E+02  0.47524791180E+02  0.87297668207E+02  0.00000000000E+00 0.  1.
         11    1    4    4    0    0 -0.40534414433E+02  0.36647712273E+02 -0.42267420772E+02  0.69084212574E+02  0.00000000000E+00 0. -1.
         21    1    1    2  503  502  0.19464643454E+02 -0.84877924564E+02  0.14887304572E+02  0.88344588179E+02  0.00000000000E+00 0. -1.
          1    1    1    2  501    0  0.57269820702E+02 -0.12401803770E+02 -0.60903928631E+02  0.84515830604E+02  0.00000000000E+00 0. -1.
<scales pt_clust_5="13000.00000" pt_clust_6="13000.00000" pt_clust_7="13000.00000" pt_clust_8="13000.00000" pt_clust_9="87.08119" pt_clust_10="13000.00000"></scales>
<clustering>
<clus scale="   87.081">  1  9  2 -1</clus>
<clus scale="   87.545">  5  6 -1 -1</clus>
<clus scale="   90.890">  7  8 -1 -1</clus>
<clus scale="   61.363">  7 10 -1 -1</clus>
<clus scale="   96.789">  2  5  1 -1</clus>
<clus scale="   87.081">  1  5  2 -1</clus>
</clustering>
</event>
<event>
10    4  0.2866397E-005  0.4491890E+03  0.7546771E-02  0.1064289E+00
          2   -1    0    0  502    0 -0.00000000000E+00  0.00000000000E+00  0.15810890604E+04  0.15810890604E+04  0.00000000000E+00 0. -1.
         21   -1    0    0  503  502  0.00000000000E+00 -0.00000000000E+00 -0.30670420062E+03  0.30670420062E+03  0.00000000000E+00 0. -1.
         24    2    1    2    0    0 -0.41098068096E+02 -0.11414888919E+03 -0.12082275623E+02  0.14558891061E+03  0.79568394503E+02 0.  0.
         23    2    1    2    0    0  0.84256320895E+02  0.21346724839E+03  0.10829974274E+04  0.11107995673E+04  0.91240655436E+02 0.  0.
        -11    1    3    3    0    0 -0.41573266645E+02 -0.12374523219E+03 -0.50367189660E+00  0.13054299167E+03  0.00000000000E+00 0.  1.
         12    1    3    3    0    0  0.47519854836E+00  0.95963429956E+01 -0.11578603726E+02  0.15045918941E+02  0.00000000000E+00 0. -1.
        -13    1    4    4    0    0 -0.14576785046E+02  0.57440299468E+02  0.19535864523E+03  0.20414913895E+03  0.00000000000E+00 0.  1.
         13    1    4    4    0    0  0.98833105941E+02  0.15602694892E+03  0.88763878219E+03  0.90665042837E+03  0.00000000000E+00 0. -1.
         21    1    1    2  503  501 -0.11316019525E+03  0.69308153524E+02 -0.17002115828E+03  0.21567578491E+03  0.00000000000E+00 0. -1.
          1    1    1    2  501    0  0.70001942456E+02 -0.16862651272E+03  0.37349086626E+03  0.41572899817E+03  0.00000000000E+00 0. -1.
<scales pt_clust_5="13000.00000" pt_clust_6="13000.00000" pt_clust_7="13000.00000" pt_clust_8="13000.00000" pt_clust_9="132.69834" pt_clust_10="13000.00000"></scales>
<clustering>
<clus scale="   79.568">  5  6 -1 -1</clus>
<clus scale="   91.241">  7  8 -1 -1</clus>
<clus scale="  132.698">  2  9  1 -1</clus>
<clus scale="  158.041">  1  5  2 -1</clus>
<clus scale="  172.097">  7 10 -1 -1</clus>
<clus scale="  132.698">  2  5  1 -1</clus>
</clustering>
</event>
<event>
10    4  0.2866397E-005  0.2488356E+03  0.7546771E-02  0.1155633E+00
          2   -1    0    0  503    0 -0.00000000000E+00  0.00000000000E+00  0.20106691169E+03  0.20106691169E+03  0.00000000000E+00 0. -1.
         21   -1    0    0  501  502  0.00000000000E+00 -0.00000000000E+00 -0.16898837755E+03  0.16898837755E+03  0.00000000000E+00 0. -1.
         24    2    1    2    0    0 -0.32465187068E+02  0.18789517492E+02 -0.36796411217E+00  0.87208683280E+02  0.78728550749E+02 0.  0.
         23    2    1    2    0    0 -0.26657363607E+01  0.76154497686E+02  0.66910106530E+02  0.13712370956E+03  0.92300247553E+02 0.  0.
        -13    1    3    3    0    0  0.14872503747E+01 -0.20365922838E+02  0.22654503394E+02  0.30499331972E+02  0.00000000000E+00 0.  1.
         14    1    3    3    0    0 -0.33952437442E+02  0.39155440330E+02 -0.23022467506E+02  0.56709351308E+02  0.00000000000E+00 0. -1.
        -13    1    4    4    0    0 -0.30242989205E+02 -0.37750512984E+01  0.35830313542E+02  0.47039353491E+02  0.00000000000E+00 0.  1.
         13    1    4    4    0    0  0.27577252845E+02  0.79929548985E+02  0.31079792989E+02  0.90084356065E+02  0.00000000000E+00 0. -1.
         21    1    1    2  503  502 -0.27855279718E+02 -0.12341013073E+01 -0.77393828169E+00  0.27893343197E+02  0.00000000000E+00 0. -1.
          1    1    1    2  501    0  0.62986203147E+02 -0.93709913871E+02 -0.33689670003E+02  0.11782955321E+03  0.00000000000E+00 0. -1.
<scales pt_clust_5="13000.00000" pt_clust_6="13000.00000" pt_clust_7="13000.00000" pt_clust_8="13000.00000" pt_clust_9="27.88260" pt_clust_10="13000.00000"></scales>
<clustering>
<clus scale="   27.883">  2  9  1 -1</clus>
<clus scale="   78.729">  5  6 -1 -1</clus>
<clus scale="   90.369">  1  5  2 -1</clus>
<clus scale="   92.300">  7  8 -1 -1</clus>
<clus scale="   96.587">  7 10 -1 -1</clus>
<clus scale="   27.883">  2  5  1 -1</clus>
</clustering>
</event>
<event>
10    4  0.2866397E-005  0.4320288E+03  0.7546771E-02  0.1083557E+00
         21   -1    0    0  501  502  0.00000000000E+00  0.00000000000E+00  0.14149075640E+03  0.14149075640E+03  0.00000000000E+00 0.  1.
          2   -1    0    0  503    0 -0.00000000000E+00 -0.00000000000E+00 -0.17081240372E+04  0.17081240372E+04  0.00000000000E+00 0. -1.
         24    2    1    2    0    0  0.73847599904E+01 -0.68384040153E+02 -0.45598703184E+03  0.46793578375E+03  0.79428035839E+02 0.  0.
         23    2    1    2    0    0  0.61401559968E+02  0.19972385871E+03 -0.47706255391E+03  0.52824912882E+03  0.88310194498E+02 0.  0.
        -11    1    3    3    0    0 -0.23510415566E+02 -0.75374757356E+00 -0.50779448195E+02  0.55963024708E+02  0.00000000000E+00 0.  1.
         12    1    3    3    0    0  0.30895175556E+02 -0.67630292580E+02 -0.40520758365E+03  0.41197275904E+03  0.00000000000E+00 0. -1.
        -11    1    4    4    0    0  0.50012495937E+02  0.80630160060E+02 -0.12854749721E+03  0.15977149777E+03  0.00000000000E+00 0.  1.
         11    1    4    4    0    0  0.11389064031E+02  0.11909369865E+03 -0.34851505670E+03  0.36847763105E+03  0.00000000000E+00 0. -1.
         21    1    1    2  503  502  0.16179399389E+03 -0.18292706383E+03 -0.89221339495E+02  0.26000010493E+03  0.00000000000E+00 0.  1.
          1    1    1    2  501    0 -0.23058031385E+03  0.51587245274E+02 -0.54436235555E+03  0.59342977609E+03  0.00000000000E+00 0. -1.
<scales pt_clust_5="13000.00000" pt_clust_6="13000.00000" pt_clust_7="13000.00000" pt_clust_8="13000.00000" pt_clust_9="252.13666" pt_clust_10="13000.00000"></scales>
<clustering>
<clus scale="   79.428">  5  6 -1 -1</clus>
<clus scale="   88.310">  7  8 -1 -1</clus>
<clus scale="  105.070">  2  5  1 -1</clus>
<clus scale="  228.120">  7 10 -1 -1</clus>
<clus scale="  252.137">  1  9  2 -1</clus>
<clus scale="  252.137">  1  5  2 -1</clus>
</clustering>
</event>
<event>
10    4  0.2866397E-005  0.4119701E+03  0.7546771E-02  0.1080831E+00
         21   -1    0    0  501  502  0.00000000000E+00  0.00000000000E+00  0.20170078007E+03  0.20170078007E+03  0.00000000000E+00 0.  1.
         -1   -1    0    0    0  501 -0.00000000000E+00 -0.00000000000E+00 -0.11433666747E+04  0.11433666747E+04  0.00000000000E+00 0.  1.
         24    2    1    2    0    0  0.23941325138E+02  0.10206002251E+03 -0.10567980388E+03  0.16782383391E+03  0.77506019357E+02 0.  0.
         23    2    1    2    0    0 -0.60059180009E+02  0.11776895512E+03 -0.64236762450E+03  0.66231532605E+03  0.92459689715E+02 0.  0.
        -11    1    3    3    0    0  0.52435185650E+02  0.63911935975E+02 -0.69991484309E+02  0.10831893708E+03  0.00000000000E+00 0.  1.
         12    1    3    3    0    0 -0.28493860512E+02  0.38148086537E+02 -0.35688319569E+02  0.59504896832E+02  0.00000000000E+00 0. -1.
        -13    1    4    4    0    0  0.27494863931E+01  0.81390839627E+02 -0.43637967445E+03  0.44391355996E+03  0.00000000000E+00 0.  1.
         13    1    4    4    0    0 -0.62808666402E+02  0.36378115494E+02 -0.20598795005E+03  0.21840176608E+03  0.00000000000E+00 0. -1.
         21    1    1    2  503  502  0.18997902804E+03 -0.98268046245E+02  0.31708435813E+02  0.21622688295E+03  0.00000000000E+00 0.  1.
         -2    1    1    2    0  503 -0.15386117317E+03 -0.12156093139E+03 -0.22532690203E+03  0.29870141183E+03  0.00000000000E+00 0.  1.
<scales pt_clust_5="13000.00000" pt_clust_6="13000.00000" pt_clust_7="13000.00000" pt_clust_8="13000.00000" pt_clust_9="211.74578" pt_clust_10="13000.00000"></scales>
<clustering>
<clus scale="   77.506">  5  6 -1 -1</clus>
<clus scale="   92.460">  7  8 -1 -1</clus>
<clus scale="  130.371">  2  5  1 -1</clus>
<clus scale="  175.552">  7 10 -1 -1</clus>
<clus scale="  211.746">  1  9  2 -1</clus>
<clus scale="  211.746">  1  5  2 -1</clus>
</clustering>
</event>
<event>
10    4  0.2866397E-005  0.7308472E+03  0.7546771E-02  0.1017312E+00
         21   -1    0    0  501  502  0.00000000000E+00  0.00000000000E+00  0.25904198508E+03  0.25904198508E+03  0.00000000000E+00 0.  1.
          4   -1    0    0  503    0 -0.00000000000E+00 -0.00000000000E+00 -0.80825533299E+03  0.80825533299E+03  0.00000000000E+00 0. -1.
         24    2    1    2    0    0 -0.17467897698E+02  0.12031350495E+03 -0.16224296357E+03  0.21823245260E+03  0.80759873824E+02 0.  0.
         23    2    1    2    0    0  0.73349013529E+02  0.15525402693E+03  0.14183800385E+03  0.24029918152E+03  0.90231849363E+02 0.  0.
        -13    1    3    3    0    0 -0.42629379450E+02  0.32210965539E+02 -0.48354873196E+02  0.72062501033E+02  0.00000000000E+00 0.  1.
         14    1    3    3    0    0  0.25161481752E+02  0.88102539409E+02 -0.11388809037E+03  0.14616995157E+03  0.00000000000E+00 0. -1.
        -13    1    4    4    0    0  0.92709579799E+02  0.14452812503E+03  0.12273744866E+03  0.21106379703E+03  0.00000000000E+00 0.  1.
         13    1    4    4    0    0 -0.19360566270E+02  0.10725901893E+02  0.19100555190E+02  0.29235384490E+02  0.00000000000E+00 0. -1.
         21    1    1    2  503  502  0.17297425541E+02 -0.21874917332E+02 -0.16456951355E+02  0.32381232011E+02  0.00000000000E+00 0.  1.
          3    1    1    2  501    0 -0.73178541372E+02 -0.25369261454E+03 -0.51235143685E+03  0.57638445193E+03  0.00000000000E+00 0. -1.
<scales pt_clust_5="13000.00000" pt_clust_6="13000.00000" pt_clust_7="13000.00000" pt_clust_8="13000.00000" pt_clust_9="27.88751" pt_clust_10="13000.00000"></scales>
<clustering>
<clus scale="   27.888">  1  9  2 -1</clus>
<clus scale="   80.760">  5  6 -1 -1</clus>
<clus scale="   90.232">  7  8 -1 -1</clus>
<clus scale="  143.729">  2  5  1 -1</clus>
<clus scale="  173.344">  7 10 -1 -1</clus>
<clus scale="   27.888">  1  5  2 -1</clus>
</clustering>
</event>
<event>
10    4  0.2866397E-005  0.1239723E+03  0.7546771E-02  0.1256640E+00
          2   -1    0    0  503    0 -0.00000000000E+00  0.00000000000E+00  0.26044008670E+03  0.26044008670E+03  0.00000000000E+00 0. -1.
         21   -1    0    0  501  502  0.00000000000E+00 -0.00000000000E+00 -0.27106593499E+03  0.27106593499E+03  0.00000000000E+00 0.  1.
         24    2    1    2    0    0 -0.69050086510E+01 -0.15475357892E+02  0.22520491809E+03  0.23998691095E+03  0.81174481528E+02 0.  0.
         23    2    1    2    0    0 -0.22530171984E+02  0.90514735611E+01 -0.18563763702E+03  0.20714515404E+03  0.88646741283E+02 0.  0.
        -11    1    3    3    0    0 -0.32356054891E+02  0.16200704405E+02  0.61882485961E+02  0.71685557681E+02  0.00000000000E+00 0.  1.
         12    1    3    3    0    0  0.25451046240E+02 -0.31676062296E+02  0.16332243213E+03  0.16830135327E+03  0.00000000000E+00 0. -1.
        -11    1    4    4    0    0 -0.21282448085E+02  0.34274109677E+02 -0.17525817162E+03  0.17984183025E+03  0.00000000000E+00 0.  1.
         11    1    4    4    0    0 -0.12477238990E+01 -0.25222636116E+02 -0.10379465401E+02  0.27303323783E+02  0.00000000000E+00 0. -1.
         21    1    1    2  503  502  0.10273598262E+02 -0.23141757939E+02 -0.30244565832E+01  0.25499708222E+02  0.00000000000E+00 0. -1.
          1    1    1    2  501    0  0.19161582373E+02  0.29565642270E+02 -0.47168672775E+02  0.58874248473E+02  0.00000000000E+00 0. -1.
<scales pt_clust_5="13000.00000" pt_clust_6="13000.00000" pt_clust_7="13000.00000" pt_clust_8="13000.00000" pt_clust_9="25.31971" pt_clust_10="13000.00000"></scales>
<clustering>
<clus scale="   25.320">  2  9  1 -1</clus>
<clus scale="   81.174">  5  6 -1 -1</clus>
<clus scale="   83.027">  1  5  2 -1</clus>
<clus scale="   88.647">  7  8 -1 -1</clus>
<clus scale="   28.353">  7 10 -1 -1</clus>
<clus scale="   25.320">  2  5  1 -1</clus>
</clustering>
</event>
<event>
10    4  0.2866397E-005  0.1258725E+03  0.7546771E-02  0.1252349E+00
         21   -1    0    0  501  502  0.00000000000E+00  0.00000000000E+00  0.11784985490E+03  0.11784985490E+03  0.00000000000E+00 0. -1.
          2   -1    0    0  503    0 -0.00000000000E+00 -0.00000000000E+00 -0.24676863294E+03  0.24676863294E+03  0.00000000000E+00 0. -1.
         24    2    1    2    0    0  0.75980570457E+01 -0.15630427422E+02 -0.13993637325E+03  0.16370840774E+03  0.83163774996E+02 0.  0.
         23    2    1    2    0    0 -0.75860020149E+01  0.15989477926E+02 -0.22036217404E+02  0.10214485600E+03  0.98156843364E+02 0.  0.
        -11    1    3    3    0    0  0.38835862007E+02 -0.23794310983E+02 -0.11238761955E+03  0.12126570184E+03  0.00000000000E+00 0.  1.
         12    1    3    3    0    0 -0.31237804962E+02  0.81638835608E+01 -0.27548753701E+02  0.42442705900E+02  0.00000000000E+00 0. -1.
        -13    1    4    4    0    0  0.39542167709E+02  0.45293154529E+01 -0.33823567615E+02  0.52231517801E+02  0.00000000000E+00 0. -1.
         13    1    4    4    0    0 -0.47128169723E+02  0.11460162473E+02  0.11787350210E+02  0.49913338201E+02  0.00000000000E+00 0.  1.
         21    1    1    2  503  502  0.22468512247E+02 -0.22165246838E+02  0.52962841654E+02  0.61653830424E+02  0.00000000000E+00 0. -1.
          1    1    1    2  501    0 -0.22480567278E+02  0.21806196334E+02 -0.19909029040E+02  0.37111393682E+02  0.00000000000E+00 0. -1.
<scales pt_clust_5="13000.00000" pt_clust_6="13000.00000" pt_clust_7="13000.00000" pt_clust_8="13000.00000" pt_clust_9="31.56156" pt_clust_10="13000.00000"></scales>
<clustering>
<clus scale="   31.562">  1  9  2 -1</clus>
<clus scale="   83.164">  5  6 -1 -1</clus>
<clus scale="   86.370">  2  5  1 -1</clus>
<clus scale="   98.157">  7  8 -1 -1</clus>
<clus scale="   21.330">  7 10 -1 -1</clus>
<clus scale="   31.562">  1  5  2 -1</clus>
</clustering>
</event>
<event>
10    4  0.2866397E-005  0.1888010E+03  0.7546771E-02  0.1192458E+00
         21   -1    0    0  503  502  0.00000000000E+00  0.00000000000E+00  0.35632475110E+03  0.35632475110E+03  0.00000000000E+00 0.  1.
          2   -1    0    0  502    0 -0.00000000000E+00 -0.00000000000E+00 -0.98241950899E+03  0.98241950899E+03  0.00000000000E+00 0. -1.
         24    2    1    2    0    0  0.39849051118E+02 -0.11110349422E+02 -0.85451703918E+03  0.85927280719E+03  0.80243380952E+02 0.  0.
         23    2    1    2    0    0  0.14520640893E+02  0.36931261720E+02 -0.93312880504E+02  0.13680058823E+03  0.91827774487E+02 0.  0.
        -11    1    3    3    0    0  0.21508751927E+01 -0.31134311744E+02 -0.13797783321E+03  0.14146326056E+03  0.00000000000E+00 0.  1.
         12    1    3    3    0    0  0.37698175925E+02  0.20023962323E+02 -0.71653920597E+03  0.71780954663E+03  0.00000000000E+00 0. -1.
        -13    1    4    4    0    0  0.38053315225E+02  0.57314623259E+02 -0.61294779035E+02  0.92141580060E+02  0.00000000000E+00 0. -1.
         13    1    4    4    0    0 -0.23532674332E+02 -0.20383361539E+02 -0.32018101469E+02  0.44659008168E+02  0.00000000000E+00 0.  1.
         21    1    1    2  503  501 -0.69423033279E+02 -0.51220265067E+02  0.26535792523E+03  0.27903028794E+03  0.00000000000E+00 0.  1.
          1    1    1    2  501    0  0.15053341268E+02  0.25399352768E+02  0.56377236559E+02  0.63640576729E+02  0.00000000000E+00 0. -1.
<scales pt_clust_5="13000.00000" pt_clust_6="13000.00000" pt_clust_7="13000.00000" pt_clust_8="13000.00000" pt_clust_9="86.27325" pt_clust_10="13000.00000"></scales>
<clustering>
<clus scale="   80.243">  5  6 -1 -1</clus>
<clus scale="   86.273">  1  9  2 -1</clus>
<clus scale="   89.622">  2  5  1 -1</clus>
<clus scale="   91.828">  7  8 -1 -1</clus>
<clus scale="   30.652">  7 10 -1 -1</clus>
<clus scale="   86.273">  1  5  2 -1</clus>
</clustering>
</event>
<event>
10    4  0.2866397E-005  0.2386524E+03  0.7546771E-02  0.1123327E+00
          2   -1    0    0  502    0 -0.00000000000E+00  0.00000000000E+00  0.21133558791E+04  0.21133558791E+04  0.00000000000E+00 0. -1.
         21   -1    0    0  503  502  0.00000000000E+00 -0.00000000000E+00 -0.33449121354E+02  0.33449121354E+02  0.00000000000E+00 0. -1.
         24    2    1    2    0    0 -0.19707799698E+03 -0.16258680574E+02  0.10391472744E+04  0.10609751049E+04  0.82079434562E+02 0.  0.
         23    2    1    2    0    0  0.14609022720E+03 -0.18894037251E+02  0.68870770819E+03  0.71051199287E+03  0.93859712137E+02 0.  0.
        -13    1    3    3    0    0 -0.88502636957E+02  0.33531091864E+02  0.45284084708E+03  0.46262499247E+03  0.00000000000E+00 0.  1.
         14    1    3    3    0    0 -0.10857536002E+03 -0.49789772438E+02  0.58630642736E+03  0.59835011240E+03  0.00000000000E+00 0. -1.
        -11    1    4    4    0    0  0.56018240203E+02  0.21898451996E+02  0.13154323432E+03  0.14464165351E+03  0.00000000000E+00 0. -1.
         11    1    4    4    0    0  0.90071986996E+02 -0.40792489247E+02  0.55716447387E+03  0.56587033936E+03  0.00000000000E+00 0.  1.
         21    1    1    2  503  501 -0.26167295135E+02  0.26165470849E+02  0.43363798834E+02  0.57006826335E+02  0.00000000000E+00 0.  1.
          1    1    1    2  501    0  0.77155064915E+02  0.89872469760E+01  0.30868797631E+03  0.31831107642E+03  0.00000000000E+00 0. -1.
<scales pt_clust_5="13000.00000" pt_clust_6="13000.00000" pt_clust_7="13000.00000" pt_clust_8="13000.00000" pt_clust_9="37.00485" pt_clust_10="13000.00000"></scales>
<clustering>
<clus scale="   37.005">  2  9  1 -1</clus>
<clus scale="   82.079">  5  6 -1 -1</clus>
<clus scale="   93.860">  7  8 -1 -1</clus>
<clus scale="   73.714">  7 10 -1 -1</clus>
<clus scale="  223.495">  1  5  2 -1</clus>
<clus scale="   37.005">  2  5  1 -1</clus>
</clustering>
</event>
<event>
10    4  0.2866397E-005  0.1664464E+03  0.7546771E-02  0.1212507E+00
         21   -1    0    0  501  502  0.00000000000E+00  0.00000000000E+00  0.11125322375E+03  0.11125322375E+03  0.00000000000E+00 0.  1.
          2   -1    0    0  503    0 -0.00000000000E+00 -0.00000000000E+00 -0.32026430723E+03  0.32026430723E+03  0.00000000000E+00 0. -1.
         24    2    1    2    0    0  0.99102301602E+01 -0.69527978559E+00 -0.15161895263E+03  0.17353965835E+03  0.83839192197E+02 0.  0.
         23    2    1    2    0    0 -0.10421376641E+02  0.43701513213E+01  0.55653927786E+00  0.87800253630E+02  0.87068200210E+02 0.  0.
        -11    1    3    3    0    0  0.19936459972E+02 -0.39544417772E+02 -0.77759480275E+02  0.89486089342E+02  0.00000000000E+00 0.  1.
         12    1    3    3    0    0 -0.10026229812E+02  0.38849137987E+02 -0.73859472353E+02  0.84053569007E+02  0.00000000000E+00 0. -1.
        -13    1    4    4    0    0 -0.86659370290E+01 -0.28563932666E+02  0.30915427134E+02  0.42973949654E+02  0.00000000000E+00 0.  1.
         13    1    4    4    0    0 -0.17554396121E+01  0.32934083988E+02 -0.30358887856E+02  0.44826303977E+02  0.00000000000E+00 0. -1.
         21    1    1    2  503  502  0.11581974744E+02  0.20321847576E+02  0.52041870218E+02  0.57056777719E+02  0.00000000000E+00 0.  1.
          1    1    1    2  501    0 -0.11070828263E+02 -0.23996719111E+02 -0.10999054035E+03  0.11312084128E+03  0.00000000000E+00 0. -1.
<scales pt_clust_5="13000.00000" pt_clust_6="13000.00000" pt_clust_7="13000.00000" pt_clust_8="13000.00000" pt_clust_9="23.39059" pt_clust_10="13000.00000"></scales>
<clustering>
<clus scale="   23.391">  1  9  2 -1</clus>
<clus scale="   83.839">  5  6 -1 -1</clus>
<clus scale="   84.777">  2  5  1 -1</clus>
<clus scale="   87.068">  7  8 -1 -1</clus>
<clus scale="   21.364">  7 10 -1 -1</clus>
<clus scale="   23.391">  1  5  2 -1</clus>
</clustering>
</event>
<event>
10    4  0.2866397E-005  0.2796784E+03  0.7546771E-02  0.1125885E+00
          2   -1    0    0  503    0 -0.00000000000E+00  0.00000000000E+00  0.14018697006E+04  0.14018697006E+04  0.00000000000E+00 0. -1.
         21   -1    0    0  501  502  0.00000000000E+00 -0.00000000000E+00 -0.16429304900E+03  0.16429304900E+03  0.00000000000E+00 0. -1.
         24    2    1    2    0    0 -0.54332088887E+02 -0.76103456296E+02  0.29987056343E+03  0.32350437375E+03  0.77388714182E+02 0.  0.
         23    2    1    2    0    0 -0.10314369160E+02 -0.51412475784E+02  0.53402723313E+03  0.54418037720E+03  0.90540423731E+02 0.  0.
        -11    1    3    3    0    0 -0.62087478671E+02 -0.23012755924E+02  0.13996731728E+03  0.15483956810E+03  0.00000000000E+00 0.  1.
         12    1    3    3    0    0  0.77553897844E+01 -0.53090700372E+02  0.15990324615E+03  0.16866480565E+03  0.00000000000E+00 0. -1.
        -11    1    4    4    0    0 -0.50124342305E+02 -0.23393011133E+02  0.25402283328E+03  0.25997554210E+03  0.00000000000E+00 0. -1.
         11    1    4    4    0    0  0.39809973145E+02 -0.28019464651E+02  0.28000439985E+03  0.28420483510E+03  0.00000000000E+00 0.  1.
         21    1    1    2  503  502 -0.34499408724E+01 -0.33269360428E+02 -0.13142046180E+03  0.13561006679E+03  0.00000000000E+00 0. -1.
          1    1    1    2  501    0  0.68096398919E+02  0.16078529251E+03  0.53509931680E+03  0.56286793182E+03  0.00000000000E+00 0. -1.
<scales pt_clust_5="13000.00000" pt_clust_6="13000.00000" pt_clust_7="13000.00000" pt_clust_8="13000.00000" pt_clust_9="33.44776" pt_clust_10="13000.00000"></scales>
<clustering>
<clus scale="   33.448">  2  9  1 -1</clus>
<clus scale="   77.389">  5  6 -1 -1</clus>
<clus scale="   90.540">  7  8 -1 -1</clus>
<clus scale="  130.330">  1  5  2 -1</clus>
<clus scale="  113.813">  7 10 -1 -1</clus>
<clus scale="   33.448">  2  5  1 -1</clus>
</clustering>
</event>
<event>
10    4  0.2866397E-005  0.4901492E+03  0.7546771E-02  0.1029294E+00
          2   -1    0    0  502    0 -0.00000000000E+00  0.00000000000E+00  0.97398368132E+03  0.97398368132E+03  0.00000000000E+00 0. -1.
         21   -1    0    0  503  502  0.00000000000E+00 -0.00000000000E+00 -0.35123428228E+03  0.35123428228E+03  0.00000000000E+00 0. -1.
         24    2    1    2    0    0 -0.24731195647E+03 -0.16213105592E+03  0.90818761248E+02  0.31907750529E+03  0.78183910638E+02 0.  0.
         23    2    1    2    0    0  0.11662245602E+03 -0.11056678168E+03  0.21256208737E+03  0.28124084180E+03  0.89933084300E+02 0.  0.
        -11    1    3    3    0    0 -0.12774445002E+03 -0.51816711004E+02  0.12195575525E+02  0.13839200885E+03  0.00000000000E+00 0.  1.
         12    1    3    3    0    0 -0.11956750645E+03 -0.11031434492E+03  0.78623185723E+02  0.18068549645E+03  0.00000000000E+00 0. -1.
        -13    1    4    4    0    0  0.97439021272E+02 -0.38721711767E+02  0.91486797989E+02  0.13915303818E+03  0.00000000000E+00 0. -1.
         13    1    4    4    0    0  0.19183434750E+02 -0.71845069917E+02  0.12107528938E+03  0.14208780362E+03  0.00000000000E+00 0.  1.
         21    1    1    2  503  501 -0.68753487821E+02  0.24078834570E+02 -0.14465047675E+03  0.16195861442E+03  0.00000000000E+00 0. -1.
          1    1    1    2  501    0  0.19944298827E+03  0.24861900303E+03  0.46401902717E+03  0.56294100208E+03  0.00000000000E+00 0. -1.
<scales pt_clust_5="13000.00000" pt_clust_6="13000.00000" pt_clust_7="13000.00000" pt_clust_8="13000.00000" pt_clust_9="72.84801" pt_clust_10="13000.00000"></scales>
<clustering>
<clus scale="   72.848">  2  9  1 -1</clus>
<clus scale="   78.184">  5  6 -1 -1</clus>
<clus scale="   89.933">  7  8 -1 -1</clus>
<clus scale="  313.144">  7 10 -1 -1</clus>
<clus scale="  332.316">  1  5  2 -1</clus>
<clus scale="   72.848">  2  5  1 -1</clus>
</clustering>
</event>
<event>
10    4  0.2866397E-005  0.1797673E+03  0.7546771E-02  0.1188648E+00
          2   -1    0    0  502    0 -0.00000000000E+00  0.00000000000E+00  0.88710888611E+03  0.88710888611E+03  0.00000000000E+00 0. -1.
         21   -1    0    0  503  502  0.00000000000E+00 -0.00000000000E+00 -0.18467298312E+03  0.18467298312E+03  0.00000000000E+00 0. -1.
         24    2    1    2    0    0 -0.13753186114E+02 -0.89170211543E+02  0.36063708586E+03  0.38001305019E+03  0.78805671504E+02 0.  0.
         23    2    1    2    0    0 -0.42585006542E+01  0.31340598427E+02  0.47660158945E+03  0.48675419578E+03  0.93702743283E+02 0.  0.
        -13    1    3    3    0    0 -0.41440359167E+02 -0.56965299865E+02  0.28171898445E+03  0.29039272539E+03  0.00000000000E+00 0.  1.
         14    1    3    3    0    0  0.27687173053E+02 -0.32204911678E+02  0.78918101410E+02  0.89620324804E+02  0.00000000000E+00 0. -1.
        -13    1    4    4    0    0  0.38506375076E+02 -0.82711739417E+01  0.15589218982E+03  0.16079032336E+03  0.00000000000E+00 0. -1.
         13    1    4    4    0    0 -0.42764875730E+02  0.39611772369E+02  0.32070939963E+03  0.32596387241E+03  0.00000000000E+00 0.  1.
         21    1    1    2  503  501  0.13499056607E+02  0.21924580388E+02 -0.15926626813E+03  0.16133398872E+03  0.00000000000E+00 0. -1.
          1    1    1    2  501    0  0.45126301608E+01  0.35905032728E+02  0.24463495801E+02  0.43680634531E+02  0.00000000000E+00 0. -1.
<scales pt_clust_5="13000.00000" pt_clust_6="13000.00000" pt_clust_7="13000.00000" pt_clust_8="13000.00000" pt_clust_9="25.74707" pt_clust_10="13000.00000"></scales>
<clustering>
<clus scale="   25.747">  2  9  1 -1</clus>
<clus scale="   78.806">  5  6 -1 -1</clus>
<clus scale="   93.703">  7  8 -1 -1</clus>
<clus scale="   45.621">  7 10 -1 -1</clus>
<clus scale="  112.933">  1  5  2 -1</clus>
<clus scale="   25.747">  2  5  1 -1</clus>
</clustering>
</event>
<event>
10    4  0.2866397E-005  0.2548203E+03  0.7546771E-02  0.1117956E+00
         21   -1    0    0  503  502  0.00000000000E+00  0.00000000000E+00  0.27805628830E+03  0.27805628830E+03  0.00000000000E+00 0. -1.
          2   -1    0    0  502    0 -0.00000000000E+00 -0.00000000000E+00 -0.49395355626E+03  0.49395355626E+03  0.00000000000E+00 0. -1.
         24    2    1    2    0    0 -0.17947564414E+03 -0.11078974523E+03 -0.92470059097E+02  0.24430383906E+03  0.81533916031E+02 0.  0.
         23    2    1    2    0    0  0.78552914186E+02  0.81554552435E+02 -0.97476200534E+02  0.17471150681E+03  0.90558244196E+02 0.  0.
        -13    1    3    3    0    0 -0.11084805071E+03 -0.38457314591E+02 -0.83873792195E+02  0.14422575502E+03  0.00000000000E+00 0.  1.
         14    1    3    3    0    0 -0.68627593425E+02 -0.72332430641E+02 -0.85962669020E+01  0.10007808405E+03  0.00000000000E+00 0. -1.
        -13    1    4    4    0    0  0.10407169136E+02  0.58027996199E+02 -0.81972784764E+02  0.10097076287E+03  0.00000000000E+00 0.  1.
         13    1    4    4    0    0  0.68145745050E+02  0.23526556235E+02 -0.15503415770E+02  0.73740743943E+02  0.00000000000E+00 0. -1.
         21    1    1    2  503  501  0.22769266747E+02  0.16847081848E+02  0.15391108395E+03  0.15649564031E+03  0.00000000000E+00 0. -1.
          1    1    1    2  501    0  0.78153463206E+02  0.12388110949E+02 -0.17986209228E+03  0.19649885838E+03  0.00000000000E+00 0. -1.
<scales pt_clust_5="13000.00000" pt_clust_6="13000.00000" pt_clust_7="13000.00000" pt_clust_8="13000.00000" pt_clust_9="28.32426" pt_clust_10="13000.00000"></scales>
<clustering>
<clus scale="   28.324">  1  9  2 -1</clus>
<clus scale="   81.534">  5  6 -1 -1</clus>
<clus scale="   90.558">  7  8 -1 -1</clus>
<clus scale="   80.835">  7 10 -1 -1</clus>
<clus scale="  209.959">  2  5  1 -1</clus>
<clus scale="   28.324">  1  5  2 -1</clus>
</clustering>
</event>
<event>
10    4  0.2866397E-005  0.7165493E+03  0.7546771E-02  0.1026429E+00
          2   -1    0    0  502    0 -0.00000000000E+00  0.00000000000E+00  0.19143723892E+03  0.19143723892E+03  0.00000000000E+00 0. -1.
         21   -1    0    0  503  502  0.00000000000E+00 -0.00000000000E+00 -0.11431797740E+04  0.11431797740E+04  0.00000000000E+00 0. -1.
         24    2    1    2    0    0 -0.86646696130E+02  0.14277971572E+02 -0.64575827905E+01  0.11827610449E+03  0.78968513312E+02 0.  0.
         23    2    1    2    0    0  0.32539810472E+03 -0.14303663815E+03 -0.61387400372E+03  0.71521494089E+03  0.91365818697E+02 0.  0.
        -13    1    3    3    0    0 -0.27840404335E+02  0.16585400989E+02 -0.39254741241E+02  0.50902832430E+02  0.00000000000E+00 0.  1.
         14    1    3    3    0    0 -0.58806291796E+02 -0.23074294173E+01  0.32797158451E+02  0.67373272057E+02  0.00000000000E+00 0. -1.
        -11    1    4    4    0    0  0.62935136973E+02 -0.42256514307E+02 -0.20879658034E+03  0.22213161960E+03  0.00000000000E+00 0.  1.
         11    1    4    4    0    0  0.26246296775E+03 -0.10078012384E+03 -0.40507742338E+03  0.49308332129E+03  0.00000000000E+00 0. -1.
         21    1    1    2  503  501  0.52426120688E+02 -0.12709726314E+01 -0.77107416272E+02  0.93250561103E+02  0.00000000000E+00 0. -1.
          1    1    1    2  501    0 -0.29117752928E+03  0.13002963921E+03 -0.25430353227E+03  0.40787540641E+03  0.00000000000E+00 0. -1.
<scales pt_clust_5="13000.00000" pt_clust_6="13000.00000" pt_clust_7="13000.00000" pt_clust_8="13000.00000" pt_clust_9="52.44152" pt_clust_10="13000.00000"></scales>
<clustering>
<clus scale="   52.442">  2  9  1 -1</clus>
<clus scale="   78.969">  5  6 -1 -1</clus>
<clus scale="   91.366">  7  8 -1 -1</clus>
<clus scale="  115.842">  1  5  2 -1</clus>
<clus scale="  347.655">  7 10 -1 -1</clus>
<clus scale="   52.442">  2  5  1 -1</clus>
</clustering>
</event>
<event>
10    4  0.2866397E-005  0.1802411E+03  0.7546771E-02  0.1198175E+00
         21   -1    0    0  501  502  0.00000000000E+00  0.00000000000E+00  0.45967890411E+03  0.45967890411E+03  0.00000000000E+00 0. -1.
          4   -1    0    0  503    0 -0.00000000000E+00 -0.00000000000E+00 -0.62602156660E+02  0.62602156660E+02  0.00000000000E+00 0. -1.
         24    2    1    2    0    0 -0.23574117168E+02  0.26954164508E+02  0.15760183755E+03  0.17786116185E+03  0.74256230108E+02 0.  0.
         23    2    1    2    0    0  0.31521906379E+02 -0.82633209282E+02  0.14633323593E+03  0.19406342248E+03  0.91789531811E+02 0.  0.
        -13    1    3    3    0    0  0.22877393453E+02  0.11010035995E+02  0.94775056910E+02  0.98116805065E+02  0.00000000000E+00 0.  1.
         14    1    3    3    0    0 -0.46451510621E+02  0.15944128512E+02  0.62826780638E+02  0.79744356781E+02  0.00000000000E+00 0. -1.
        -11    1    4    4    0    0  0.29517001565E+02 -0.10268102430E+03  0.11659227053E+03  0.15814045555E+03  0.00000000000E+00 0. -1.
         11    1    4    4    0    0  0.20049048145E+01  0.20047815023E+02  0.29740965399E+02  0.35922966934E+02  0.00000000000E+00 0.  1.
         21    1    1    2  503  502 -0.10006948245E+02  0.34762314190E+02  0.11468747584E+03  0.12025711877E+03  0.00000000000E+00 0. -1.
          3    1    1    2  501    0  0.20591590340E+01  0.20916730584E+02 -0.21545801865E+02  0.30099357672E+02  0.00000000000E+00 0. -1.
<scales pt_clust_5="13000.00000" pt_clust_6="13000.00000" pt_clust_7="13000.00000" pt_clust_8="13000.00000" pt_clust_9="36.17399" pt_clust_10="13000.00000"></scales>
<clustering>
<clus scale="   36.174">  1  9  2 -1</clus>
<clus scale="   74.256">  5  6 -1 -1</clus>
<clus scale="   90.887">  2  5  1 -1</clus>
<clus scale="   91.790">  7  8 -1 -1</clus>
<clus scale="   48.129">  7 10 -1 -1</clus>
<clus scale="   36.174">  1  5  2 -1</clus>
</clustering>
</event>
<event>
10    4  0.2866397E-005  0.4397811E+03  0.7546771E-02  0.1050974E+00
          2   -1    0    0  502    0 -0.00000000000E+00  0.00000000000E+00  0.21410438835E+04  0.21410438835E+04  0.00000000000E+00 0. -1.
         21   -1    0    0  503  502  0.00000000000E+00 -0.00000000000E+00 -0.10447282575E+03  0.10447282575E+03  0.00000000000E+00 0. -1.
         24    2    1    2    0    0 -0.15441668392E+03 -0.17425540685E+03  0.15817731097E+04  0.16007698075E+04  0.79046486509E+02 0.  0.
         23    2    1    2    0    0  0.12994871200E+03 -0.34624187978E+02  0.43422630882E+02  0.16835274011E+03  0.91496546856E+02 0.  0.
        -11    1    3    3    0    0 -0.10916887606E+03 -0.90730800599E+02  0.72653170294E+03  0.74026903019E+03  0.00000000000E+00 0.  1.
         12    1    3    3    0    0 -0.45247807866E+02 -0.83524606255E+02  0.85524140675E+03  0.86050077733E+03  0.00000000000E+00 0. -1.
        -11    1    4    4    0    0  0.51481403272E+02  0.29523285044E+02  0.28756436184E+02  0.65946128504E+02  0.00000000000E+00 0.  1.
         11    1    4    4    0    0  0.78467308725E+02 -0.64147473021E+02  0.14666194698E+02  0.10240661160E+03  0.00000000000E+00 0. -1.
         21    1    1    2  503  501  0.20581472629E+02 -0.32712436441E+01  0.11733896590E+02  0.23916153113E+02  0.00000000000E+00 0. -1.
          1    1    1    2  501    0  0.38864992988E+01  0.21215083848E+03  0.39964142062E+03  0.45247800855E+03  0.00000000000E+00 0. -1.
<scales pt_clust_5="13000.00000" pt_clust_6="13000.00000" pt_clust_7="13000.00000" pt_clust_8="13000.00000" pt_clust_9="20.83982" pt_clust_10="13000.00000"></scales>
<clustering>
<clus scale="   20.840">  2  9  1 -1</clus>
<clus scale="   79.046">  5  6 -1 -1</clus>
<clus scale="   91.497">  7  8 -1 -1</clus>
<clus scale="  211.482">  7 10 -1 -1</clus>
<clus scale="  244.864">  1  5  2 -1</clus>
<clus scale="   20.840">  2  5  1 -1</clus>
</clustering>
</event>
<event>
10    4  0.2866397E-005  0.1291156E+03  0.7546771E-02  0.1246027E+00
         21   -1    0    0  501  502  0.00000000000E+00  0.00000000000E+00  0.12409041159E+03  0.12409041159E+03  0.00000000000E+00 0.  1.
          2   -1    0    0  503    0 -0.00000000000E+00 -0.00000000000E+00 -0.25161936331E+03  0.25161936331E+03  0.00000000000E+00 0. -1.
         24    2    1    2    0    0  0.28371895983E+02  0.35059464029E+02 -0.17571776615E+03  0.19763950636E+03  0.78425191331E+02 0.  0.
         23    2    1    2    0    0 -0.31700204376E+02 -0.53464354400E+02  0.34074603243E+02  0.11327394781E+03  0.88354787745E+02 0.  0.
        -13    1    3    3    0    0  0.46971681906E+01 -0.25247014205E+02 -0.50426022130E+02  0.56588504337E+02  0.00000000000E+00 0.  1.
         14    1    3    3    0    0  0.23674727792E+02  0.60306478234E+02 -0.12529174402E+03  0.14105100202E+03  0.00000000000E+00 0. -1.
        -11    1    4    4    0    0  0.27920009488E+02 -0.31042895673E+02  0.25704015482E+02  0.49029427016E+02  0.00000000000E+00 0. -1.
         11    1    4    4    0    0 -0.59620213864E+02 -0.22421458726E+02  0.83705877609E+01  0.64244520795E+02  0.00000000000E+00 0.  1.
         21    1    1    2  503  502 -0.18893117004E+02  0.23217540913E+02 -0.10089776038E+02  0.31588093590E+02  0.00000000000E+00 0.  1.
          1    1    1    2  501    0  0.22221425397E+02 -0.48126505424E+01  0.24203987220E+02  0.33208227132E+02  0.00000000000E+00 0. -1.
<scales pt_clust_5="13000.00000" pt_clust_6="13000.00000" pt_clust_7="13000.00000" pt_clust_8="13000.00000" pt_clust_9="29.93333" pt_clust_10="13000.00000"></scales>
<clustering>
<clus scale="   29.933">  1  9  2 -1</clus>
<clus scale="   78.425">  5  6 -1 -1</clus>
<clus scale="   88.355">  7  8 -1 -1</clus>
<clus scale="   17.469">  7 10 -1 -1</clus>
<clus scale="   90.812">  2  5  1 -1</clus>
<clus scale="   29.933">  1  5  2 -1</clus>
</clustering>
</event>
<event>
10    4  0.2866397E-005  0.5427335E+03  0.7546771E-02  0.1025707E+00
         21   -1    0    0  501  502  0.00000000000E+00  0.00000000000E+00  0.16676450520E+04  0.16676450520E+04  0.00000000000E+00 0.  1.
          2   -1    0    0  503    0 -0.00000000000E+00 -0.00000000000E+00 -0.69573215234E+03  0.69573215234E+03  0.00000000000E+00 0. -1.
         24    2    1    2    0    0  0.25312525916E+03  0.61812984654E+02 -0.45788282185E+03  0.53279071608E+03  0.79473433926E+02 0.  0.
         23    2    1    2    0    0 -0.13643550446E+03 -0.10938919987E+03  0.13022955032E+03  0.23758389388E+03  0.94370159118E+02 0.  0.
        -13    1    3    3    0    0  0.87030787480E+02  0.57538744423E+02 -0.14650610749E+03  0.17985856836E+03  0.00000000000E+00 0.  1.
         14    1    3    3    0    0  0.16609447168E+03  0.42742402314E+01 -0.31137671436E+03  0.35293214773E+03  0.00000000000E+00 0. -1.
        -13    1    4    4    0    0 -0.98651726688E+02 -0.85801958014E+02  0.39616017255E+02  0.13661466979E+03  0.00000000000E+00 0.  1.
         13    1    4    4    0    0 -0.37783777772E+02 -0.23587241856E+02  0.90613533062E+02  0.10096922410E+03  0.00000000000E+00 0. -1.
         21    1    1    2  503  502  0.36440913590E+03 -0.93238354787E+02  0.80631985576E+03  0.88974104037E+03  0.00000000000E+00 0.  1.
          1    1    1    2  501    0 -0.48109889060E+03  0.14081457000E+03  0.49324631548E+03  0.70326155405E+03  0.00000000000E+00 0. -1.
<scales pt_clust_5="13000.00000" pt_clust_6="13000.00000" pt_clust_7="13000.00000" pt_clust_8="13000.00000" pt_clust_9="424.76815" pt_clust_10="13000.00000"></scales>
<clustering>
<clus scale="   79.473">  5  6 -1 -1</clus>
<clus scale="   94.370">  7  8 -1 -1</clus>
<clus scale="  272.414">  2  5  1 -1</clus>
<clus scale="  389.134">  7 10 -1 -1</clus>
<clus scale="  424.768">  1  9  2 -1</clus>
<clus scale="  424.768">  1  5  2 -1</clus>
</clustering>
</event>
<event>
10    4  0.2866397E-005  0.2263859E+03  0.7546771E-02  0.1161616E+00
          2   -1    0    0  502    0 -0.00000000000E+00  0.00000000000E+00  0.83131409500E+03  0.83131409500E+03  0.00000000000E+00 0. -1.
         21   -1    0    0  503  502  0.00000000000E+00 -0.00000000000E+00 -0.56769796971E+02  0.56769796971E+02  0.00000000000E+00 0. -1.
         24    2    1    2    0    0 -0.41937820521E+02 -0.56975776458E+02  0.42769363581E+03  0.44084522107E+03  0.80110192472E+02 0.  0.
         23    2    1    2    0    0 -0.76309651900E+02  0.63033347443E+02  0.92149694024E+02  0.16090334760E+03  0.87189192544E+02 0.  0.
        -11    1    3    3    0    0  0.20463335276E+02 -0.14328885943E+02  0.52840449928E+02  0.58448081334E+02  0.00000000000E+00 0.  1.
         12    1    3    3    0    0 -0.62401155797E+02 -0.42646890515E+02  0.37485318588E+03  0.38239713974E+03  0.00000000000E+00 0. -1.
        -13    1    4    4    0    0 -0.83675971110E+02  0.37875487962E+02  0.97713806633E+02  0.13410521517E+03  0.00000000000E+00 0.  1.
         13    1    4    4    0    0  0.73663192107E+01  0.25157859481E+02 -0.55641126092E+01  0.26798132425E+02  0.00000000000E+00 0. -1.
         21    1    1    2  503  501  0.56381178308E+02 -0.50881325187E+01  0.62057070321E+02  0.83998847235E+02  0.00000000000E+00 0. -1.
          1    1    1    2  501    0  0.61866294113E+02 -0.96943846578E+00  0.19264389787E+03  0.20233647607E+03  0.00000000000E+00 0. -1.
<scales pt_clust_5="13000.00000" pt_clust_6="13000.00000" pt_clust_7="13000.00000" pt_clust_8="13000.00000" pt_clust_9="56.61030" pt_clust_10="13000.00000"></scales>
<clustering>
<clus scale="   56.610">  2  9  1 -1</clus>
<clus scale="   80.110">  5  6 -1 -1</clus>
<clus scale="   87.189">  7  8 -1 -1</clus>
<clus scale="   67.849">  7 10 -1 -1</clus>
<clus scale="  104.369">  1  5  2 -1</clus>
<clus scale="   56.610">  2  5  1 -1</clus>
</clustering>
</event>
<event>
10    4  0.2866397E-005  0.1694834E+03  0.7546771E-02  0.1203195E+00
          2   -1    0    0  503    0 -0.00000000000E+00  0.00000000000E+00  0.79530692605E+03  0.79530692605E+03  0.00000000000E+00 0. -1.
         21   -1    0    0  501  502  0.00000000000E+00 -0.00000000000E+00 -0.13239582327E+03  0.13239582327E+03  0.00000000000E+00 0.  1.
         24    2    1    2    0    0 -0.31491856244E+02 -0.49719606019E+02  0.69351462004E+03  0.70051870247E+03  0.79373472113E+02 0.  0.
         23    2    1    2    0    0  0.25177200618E+02 -0.13822349303E+02 -0.18002477948E+02  0.98103294710E+02  0.92060949645E+02 0.  0.
        -11    1    3    3    0    0  0.10343850030E+02 -0.43187733043E+02  0.18546866044E+03  0.19071129889E+03  0.00000000000E+00 0.  1.
         12    1    3    3    0    0 -0.41835706274E+02 -0.65318729757E+01  0.50804595960E+03  0.50980740359E+03  0.00000000000E+00 0. -1.
        -13    1    4    4    0    0  0.23635070149E+02  0.25893685195E+02  0.22259371619E+02  0.41528051951E+02  0.00000000000E+00 0. -1.
         13    1    4    4    0    0  0.15421304686E+01 -0.39716034498E+02 -0.40261849568E+02  0.56575242759E+02  0.00000000000E+00 0.  1.
         21    1    1    2  503  502  0.27288842675E+02  0.15702867394E+02 -0.53947171513E+02  0.62462455069E+02  0.00000000000E+00 0. -1.
          1    1    1    2  501    0 -0.20974187049E+02  0.47839087928E+02  0.41346132208E+02  0.66618297071E+02  0.00000000000E+00 0. -1.
<scales pt_clust_5="13000.00000" pt_clust_6="13000.00000" pt_clust_7="13000.00000" pt_clust_8="13000.00000" pt_clust_9="31.48430" pt_clust_10="13000.00000"></scales>
<clustering>
<clus scale="   31.484">  2  9  1 -1</clus>
<clus scale="   79.373">  5  6 -1 -1</clus>
<clus scale="   92.061">  7  8 -1 -1</clus>
<clus scale="   53.086">  7 10 -1 -1</clus>
<clus scale="   98.037">  1  5  2 -1</clus>
<clus scale="   31.484">  2  5  1 -1</clus>
</clustering>
</event>
<event>
10    4  0.2866397E-005  0.4790937E+03  0.7546771E-02  0.1075125E+00
          2   -1    0    0  503    0 -0.00000000000E+00  0.00000000000E+00  0.13907851814E+04  0.13907851814E+04  0.00000000000E+00 0. -1.
         21   -1    0    0  501  502  0.00000000000E+00 -0.00000000000E+00 -0.70985483694E+02  0.70985483694E+02  0.00000000000E+00 0. -1.
         24    2    1    2    0    0  0.41108914947E+02 -0.33179818226E+02  0.10928421047E+03  0.14619692605E+03  0.81484104600E+02 0.  0.
         23    2    1    2    0    0 -0.94761790711E+02  0.16527177673E+03  0.20039515900E+03  0.29094662278E+03  0.90538170946E+02 0.  0.
        -11    1    3    3    0    0  0.12561773387E+01 -0.52712949715E+02  0.59596437110E+02  0.79573666281E+02  0.00000000000E+00 0.  1.
         12    1    3    3    0    0  0.39852737608E+02  0.19533131489E+02  0.49687773358E+02  0.66623259766E+02  0.00000000000E+00 0. -1.
        -13    1    4    4    0    0  0.15404070433E+02  0.41348860007E+02  0.54189463454E+02  0.69882126178E+02  0.00000000000E+00 0.  1.
         13    1    4    4    0    0 -0.11016586114E+03  0.12392291672E+03  0.14620569554E+03  0.22106449660E+03  0.00000000000E+00 0. -1.
         21    1    1    2  503  502 -0.24138275428E+02 -0.21453040716E+02  0.11910851208E+03  0.12340877986E+03  0.00000000000E+00 0. -1.
          1    1    1    2  501    0  0.77791151193E+02 -0.11063891779E+03  0.89101181617E+03  0.90121833641E+03  0.00000000000E+00 0. -1.
<scales pt_clust_5="13000.00000" pt_clust_6="13000.00000" pt_clust_7="13000.00000" pt_clust_8="13000.00000" pt_clust_9="32.29381" pt_clust_10="13000.00000"></scales>
<clustering>
<clus scale="   32.294">  2  9  1 -1</clus>
<clus scale="   81.484">  5  6 -1 -1</clus>
<clus scale="   90.538">  7  8 -1 -1</clus>
<clus scale="   96.722">  1  5  2 -1</clus>
<clus scale="  174.067">  7 10 -1 -1</clus>
<clus scale="   32.294">  2  5  1 -1</clus>
</clustering>
</event>
<event>
10    4  0.2866397E-005  0.5599940E+03  0.7546771E-02  0.1064613E+00
         21   -1    0    0  503  502  0.00000000000E+00  0.00000000000E+00  0.40550981873E+02  0.40550981873E+02  0.00000000000E+00 0. -1.
          2   -1    0    0  502    0 -0.00000000000E+00 -0.00000000000E+00 -0.30491491586E+04  0.30491491586E+04  0.00000000000E+00 0. -1.
         24    2    1    2    0    0  0.21267850215E+02 -0.47649720822E+00 -0.24219751586E+03  0.25574875290E+03  0.79342544816E+02 0.  0.
         23    2    1    2    0    0 -0.28305682622E+02 -0.27855387466E+03 -0.12291876414E+04  0.12638912917E+04  0.90141371097E+02 0.  0.
        -11    1    3    3    0    0  0.76099247999E+01  0.24134850009E+02 -0.21334142260E+02  0.33099056881E+02  0.00000000000E+00 0.  1.
         12    1    3    3    0    0  0.13657925415E+02 -0.24611347218E+02 -0.22086337360E+03  0.22264969602E+03  0.00000000000E+00 0. -1.
        -11    1    4    4    0    0  0.21521675284E+02 -0.15982820733E+02 -0.12062547223E+03  0.12356835200E+03  0.00000000000E+00 0.  1.
         11    1    4    4    0    0 -0.49827357906E+02 -0.26257105393E+03 -0.11085621691E+04  0.11403229397E+04  0.00000000000E+00 0. -1.
         21    1    1    2  503  501 -0.32826079156E+02  0.21772792457E+02 -0.73623380811E+02  0.83498551881E+02  0.00000000000E+00 0.  1.
          1    1    1    2  501    0  0.39863911562E+02  0.25725757941E+03 -0.14635896387E+04  0.14865615440E+04  0.00000000000E+00 0. -1.
<scales pt_clust_5="13000.00000" pt_clust_6="13000.00000" pt_clust_7="13000.00000" pt_clust_8="13000.00000" pt_clust_9="39.39043" pt_clust_10="13000.00000"></scales>
<clustering>
<clus scale="   39.390">  1  9  2 -1</clus>
<clus scale="   79.343">  5  6 -1 -1</clus>
<clus scale="   80.835">  2  5  1 -1</clus>
<clus scale="   90.141">  7  8 -1 -1</clus>
<clus scale="  268.997">  7 10 -1 -1</clus>
<clus scale="   39.390">  1  5  2 -1</clus>
</clustering>
</event>
<event>
10    4  0.2866397E-005  0.3375582E+03  0.7546771E-02  0.1099660E+00
         21   -1    0    0  501  502  0.00000000000E+00  0.00000000000E+00  0.73572240417E+03  0.73572240417E+03  0.00000000000E+00 0. -1.
          2   -1    0    0  503    0 -0.00000000000E+00 -0.00000000000E+00 -0.28954537075E+03  0.28954537075E+03  0.00000000000E+00 0. -1.
         24    2    1    2    0    0 -0.11269015405E+03 -0.39477279141E+02  0.35366754557E+02  0.14837097889E+03  0.80657384424E+02 0.  0.
         23    2    1    2    0    0 -0.73743007078E+01  0.60613675032E+02  0.54265406355E+02  0.12403853226E+03  0.93340373076E+02 0.  0.
        -13    1    3    3    0    0 -0.34322183653E+02  0.80248310044E+00 -0.24207606295E+02  0.42007909640E+02  0.00000000000E+00 0.  1.
         14    1    3    3    0    0 -0.78367970397E+02 -0.40279762242E+02  0.59574360851E+02  0.10636306925E+03  0.00000000000E+00 0. -1.
        -13    1    4    4    0    0 -0.23227117805E+02 -0.15078432162E+02 -0.29369229600E+01  0.27847506791E+02  0.00000000000E+00 0.  1.
         13    1    4    4    0    0  0.15852817098E+02  0.75692107194E+02  0.57202329315E+02  0.96191025467E+02  0.00000000000E+00 0. -1.
         21    1    1    2  503  502 -0.10729005040E+03 -0.16391139101E+03  0.43169918783E+03  0.47406991868E+03  0.00000000000E+00 0. -1.
          1    1    1    2  501    0  0.22735450516E+03  0.14277499512E+03 -0.75154315322E+02  0.27878834509E+03  0.00000000000E+00 0. -1.
<scales pt_clust_5="13000.00000" pt_clust_6="13000.00000" pt_clust_7="13000.00000" pt_clust_8="13000.00000" pt_clust_9="204.62318" pt_clust_10="13000.00000"></scales>
<clustering>
<clus scale="   80.657">  5  6 -1 -1</clus>
<clus scale="   93.340">  7  8 -1 -1</clus>
<clus scale="  144.094">  2  5  1 -1</clus>
<clus scale="  181.174">  7 10 -1 -1</clus>
<clus scale="  204.623">  1  9  2 -1</clus>
<clus scale="  204.623">  1  5  2 -1</clus>
</clustering>
</event>
<event>
10    4  0.2866397E-005  0.1714563E+03  0.7546771E-02  0.1190277E+00
         21   -1    0    0  501  502  0.00000000000E+00  0.00000000000E+00  0.13926753804E+03  0.13926753804E+03  0.00000000000E+00 0. -1.
          2   -1    0    0  503    0 -0.00000000000E+00 -0.00000000000E+00 -0.47883308735E+03  0.47883308735E+03  0.00000000000E+00 0. -1.
         24    2    1    2    0    0 -0.61057797797E+02  0.56991041600E+02 -0.24310985712E+03  0.26982382055E+03  0.82014986526E+02 0.  0.
         23    2    1    2    0    0  0.95319957632E+01 -0.54349574449E+02 -0.10912361652E+03  0.15221077856E+03  0.90638966467E+02 0.  0.
        -11    1    3    3    0    0 -0.15788510413E+02  0.17595353365E+02 -0.48633761450E+01  0.24135574338E+02  0.00000000000E+00 0.  1.
         12    1    3    3    0    0 -0.45269287384E+02  0.39395688235E+02 -0.23824648097E+03  0.24568824621E+03  0.00000000000E+00 0. -1.
        -11    1    4    4    0    0 -0.15286142758E+02  0.21429252982E+02 -0.25052840120E+02  0.36339012670E+02  0.00000000000E+00 0. -1.
         11    1    4    4    0    0  0.24818138521E+02 -0.75778827431E+02 -0.84070776397E+02  0.11587176589E+03  0.00000000000E+00 0.  1.
         21    1    1    2  503  502 -0.11808168684E+02  0.62162142414E+02  0.65586286620E+02  0.91132462875E+02  0.00000000000E+00 0. -1.
          1    1    1    2  501    0  0.63333970718E+02 -0.64803609564E+02 -0.52918362295E+02  0.10493356340E+03  0.00000000000E+00 0. -1.
<scales pt_clust_5="13000.00000" pt_clust_6="13000.00000" pt_clust_7="13000.00000" pt_clust_8="13000.00000" pt_clust_9="63.27373" pt_clust_10="13000.00000"></scales>
<clustering>
<clus scale="   63.274">  1  9  2 -1</clus>
<clus scale="   82.015">  5  6 -1 -1</clus>
<clus scale="   90.639">  7  8 -1 -1</clus>
<clus scale="   69.727">  7 10 -1 -1</clus>
<clus scale="  125.559">  2  5  1 -1</clus>
<clus scale="   63.274">  1  5  2 -1</clus>
</clustering>
</event>
<event>
10    4  0.2866397E-005  0.2814847E+03  0.7546771E-02  0.1104328E+00
         21   -1    0    0  503  502  0.00000000000E+00  0.00000000000E+00  0.55267144862E+02  0.55267144862E+02  0.00000000000E+00 0. -1.
          2   -1    0    0  502    0 -0.00000000000E+00 -0.00000000000E+00 -0.14112266246E+04  0.14112266246E+04  0.00000000000E+00 0. -1.
         24    2    1    2    0    0  0.52278417024E+02  0.21206510293E+03 -0.63572894052E+03  0.67712518594E+03  0.81502091164E+02 0.  0.
         23    2    1    2    0    0  0.26948965800E+02 -0.17630524844E+03 -0.34352289235E+03  0.39737612406E+03  0.89944532999E+02 0.  0.
        -13    1    3    3    0    0  0.46935304787E+01  0.10591135890E+03 -0.40610531333E+03  0.41971510658E+03  0.00000000000E+00 0.  1.
         14    1    3    3    0    0  0.47584886545E+02  0.10615374403E+03 -0.22962362718E+03  0.25741007937E+03  0.00000000000E+00 0. -1.
        -11    1    4    4    0    0  0.27013273595E+00 -0.17089373084E+03 -0.31190850684E+03  0.35565665585E+03  0.00000000000E+00 0. -1.
         11    1    4    4    0    0  0.26678833064E+02 -0.54115176096E+01 -0.31614385509E+02  0.41719468208E+02  0.00000000000E+00 0.  1.
         21    1    1    2  503  501 -0.46603578176E+02 -0.23627055825E+02 -0.97451012520E+02  0.11057500218E+03  0.00000000000E+00 0. -1.
          1    1    1    2  501    0 -0.32623804648E+02 -0.12132798655E+02 -0.27925663437E+03  0.28141745730E+03  0.00000000000E+00 0. -1.
<scales pt_clust_5="13000.00000" pt_clust_6="13000.00000" pt_clust_7="13000.00000" pt_clust_8="13000.00000" pt_clust_9="52.25066" pt_clust_10="13000.00000"></scales>
<clustering>
<clus scale="   52.251">  1  9  2 -1</clus>
<clus scale="   81.502">  5  6 -1 -1</clus>
<clus scale="   89.945">  7  8 -1 -1</clus>
<clus scale="   35.959">  7 10 -1 -1</clus>
<clus scale="  220.252">  2  5  1 -1</clus>
<clus scale="   52.251">  1  5  2 -1</clus>
</clustering>
</event>
<event>
10    4  0.2866397E-005  0.1788272E+03  0.7546771E-02  0.1197361E+00
         21   -1    0    0  503  502  0.00000000000E+00  0.00000000000E+00  0.35172900885E+02  0.35172900885E+02  0.00000000000E+00 0. -1.
          2   -1    0    0  502    0 -0.00000000000E+00 -0.00000000000E+00 -0.12125295191E+04  0.12125295191E+04  0.00000000000E+00 0. -1.
         24    2    1    2    0    0  0.17031609992E+02 -0.55518830954E+02 -0.30970460797E+03  0.32516912675E+03  0.80284497014E+02 0.  0.
         23    2    1    2    0    0 -0.37894725192E+02 -0.10464046648E+02 -0.35590059115E+03  0.36941501896E+03  0.90866489911E+02 0.  0.
        -13    1    3    3    0    0  0.25742413180E+02  0.13285153790E+02 -0.73820201957E+02  0.79300626508E+02  0.00000000000E+00 0.  1.
         14    1    3    3    0    0 -0.87108031877E+01 -0.68803984743E+02 -0.23588440602E+03  0.24586850024E+03  0.00000000000E+00 0. -1.
        -11    1    4    4    0    0 -0.99168004155E+01  0.39837984701E+02 -0.13218466025E+03  0.13841312207E+03  0.00000000000E+00 0. -1.
         11    1    4    4    0    0 -0.27977924777E+02 -0.50302031349E+02 -0.22371593089E+03  0.23100189689E+03  0.00000000000E+00 0.  1.
         21    1    1    2  503  501 -0.17485559287E+02  0.12886382755E+02  0.12318781497E+02  0.24971103733E+02  0.00000000000E+00 0. -1.
          1    1    1    2  501    0  0.38348674487E+02  0.53096494847E+02 -0.52407020054E+03  0.52814717049E+03  0.00000000000E+00 0. -1.
<scales pt_clust_5="13000.00000" pt_clust_6="13000.00000" pt_clust_7="13000.00000" pt_clust_8="13000.00000" pt_clust_9="21.72104" pt_clust_10="13000.00000"></scales>
<clustering>
<clus scale="   21.721">  1  9  2 -1</clus>
<clus scale="   80.284">  5  6 -1 -1</clus>
<clus scale="   90.866">  7  8 -1 -1</clus>
<clus scale="   65.578">  7 10 -1 -1</clus>
<clus scale="   94.727">  2  5  1 -1</clus>
<clus scale="   21.721">  1  5  2 -1</clus>
</clustering>
</event>
<event>
10    4  0.2866397E-005  0.2435201E+03  0.7546771E-02  0.1152134E+00
         21   -1    0    0  501  502  0.00000000000E+00  0.00000000000E+00  0.53014208711E+03  0.53014208711E+03  0.00000000000E+00 0. -1.
          2   -1    0    0  503    0 -0.00000000000E+00 -0.00000000000E+00 -0.21970668822E+03  0.21970668822E+03  0.00000000000E+00 0. -1.
         24    2    1    2    0    0 -0.30498810669E+01 -0.66471033857E+02  0.13299426605E+03  0.16925660044E+03  0.80824636549E+02 0.  0.
         23    2    1    2    0    0  0.51011636691E+02 -0.79372251452E+02 -0.16802713306E+02  0.12877015265E+03  0.86007439564E+02 0.  0.
        -13    1    3    3    0    0 -0.77998633834E+01 -0.40702138580E+02  0.88500356929E+01  0.42377176469E+02  0.00000000000E+00 0.  1.
         14    1    3    3    0    0  0.47499823166E+01 -0.25768895277E+02  0.12414423036E+03  0.12687942397E+03  0.00000000000E+00 0. -1.
        -13    1    4    4    0    0  0.33276214833E+02  0.10987368714E+02 -0.99670151222E+01  0.36433091213E+02  0.00000000000E+00 0.  1.
         13    1    4    4    0    0  0.17735421857E+02 -0.90359620166E+02 -0.68356981843E+01  0.92337061436E+02  0.00000000000E+00 0. -1.
         21    1    1    2  503  502 -0.76689709730E+02  0.19193752415E+03  0.28138503647E+03  0.34914017744E+03  0.00000000000E+00 0. -1.
          1    1    1    2  501    0  0.28727954106E+02 -0.46094238837E+02 -0.87141190325E+02  0.10268184480E+03  0.00000000000E+00 0. -1.
<scales pt_clust_5="13000.00000" pt_clust_6="13000.00000" pt_clust_7="13000.00000" pt_clust_8="13000.00000" pt_clust_9="196.56193" pt_clust_10="13000.00000"></scales>
<clustering>
<clus scale="   80.825">  5  6 -1 -1</clus>
<clus scale="   86.007">  7  8 -1 -1</clus>
<clus scale="   54.314">  7 10 -1 -1</clus>
<clus scale="  104.692">  2  5  1 -1</clus>
<clus scale="  196.562">  1  9  2 -1</clus>
<clus scale="  196.562">  1  5  2 -1</clus>
</clustering>
</event>
<event>
10    4  0.2866397E-005  0.2065080E+03  0.7546771E-02  0.1183890E+00
         21   -1    0    0  503  502  0.00000000000E+00  0.00000000000E+00  0.19547105481E+03  0.19547105481E+03  0.00000000000E+00 0. -1.
          2   -1    0    0  502    0 -0.00000000000E+00 -0.00000000000E+00 -0.74820005715E+03  0.74820005715E+03  0.00000000000E+00 0. -1.
         24    2    1    2    0    0  0.18217140473E+02  0.90903397386E+01 -0.31744051773E+03  0.32806428004E+03  0.80269490196E+02 0.  0.
         23    2    1    2    0    0  0.11482188371E+03  0.69545398610E+01 -0.26522902364E+03  0.30371991398E+03  0.93096297270E+02 0.  0.
        -13    1    3    3    0    0  0.47489005218E+02 -0.88096750976E+01 -0.17421300990E+03  0.18078437103E+03  0.00000000000E+00 0.  1.
         14    1    3    3    0    0 -0.29271864745E+02  0.17900014836E+02 -0.14322750784E+03  0.14727990901E+03  0.00000000000E+00 0. -1.
        -13    1    4    4    0    0  0.34712993134E+02  0.42023080240E+02 -0.14612649276E+03  0.15596115879E+03  0.00000000000E+00 0.  1.
         13    1    4    4    0    0  0.80108890581E+02 -0.35068540379E+02 -0.11910253088E+03  0.14775875519E+03  0.00000000000E+00 0. -1.
         21    1    1    2  503  501 -0.16986074855E+03  0.11532763468E+02  0.12167614245E+03  0.20926242418E+03  0.00000000000E+00 0. -1.
          1    1    1    2  501    0  0.36821724365E+02 -0.27577643068E+02 -0.91735603417E+02  0.10262449375E+03  0.00000000000E+00 0. -1.
<scales pt_clust_5="13000.00000" pt_clust_6="13000.00000" pt_clust_7="13000.00000" pt_clust_8="13000.00000" pt_clust_9="168.44767" pt_clust_10="13000.00000"></scales>
<clustering>
<clus scale="   80.269">  5  6 -1 -1</clus>
<clus scale="   82.811">  2  5  1 -1</clus>
<clus scale="   93.096">  7  8 -1 -1</clus>
<clus scale="   48.269">  7 10 -1 -1</clus>
<clus scale="  168.448">  1  9  2 -1</clus>
<clus scale="  168.448">  1  5  2 -1</clus>
</clustering>
</event>
<event>
10    4  0.2866397E-005  0.3064448E+03  0.7546771E-02  0.1095846E+00
         21   -1    0    0  501  502  0.00000000000E+00  0.00000000000E+00  0.49436546202E+03  0.49436546202E+03  0.00000000000E+00 0. -1.
          2   -1    0    0  503    0 -0.00000000000E+00 -0.00000000000E+00 -0.10730415608E+04  0.10730415608E+04  0.00000000000E+00 0. -1.
         24    2    1    2    0    0 -0.11953184581E+03  0.37725253343E+02 -0.41800755143E+02  0.15834819829E+03  0.87268504454E+02 0.  0.
         23    2    1    2    0    0  0.60674555511E+02 -0.59762784287E+02 -0.16404918252E+03  0.20702319154E+03  0.93238808849E+02 0.  0.
        -13    1    3    3    0    0 -0.83461578308E+02  0.63190113687E+02 -0.12664078051E+02  0.10544763816E+03  0.00000000000E+00 0.  1.
         14    1    3    3    0    0 -0.36070267497E+02 -0.25464860344E+02 -0.29136677092E+02  0.52900560126E+02  0.00000000000E+00 0. -1.
        -11    1    4    4    0    0  0.86083716230E+01  0.24682158567E+02 -0.45159380963E+02  0.52179332140E+02  0.00000000000E+00 0. -1.
         11    1    4    4    0    0  0.52066183888E+02 -0.84444942855E+02 -0.11888980156E+03  0.15484385940E+03  0.00000000000E+00 0.  1.
         21    1    1    2  503  502 -0.63191317599E+02  0.10243117192E+03  0.39886483415E+03  0.41662746372E+03  0.00000000000E+00 0. -1.
          1    1    1    2  501    0  0.12204860789E+03 -0.80393640978E+02 -0.77169099524E+03  0.78540816925E+03  0.00000000000E+00 0. -1.
<scales pt_clust_5="13000.00000" pt_clust_6="13000.00000" pt_clust_7="13000.00000" pt_clust_8="13000.00000" pt_clust_9="120.35484" pt_clust_10="13000.00000"></scales>
<clustering>
<clus scale="   87.269">  5  6 -1 -1</clus>
<clus scale="   93.239">  7  8 -1 -1</clus>
<clus scale="  120.355">  1  9  2 -1</clus>
<clus scale="  137.566">  7 10 -1 -1</clus>
<clus scale="  212.710">  2  5  1 -1</clus>
<clus scale="  120.355">  1  5  2 -1</clus>
</clustering>
</event>
<event>
10    4  0.2866397E-005  0.3982078E+03  0.7546771E-02  0.1094636E+00
          2   -1    0    0  502    0 -0.00000000000E+00  0.00000000000E+00  0.23097794702E+04  0.23097794702E+04  0.00000000000E+00 0. -1.
         21   -1    0    0  503  502  0.00000000000E+00 -0.00000000000E+00 -0.52034227306E+02  0.52034227306E+02  0.00000000000E+00 0. -1.
         24    2    1    2    0    0  0.52422123758E+02  0.13804315143E+02  0.93984574675E+03  0.94498310253E+03  0.82124285049E+02 0.  0.
         23    2    1    2    0    0 -0.67273603077E+02  0.20922729928E+03  0.72779082561E+03  0.76572591655E+03  0.91405103827E+02 0.  0.
        -11    1    3    3    0    0  0.24663090218E+02 -0.13469701970E+02  0.90872716867E+02  0.95118618373E+02  0.00000000000E+00 0.  1.
         12    1    3    3    0    0  0.27759033539E+02  0.27274017113E+02  0.84897302988E+03  0.84986448415E+03  0.00000000000E+00 0. -1.
        -13    1    4    4    0    0 -0.31356152319E+02  0.13220706142E+03  0.29661740020E+03  0.32625725660E+03  0.00000000000E+00 0.  1.
         13    1    4    4    0    0 -0.35917450758E+02  0.77020237859E+02  0.43117342540E+03  0.43946865996E+03  0.00000000000E+00 0. -1.
         21    1    1    2  503  501  0.53941276546E+02 -0.55284088176E+02  0.73820873068E+02  0.10684340420E+03  0.00000000000E+00 0. -1.
          1    1    1    2  501    0 -0.39089797227E+02 -0.16774752625E+03  0.51628779746E+03  0.54426127422E+03  0.00000000000E+00 0. -1.
<scales pt_clust_5="13000.00000" pt_clust_6="13000.00000" pt_clust_7="13000.00000" pt_clust_8="13000.00000" pt_clust_9="77.23983" pt_clust_10="13000.00000"></scales>
<clustering>
<clus scale="   77.240">  2  9  1 -1</clus>
<clus scale="   82.124">  5  6 -1 -1</clus>
<clus scale="   91.405">  7  8 -1 -1</clus>
<clus scale="  100.064">  1  5  2 -1</clus>
<clus scale="  184.728">  7 10 -1 -1</clus>
<clus scale="   77.240">  2  5  1 -1</clus>
</clustering>
</event>
<event>
10    4  0.2866397E-005  0.5249331E+03  0.7546771E-02  0.1014917E+00
          2   -1    0    0  503    0 -0.00000000000E+00  0.00000000000E+00  0.15574025863E+04  0.15574025863E+04  0.00000000000E+00 0. -1.
         21   -1    0    0  501  502  0.00000000000E+00 -0.00000000000E+00 -0.15803203686E+03  0.15803203686E+03  0.00000000000E+00 0.  1.
         24    2    1    2    0    0 -0.39153410346E+03  0.66255369722E+02  0.67083286242E+03  0.78365257927E+03  0.80036913333E+02 0.  0.
         23    2    1    2    0    0  0.14166274985E+02 -0.15978986972E+02  0.34564076591E+02  0.10171005160E+03  0.93242950591E+02 0.  0.
        -11    1    3    3    0    0 -0.38061251901E+03  0.59642085103E+02  0.66709345201E+03  0.77034845470E+03  0.00000000000E+00 0.  1.
         12    1    3    3    0    0 -0.10921584447E+02  0.66132846191E+01  0.37394104156E+01  0.13304124569E+02  0.00000000000E+00 0. -1.
        -13    1    4    4    0    0  0.60479125162E+00 -0.53313874849E+02  0.31367609601E+02  0.61860019043E+02  0.00000000000E+00 0. -1.
         13    1    4    4    0    0  0.13561483734E+02  0.37334887877E+02  0.31964669896E+01  0.39850032561E+02  0.00000000000E+00 0.  1.
         21    1    1    2  503  502 -0.36055756118E+02 -0.15381565569E+02  0.43606655255E+02  0.58635744143E+02  0.00000000000E+00 0. -1.
          1    1    1    2  501    0  0.41342358459E+03 -0.34894817181E+02  0.65036695516E+03  0.77143624813E+03  0.00000000000E+00 0. -1.
<scales pt_clust_5="13000.00000" pt_clust_6="13000.00000" pt_clust_7="13000.00000" pt_clust_8="13000.00000" pt_clust_9="39.19962" pt_clust_10="13000.00000"></scales>
<clustering>
<clus scale="   39.200">  2  9  1 -1</clus>
<clus scale="   80.037">  5  6 -1 -1</clus>
<clus scale="   93.243">  7  8 -1 -1</clus>
<clus scale="  401.033">  7 10 -1 -1</clus>
<clus scale="  417.286">  1  5  2 -1</clus>
<clus scale="   39.200">  2  5  1 -1</clus>
</clustering>
</event>
<event>
10    4  0.2866397E-005  0.4845056E+03  0.7546771E-02  0.1075557E+00
         21   -1    0    0  501  502  0.00000000000E+00  0.00000000000E+00  0.49326819346E+03  0.49326819346E+03  0.00000000000E+00 0. -1.
          4   -1    0    0  503    0 -0.00000000000E+00 -0.00000000000E+00 -0.39497026653E+03  0.39497026653E+03  0.00000000000E+00 0. -1.
         24    2    1    2    0    0  0.39607340109E+02 -0.22032899959E+02 -0.19811173849E+03  0.21846584471E+03  0.80155313626E+02 0.  0.
         23    2    1    2    0    0 -0.11307345780E+03 -0.14665720886E+03  0.24035869719E+03  0.31676135119E+03  0.90947823083E+02 0.  0.
        -11    1    3    3    0    0  0.12690024450E+02  0.30401869284E+02 -0.78011940874E+02  0.84682780395E+02  0.00000000000E+00 0.  1.
         12    1    3    3    0    0  0.26917315659E+02 -0.52434769243E+02 -0.12009979762E+03  0.13378306431E+03  0.00000000000E+00 0. -1.
        -11    1    4    4    0    0 -0.25633824191E+02 -0.78986549808E+02  0.50901628482E+02  0.97400943401E+02  0.00000000000E+00 0.  1.
         11    1    4    4    0    0 -0.87439633610E+02 -0.67670659052E+02  0.18945706871E+03  0.21936040779E+03  0.00000000000E+00 0. -1.
         21    1    1    2  503  502  0.33401062495E+02  0.13782961254E+02  0.15879844192E+03  0.16285744120E+03  0.00000000000E+00 0. -1.
          3    1    1    2  501    0  0.40065055197E+02  0.15490714757E+03 -0.10274747368E+03  0.19015382290E+03  0.00000000000E+00 0. -1.
<scales pt_clust_5="13000.00000" pt_clust_6="13000.00000" pt_clust_7="13000.00000" pt_clust_8="13000.00000" pt_clust_9="36.13310" pt_clust_10="13000.00000"></scales>
<clustering>
<clus scale="   36.133">  1  9  2 -1</clus>
<clus scale="   80.155">  5  6 -1 -1</clus>
<clus scale="   90.948">  7  8 -1 -1</clus>
<clus scale="   92.427">  2  5  1 -1</clus>
<clus scale="  159.279">  7 10 -1 -1</clus>
<clus scale="   36.133">  1  5  2 -1</clus>
</clustering>
</event>
<event>
10    4  0.2866397E-005  0.3745290E+03  0.7546771E-02  0.1089991E+00
          2   -1    0    0  503    0 -0.00000000000E+00  0.00000000000E+00  0.10983987777E+04  0.10983987777E+04  0.00000000000E+00 0. -1.
         21   -1    0    0  501  502  0.00000000000E+00 -0.00000000000E+00 -0.16947581736E+03  0.16947581736E+03  0.00000000000E+00 0. -1.
         24    2    1    2    0    0 -0.96764623582E+02 -0.39723802760E+02  0.37545663964E+03  0.39929737264E+03  0.86771715818E+02 0.  0.
         23    2    1    2    0    0  0.65138048480E+02 -0.11251289684E+02  0.29468390442E+03  0.31715271659E+03  0.96838449152E+02 0.  0.
        -11    1    3    3    0    0 -0.40283806918E+02  0.26865252072E+02  0.12450091734E+03  0.13358519861E+03  0.00000000000E+00 0.  1.
         12    1    3    3    0    0 -0.56480816665E+02 -0.66589054832E+02  0.25095572230E+03  0.26571217404E+03  0.00000000000E+00 0. -1.
        -11    1    4    4    0    0  0.82104583249E+02  0.35748516706E+01  0.27570531346E+03  0.28769317340E+03  0.00000000000E+00 0.  1.
         11    1    4    4    0    0 -0.16966534769E+02 -0.14826141354E+02  0.18978590961E+02  0.29459543180E+02  0.00000000000E+00 0. -1.
         21    1    1    2  503  502 -0.16007630462E+03 -0.13828732517E+03  0.71348913108E+02  0.22324532471E+03  0.00000000000E+00 0. -1.
          1    1    1    2  501    0  0.19170287972E+03  0.18926241761E+03  0.18743350319E+03  0.32817918113E+03  0.00000000000E+00 0. -1.
<scales pt_clust_5="13000.00000" pt_clust_6="13000.00000" pt_clust_7="13000.00000" pt_clust_8="13000.00000" pt_clust_9="232.18778" pt_clust_10="13000.00000"></scales>
<clustering>
<clus scale="   86.772">  5  6 -1 -1</clus>
<clus scale="   96.838">  7  8 -1 -1</clus>
<clus scale="  135.907">  1  5  2 -1</clus>
<clus scale="  232.188">  2  9  1 -1</clus>
<clus scale="   65.476">  7 10 -1 -1</clus>
<clus scale="  232.188">  2  5  1 -1</clus>
</clustering>
</event>
<event>
10    4  0.2866397E-005  0.2287397E+03  0.7546771E-02  0.1160656E+00
          2   -1    0    0  503    0 -0.00000000000E+00  0.00000000000E+00  0.50924339057E+03  0.50924339057E+03  0.00000000000E+00 0. -1.
         21   -1    0    0  501  502  0.00000000000E+00 -0.00000000000E+00 -0.23959412274E+03  0.23959412274E+03  0.00000000000E+00 0. -1.
         24    2    1    2    0    0  0.42538949363E+02  0.46551419016E+02  0.40733625694E+03  0.42006027551E+03  0.80939557779E+02 0.  0.
         23    2    1    2    0    0 -0.32865472328E+02  0.28719751525E+02  0.49921492055E+01  0.10356903224E+03  0.93790508514E+02 0.  0.
        -11    1    3    3    0    0 -0.20391774002E+02  0.26478258118E+02  0.92057664750E+02  0.97936388739E+02  0.00000000000E+00 0.  1.
         12    1    3    3    0    0  0.62930723364E+02  0.20073160898E+02  0.31527859219E+03  0.32212388677E+03  0.00000000000E+00 0. -1.
        -11    1    4    4    0    0 -0.14370693323E+02  0.55168671756E+02 -0.22385573501E+02  0.61247147451E+02  0.00000000000E+00 0. -1.
         11    1    4    4    0    0 -0.18494779005E+02 -0.26448920231E+02  0.27377722707E+02  0.42321884793E+02  0.00000000000E+00 0.  1.
         21    1    1    2  503  502  0.46723257806E+01  0.48620626110E+02 -0.49349597341E+02  0.69434707958E+02  0.00000000000E+00 0. -1.
          1    1    1    2  501    0 -0.14345802815E+02 -0.12389179665E+03 -0.93329540979E+02  0.15577349760E+03  0.00000000000E+00 0. -1.
<scales pt_clust_5="13000.00000" pt_clust_6="13000.00000" pt_clust_7="13000.00000" pt_clust_8="13000.00000" pt_clust_9="48.84461" pt_clust_10="13000.00000"></scales>
<clustering>
<clus scale="   48.845">  2  9  1 -1</clus>
<clus scale="   80.940">  5  6 -1 -1</clus>
<clus scale="   93.791">  7  8 -1 -1</clus>
<clus scale="   90.968">  7 10 -1 -1</clus>
<clus scale="  103.463">  1  5  2 -1</clus>
<clus scale="   48.845">  2  5  1 -1</clus>
</clustering>
</event>
<event>
10    4  0.2866397E-005  0.4853643E+03  0.7546771E-02  0.1048643E+00
         21   -1    0    0  501  502  0.00000000000E+00  0.00000000000E+00  0.13673560505E+03  0.13673560505E+03  0.00000000000E+00 0. -1.
          2   -1    0    0  503    0 -0.00000000000E+00 -0.00000000000E+00 -0.14379264758E+04  0.14379264758E+04  0.00000000000E+00 0. -1.
         24    2    1    2    0    0 -0.71049497720E+02  0.15245795491E+03 -0.88774149243E+03  0.90894918621E+03  0.99056582698E+02 0.  0.
         23    2    1    2    0    0 -0.62699929607E+01 -0.26287969686E+03 -0.12260620408E+03  0.30355516743E+03  0.89265954103E+02 0.  0.
        -13    1    3    3    0    0  0.14676160310E+02  0.84139462263E+02 -0.36989547077E+03  0.37962810497E+03  0.00000000000E+00 0.  1.
         14    1    3    3    0    0 -0.85725658030E+02  0.68318492642E+02 -0.51784602167E+03  0.52932108123E+03  0.00000000000E+00 0. -1.
        -11    1    4    4    0    0  0.33019009944E+02 -0.43426871960E+02 -0.19611802577E+02  0.57972157336E+02  0.00000000000E+00 0.  1.
         11    1    4    4    0    0 -0.39289002905E+02 -0.21945282490E+03 -0.10299440150E+03  0.24558301009E+03  0.00000000000E+00 0. -1.
         21    1    1    2  503  502 -0.18660617642E+02 -0.16436181334E+02  0.58173661922E+01  0.25538372247E+02  0.00000000000E+00 0. -1.
          1    1    1    2  501    0  0.95980108323E+02  0.12685792329E+03 -0.29666054044E+03  0.33661935498E+03  0.00000000000E+00 0. -1.
<scales pt_clust_5="13000.00000" pt_clust_6="13000.00000" pt_clust_7="13000.00000" pt_clust_8="13000.00000" pt_clust_9="24.86698" pt_clust_10="13000.00000"></scales>
<clustering>
<clus scale="   24.867">  1  9  2 -1</clus>
<clus scale="   89.266">  7  8 -1 -1</clus>
<clus scale="   99.057">  5  6 -1 -1</clus>
<clus scale="  155.057">  7 10 -1 -1</clus>
<clus scale="  194.684">  2  5  1 -1</clus>
<clus scale="   24.867">  1  5  2 -1</clus>
</clustering>
</event>
<event>
10    4  0.2866397E-005  0.2242146E+03  0.7546771E-02  0.1167108E+00
         21   -1    0    0  501  502  0.00000000000E+00  0.00000000000E+00  0.54356407399E+03  0.54356407399E+03  0.00000000000E+00 0.  1.
          4   -1    0    0  503    0 -0.00000000000E+00 -0.00000000000E+00 -0.44235078166E+03  0.44235078166E+03  0.00000000000E+00 0. -1.
         24    2    1    2    0    0 -0.14951703309E+02 -0.43172630562E+02 -0.40369395595E+03  0.41459506598E+03  0.82660929126E+02 0.  0.
         23    2    1    2    0    0 -0.46456695370E+02  0.85660410409E+02  0.36892140580E+03  0.39213933335E+03  0.90411960754E+02 0.  0.
        -13    1    3    3    0    0 -0.26049446704E+02 -0.79532895200E+01 -0.36463873927E+02  0.45513103492E+02  0.00000000000E+00 0.  1.
         14    1    3    3    0    0  0.11097743394E+02 -0.35219341042E+02 -0.36723008202E+03  0.36908196249E+03  0.00000000000E+00 0. -1.
        -11    1    4    4    0    0 -0.29480975654E+02  0.67399598778E+02  0.35700449747E+03  0.36450520580E+03  0.00000000000E+00 0.  1.
         11    1    4    4    0    0 -0.16975719716E+02  0.18260811631E+02  0.11916908326E+02  0.27634127549E+02  0.00000000000E+00 0. -1.
         21    1    1    2  503  502 -0.17333209982E+02 -0.29218361424E+02  0.60012698673E+02  0.68961415405E+02  0.00000000000E+00 0. -1.
          3    1    1    2  501    0  0.78741608661E+02 -0.13269418423E+02  0.75973143809E+02  0.11021904091E+03  0.00000000000E+00 0. -1.
<scales pt_clust_5="13000.00000" pt_clust_6="13000.00000" pt_clust_7="13000.00000" pt_clust_8="13000.00000" pt_clust_9="33.97282" pt_clust_10="13000.00000"></scales>
<clustering>
<clus scale="   33.973">  1  9  2 -1</clus>
<clus scale="   82.661">  5  6 -1 -1</clus>
<clus scale="   90.412">  7  8 -1 -1</clus>
<clus scale="   77.718">  7 10 -1 -1</clus>
<clus scale="   94.631">  2  5  1 -1</clus>
<clus scale="   33.973">  1  5  2 -1</clus>
</clustering>
</event>
<event>
10    4  0.2866397E-005  0.4652347E+03  0.7546771E-02  0.1055904E+00
          4   -1    0    0  502    0 -0.00000000000E+00  0.00000000000E+00  0.12079065066E+04  0.12079065066E+04  0.00000000000E+00 0. -1.
         21   -1    0    0  503  502  0.00000000000E+00 -0.00000000000E+00 -0.18530741013E+03  0.18530741013E+03  0.00000000000E+00 0.  1.
         24    2    1    2    0    0  0.15025874711E+03 -0.93683198777E+02  0.89695673238E+02  0.21373306015E+03  0.79260799800E+02 0.  0.
         23    2    1    2    0    0  0.76829001143E+02 -0.10930050072E+03  0.19063273538E+03  0.25014409005E+03  0.91552886998E+02 0.  0.
        -13    1    3    3    0    0  0.10453831433E+03 -0.51868027959E+02  0.16539208379E+02  0.11786473986E+03  0.00000000000E+00 0.  1.
         14    1    3    3    0    0  0.45720432778E+02 -0.41815170818E+02  0.73156464860E+02  0.95868320287E+02  0.00000000000E+00 0. -1.
        -13    1    4    4    0    0  0.32885649449E+02 -0.74144205224E+02  0.42263153346E+02  0.91460391639E+02  0.00000000000E+00 0.  1.
         13    1    4    4    0    0  0.43943351694E+02 -0.35156295498E+02  0.14836958203E+03  0.15868369842E+03  0.00000000000E+00 0. -1.
         21    1    1    2  503  501  0.57203736855E+00  0.64717447353E+02 -0.57378851069E+02  0.86492819174E+02  0.00000000000E+00 0.  1.
          3    1    1    2  501    0 -0.22765978562E+03  0.13826625215E+03  0.79964953888E+03  0.84284394730E+03  0.00000000000E+00 0. -1.
<scales pt_clust_5="13000.00000" pt_clust_6="13000.00000" pt_clust_7="13000.00000" pt_clust_8="13000.00000" pt_clust_9="64.71998" pt_clust_10="13000.00000"></scales>
<clustering>
<clus scale="   64.720">  2  9  1 -1</clus>
<clus scale="   79.261">  5  6 -1 -1</clus>
<clus scale="   91.553">  7  8 -1 -1</clus>
<clus scale="  179.863">  1  5  2 -1</clus>
<clus scale="  147.492">  7 10 -1 -1</clus>
<clus scale="   64.720">  2  5  1 -1</clus>
</clustering>
</event>
<event>
10    4  0.2866397E-005  0.2564024E+03  0.7546771E-02  0.1152597E+00
         21   -1    0    0  501  502  0.00000000000E+00  0.00000000000E+00  0.60029592971E+02  0.60029592971E+02  0.00000000000E+00 0. -1.
          2   -1    0    0  503    0 -0.00000000000E+00 -0.00000000000E+00 -0.87696958655E+03  0.87696958655E+03  0.00000000000E+00 0. -1.
         24    2    1    2    0    0  0.20283522202E+02  0.15403940541E+02 -0.48718790381E+03  0.49533131380E+03  0.85745869625E+02 0.  0.
         23    2    1    2    0    0  0.98127503259E+02  0.30669102717E+02 -0.10201033488E+03  0.17151081126E+03  0.91870828891E+02 0.  0.
        -11    1    3    3    0    0 -0.27191495621E+02 -0.11547169808E+02 -0.98692660108E+02  0.10301920075E+03  0.00000000000E+00 0.  1.
         12    1    3    3    0    0  0.47475017822E+02  0.26951110348E+02 -0.38849524370E+03  0.39231211305E+03  0.00000000000E+00 0. -1.
        -13    1    4    4    0    0  0.26976292376E+02  0.44001054974E+02 -0.70291274569E+01  0.52088595892E+02  0.00000000000E+00 0.  1.
         13    1    4    4    0    0  0.71151210883E+02 -0.13331952257E+02 -0.94981207422E+02  0.11942221537E+03  0.00000000000E+00 0. -1.
         21    1    1    2  503  502 -0.23884026914E+02 -0.22937981238E+02 -0.15284539810E+02  0.36472111018E+02  0.00000000000E+00 0. -1.
          1    1    1    2  501    0 -0.94526998546E+02 -0.23135062020E+02 -0.21245721508E+03  0.23368494343E+03  0.00000000000E+00 0. -1.
<scales pt_clust_5="13000.00000" pt_clust_6="13000.00000" pt_clust_7="13000.00000" pt_clust_8="13000.00000" pt_clust_9="33.11492" pt_clust_10="13000.00000"></scales>
<clustering>
<clus scale="   33.115">  1  9  2 -1</clus>
<clus scale="   85.746">  5  6 -1 -1</clus>
<clus scale="   88.716">  2  5  1 -1</clus>
<clus scale="   91.871">  7  8 -1 -1</clus>
<clus scale="   89.658">  7 10 -1 -1</clus>
<clus scale="   33.115">  1  5  2 -1</clus>
</clustering>
</event>
<event>
10    4  0.2866397E-005  0.3722894E+03  0.7546771E-02  0.1099320E+00
         21   -1    0    0  503  502  0.00000000000E+00  0.00000000000E+00  0.43283588305E+03  0.43283588305E+03  0.00000000000E+00 0.  1.
         -3   -1    0    0    0  501 -0.00000000000E+00 -0.00000000000E+00 -0.30116309240E+03  0.30116309240E+03  0.00000000000E+00 0.  1.
         24    2    1    2    0    0 -0.68649963392E+02  0.25921636465E+02  0.70280450833E+02  0.12915846491E+03  0.79735930281E+02 0.  0.
         23    2    1    2    0    0  0.25951082378E+02  0.65495977051E+01 -0.20065690009E+03  0.22128050933E+03  0.89361716348E+02 0.  0.
        -13    1    3    3    0    0 -0.12301242294E+02  0.17059985644E+02  0.68966238650E+02  0.72102050912E+02  0.00000000000E+00 0.  1.
         14    1    3    3    0    0 -0.56348721098E+02  0.88616508210E+01  0.13142121826E+01  0.57056413998E+02  0.00000000000E+00 0. -1.
        -13    1    4    4    0    0 -0.19092560696E+02 -0.29575507446E+02 -0.85344146875E+02  0.92319336655E+02  0.00000000000E+00 0. -1.
         13    1    4    4    0    0  0.45043643074E+02  0.36125105151E+02 -0.11531275321E+03  0.12896117267E+03  0.00000000000E+00 0.  1.
         21    1    1    2  503  501  0.15544727936E+03  0.12576099236E+02  0.17347015765E+03  0.23326789434E+03  0.00000000000E+00 0.  1.
         -4    1    1    2    0  502 -0.11274839835E+03 -0.45047333405E+02  0.88579082251E+02  0.15029210688E+03  0.00000000000E+00 0.  1.
<scales pt_clust_5="13000.00000" pt_clust_6="13000.00000" pt_clust_7="13000.00000" pt_clust_8="13000.00000" pt_clust_9="148.69603" pt_clust_10="13000.00000"></scales>
<clustering>
<clus scale="   79.736">  5  6 -1 -1</clus>
<clus scale="   89.362">  7  8 -1 -1</clus>
<clus scale="  108.363">  2  5  1 -1</clus>
<clus scale="  127.686">  7 10 -1 -1</clus>
<clus scale="  148.696">  1  9  2 -1</clus>
<clus scale="  148.696">  1  5  2 -1</clus>
</clustering>
</event>
<event>
10    4  0.2866397E-005  0.2508687E+03  0.7546771E-02  0.1156605E+00
         -1   -1    0    0    0  501 -0.00000000000E+00  0.00000000000E+00  0.19908893126E+03  0.19908893126E+03  0.00000000000E+00 0.  1.
         21   -1    0    0  501  502  0.00000000000E+00 -0.00000000000E+00 -0.27475275187E+03  0.27475275187E+03  0.00000000000E+00 0.  1.
         24    2    1    2    0    0  0.14641579881E+02 -0.43076405878E+02 -0.93930595898E+02  0.13256056471E+03  0.81727558788E+02 0.  0.
         23    2    1    2    0    0 -0.79647755759E+02 -0.57394760537E+02  0.31717818147E+02  0.14669622402E+03  0.10428728887E+03 0.  0.
        -11    1    3    3    0    0  0.79365567395E+01 -0.67385235100E+02 -0.74173124375E+02  0.10052567444E+03  0.00000000000E+00 0.  1.
         12    1    3    3    0    0  0.67050231411E+01  0.24308829222E+02 -0.19757471522E+02  0.32034890267E+02  0.00000000000E+00 0. -1.
        -11    1    4    4    0    0 -0.53391701596E+02 -0.28752859225E+02  0.69681181428E+02  0.92373523036E+02  0.00000000000E+00 0.  1.
         11    1    4    4    0    0 -0.26256054163E+02 -0.28641901312E+02 -0.37963363281E+02  0.54322700987E+02  0.00000000000E+00 0. -1.
         21    1    1    2  503  502 -0.11405350907E+02  0.30153948097E+02 -0.69477268664E+02  0.76592646358E+02  0.00000000000E+00 0.  1.
         -2    1    1    2    0  503  0.76411526785E+02  0.70317218318E+02  0.56026225803E+02  0.11799224803E+03  0.00000000000E+00 0.  1.
<scales pt_clust_5="13000.00000" pt_clust_6="13000.00000" pt_clust_7="13000.00000" pt_clust_8="13000.00000" pt_clust_9="32.23884" pt_clust_10="13000.00000"></scales>
<clustering>
<clus scale="   32.239">  2  9  1 -1</clus>
<clus scale="   81.728">  5  6 -1 -1</clus>
<clus scale="   86.203">  1  5  2 -1</clus>
<clus scale="  104.287">  7  8 -1 -1</clus>
<clus scale="  100.119">  7 10 -1 -1</clus>
<clus scale="   32.239">  2  5  1 -1</clus>
</clustering>
</event>
<event>
10    4  0.2866397E-005  0.3413154E+03  0.7546771E-02  0.1076272E+00
          2   -1    0    0  503    0 -0.00000000000E+00  0.00000000000E+00  0.10273448458E+04  0.10273448458E+04  0.00000000000E+00 0. -1.
         21   -1    0    0  501  502  0.00000000000E+00 -0.00000000000E+00 -0.19443478554E+03  0.19443478554E+03  0.00000000000E+00 0. -1.
         24    2    1    2    0    0  0.21285502381E+03  0.25197013532E+02  0.62547399884E+02  0.23747829706E+03  0.80880242887E+02 0.  0.
         23    2    1    2    0    0 -0.62041207263E+02  0.17512154931E+02  0.12069625054E+03  0.16453630248E+03  0.91371893761E+02 0.  0.
        -13    1    3    3    0    0  0.10920702819E+03  0.53362444903E+02  0.29068550500E+02  0.12497482210E+03  0.00000000000E+00 0.  1.
         14    1    3    3    0    0  0.10364799562E+03 -0.28165431371E+02  0.33478849384E+02  0.11250347495E+03  0.00000000000E+00 0. -1.
        -11    1    4    4    0    0 -0.53162517646E+02  0.39856944741E+02  0.34138675462E+02  0.74701261629E+02  0.00000000000E+00 0. -1.
         11    1    4    4    0    0 -0.88786896172E+01 -0.22344789810E+02  0.86557575076E+02  0.89835040847E+02  0.00000000000E+00 0.  1.
         21    1    1    2  503  502  0.46916831979E+02 -0.23870410190E+02 -0.61749273194E+02  0.81141594423E+02  0.00000000000E+00 0. -1.
          1    1    1    2  501    0 -0.19773064853E+03 -0.18838758273E+02  0.71141568300E+03  0.73862343735E+03  0.00000000000E+00 0. -1.
<scales pt_clust_5="13000.00000" pt_clust_6="13000.00000" pt_clust_7="13000.00000" pt_clust_8="13000.00000" pt_clust_9="52.64015" pt_clust_10="13000.00000"></scales>
<clustering>
<clus scale="   52.640">  2  9  1 -1</clus>
<clus scale="   80.880">  5  6 -1 -1</clus>
<clus scale="   91.372">  7  8 -1 -1</clus>
<clus scale="  193.736">  7 10 -1 -1</clus>
<clus scale="  259.295">  1  5  2 -1</clus>
<clus scale="   52.640">  2  5  1 -1</clus>
</clustering>
</event>
<event>
10    4  0.2866397E-005  0.2447536E+03  0.7546771E-02  0.1160208E+00
         21   -1    0    0  501  502  0.00000000000E+00  0.00000000000E+00  0.16079995816E+03  0.16079995816E+03  0.00000000000E+00 0. -1.
          2   -1    0    0  503    0 -0.00000000000E+00 -0.00000000000E+00 -0.37622478022E+03  0.37622478022E+03  0.00000000000E+00 0. -1.
         24    2    1    2    0    0  0.14715647898E+02  0.15895352238E+02 -0.15893057814E+03  0.17986677961E+03  0.81387451265E+02 0.  0.
         23    2    1    2    0    0  0.25980891457E+02 -0.55652434913E+02 -0.17592282002E+03  0.20810530036E+03  0.92664864990E+02 0.  0.
        -13    1    3    3    0    0 -0.14625160400E+02  0.20383696932E+02 -0.84284692516E+01  0.26465628866E+02  0.00000000000E+00 0.  1.
         14    1    3    3    0    0  0.29340808298E+02 -0.44883446940E+01 -0.15050210889E+03  0.15340115075E+03  0.00000000000E+00 0. -1.
        -13    1    4    4    0    0 -0.56125796417E+01 -0.28007322873E+02 -0.16105643252E+03  0.16356981886E+03  0.00000000000E+00 0.  1.
         13    1    4    4    0    0  0.31593471099E+02 -0.27645112040E+02 -0.14866387498E+02  0.44535481507E+02  0.00000000000E+00 0. -1.
         21    1    1    2  503  502 -0.12831622476E+02  0.53680879562E+02  0.57335951468E+02  0.79584538050E+02  0.00000000000E+00 0. -1.
          1    1    1    2  501    0 -0.27864916880E+02 -0.13923796886E+02  0.62092624625E+02  0.69468120352E+02  0.00000000000E+00 0. -1.
<scales pt_clust_5="13000.00000" pt_clust_6="13000.00000" pt_clust_7="13000.00000" pt_clust_8="13000.00000" pt_clust_9="55.19318" pt_clust_10="13000.00000"></scales>
<clustering>
<clus scale="   55.193">  1  9  2 -1</clus>
<clus scale="   81.387">  5  6 -1 -1</clus>
<clus scale="   85.340">  2  5  1 -1</clus>
<clus scale="   92.665">  7  8 -1 -1</clus>
<clus scale="   44.470">  7 10 -1 -1</clus>
<clus scale="   55.193">  1  5  2 -1</clus>
</clustering>
</event>
<event>
10    4  0.2866397E-005  0.2095420E+03  0.7546771E-02  0.1151375E+00
          4   -1    0    0  503    0 -0.00000000000E+00  0.00000000000E+00  0.94480382109E+03  0.94480382109E+03  0.00000000000E+00 0. -1.
         21   -1    0    0  501  502  0.00000000000E+00 -0.00000000000E+00 -0.53882403353E+02  0.53882403353E+02  0.00000000000E+00 0. -1.
         24    2    1    2    0    0 -0.30408381112E+02  0.13147389497E+03  0.37190719774E+03  0.40390939610E+03  0.81349749991E+02 0.  0.
         23    2    1    2    0    0 -0.81095829065E+01 -0.99425008141E+02  0.30864985241E+03  0.33736590077E+03  0.92735764574E+02 0.  0.
        -13    1    3    3    0    0 -0.29000562240E+02  0.37889336779E+01  0.84310000512E+02  0.89238807786E+02  0.00000000000E+00 0.  1.
         14    1    3    3    0    0 -0.14078188714E+01  0.12768496130E+03  0.28759719723E+03  0.31467058831E+03  0.00000000000E+00 0. -1.
        -13    1    4    4    0    0  0.27629166913E+02 -0.43205907163E+02  0.55369098323E+02  0.75470910470E+02  0.00000000000E+00 0. -1.
         13    1    4    4    0    0 -0.35738749820E+02 -0.56219100978E+02  0.25328075409E+03  0.26189499030E+03  0.00000000000E+00 0.  1.
         21    1    1    2  503  502 -0.28834315436E+02  0.20623739063E+02  0.60980652234E+01  0.35971415861E+02  0.00000000000E+00 0. -1.
          3    1    1    2  501    0  0.67352279454E+02 -0.52672625896E+02  0.20426630236E+03  0.22143951171E+03  0.00000000000E+00 0. -1.
<scales pt_clust_5="13000.00000" pt_clust_6="13000.00000" pt_clust_7="13000.00000" pt_clust_8="13000.00000" pt_clust_9="35.45076" pt_clust_10="13000.00000"></scales>
<clustering>
<clus scale="   35.451">  2  9  1 -1</clus>
<clus scale="   81.350">  5  6 -1 -1</clus>
<clus scale="   92.736">  7  8 -1 -1</clus>
<clus scale="   77.695">  7 10 -1 -1</clus>
<clus scale="  167.298">  1  5  2 -1</clus>
<clus scale="   35.451">  2  5  1 -1</clus>
</clustering>
</event>
<event>
10    4  0.2866397E-005  0.2273563E+03  0.7546771E-02  0.1152468E+00
         21   -1    0    0  503  502  0.00000000000E+00  0.00000000000E+00  0.56039489138E+03  0.56039489138E+03  0.00000000000E+00 0.  1.
          2   -1    0    0  502    0 -0.00000000000E+00 -0.00000000000E+00 -0.75919926645E+03  0.75919926645E+03  0.00000000000E+00 0. -1.
         24    2    1    2    0    0 -0.36866059025E+02  0.92005927978E+02 -0.32055357866E+03  0.34502968613E+03  0.80415734971E+02 0.  0.
         23    2    1    2    0    0 -0.89328878673E+02 -0.21085911984E+02 -0.18650547241E+03  0.22686249030E+03  0.90873725656E+02 0.  0.
        -11    1    3    3    0    0 -0.50478116078E+01  0.95383897447E+02 -0.24648868411E+03  0.26434870850E+03  0.00000000000E+00 0.  1.
         12    1    3    3    0    0 -0.31818247417E+02 -0.33779694687E+01 -0.74064894552E+02  0.80680977631E+02  0.00000000000E+00 0. -1.
        -11    1    4    4    0    0 -0.63209759036E+02  0.23275174498E+02 -0.59705187343E+02  0.90010648153E+02  0.00000000000E+00 0.  1.
         11    1    4    4    0    0 -0.26119119637E+02 -0.44361086481E+02 -0.12680028507E+03  0.13685184214E+03  0.00000000000E+00 0. -1.
         21    1    1    2  503  501  0.17996916375E+03 -0.51297693788E+02  0.50723325831E+03  0.54065324527E+03  0.00000000000E+00 0.  1.
          1    1    1    2  501    0 -0.53774226051E+02 -0.19622322206E+02 -0.19897858230E+03  0.20704873613E+03  0.00000000000E+00 0. -1.
<scales pt_clust_5="13000.00000" pt_clust_6="13000.00000" pt_clust_7="13000.00000" pt_clust_8="13000.00000" pt_clust_9="184.78509" pt_clust_10="13000.00000"></scales>
<clustering>
<clus scale="   80.416">  5  6 -1 -1</clus>
<clus scale="   90.874">  7  8 -1 -1</clus>
<clus scale="   57.243">  7 10 -1 -1</clus>
<clus scale="  127.636">  2  5  1 -1</clus>
<clus scale="  184.785">  1  9  2 -1</clus>
<clus scale="  184.785">  1  5  2 -1</clus>
</clustering>
</event>
<event>
10    4  0.2866397E-005  0.1103468E+04  0.7546771E-02  0.9408521E-01
         21   -1    0    0  501  502  0.00000000000E+00  0.00000000000E+00  0.40721276734E+03  0.40721276734E+03  0.00000000000E+00 0. -1.
          2   -1    0    0  503    0 -0.00000000000E+00 -0.00000000000E+00 -0.17253878910E+04  0.17253878910E+04  0.00000000000E+00 0. -1.
         24    2    1    2    0    0  0.52105622671E+03 -0.51538228440E+02 -0.49621291503E+03  0.72585747077E+03  0.80535895388E+02 0.  0.
         23    2    1    2    0    0  0.14107317134E+03  0.22192384695E+02  0.14085987742E+03  0.22251959771E+03  0.96329251460E+02 0.  0.
        -13    1    3    3    0    0  0.86283592417E+02  0.10686082301E+02 -0.52658622470E+02  0.10164635358E+03  0.00000000000E+00 0.  1.
         14    1    3    3    0    0  0.43477263429E+03 -0.62224310741E+02 -0.44355429256E+03  0.62421111719E+03  0.00000000000E+00 0. -1.
        -13    1    4    4    0    0  0.67900718031E+02 -0.37729089235E+02  0.64294592743E+02  0.10083544188E+03  0.00000000000E+00 0.  1.
         13    1    4    4    0    0  0.73172453310E+02  0.59921473930E+02  0.76565284677E+02  0.12168415583E+03  0.00000000000E+00 0. -1.
         21    1    1    2  503  502 -0.34547810699E+02  0.34132405607E+02 -0.22079505727E+02  0.53348635501E+02  0.00000000000E+00 0. -1.
          1    1    1    2  501    0 -0.62758158735E+03 -0.47865618622E+01 -0.94074258028E+03  0.11308749543E+04  0.00000000000E+00 0. -1.
<scales pt_clust_5="13000.00000" pt_clust_6="13000.00000" pt_clust_7="13000.00000" pt_clust_8="13000.00000" pt_clust_9="48.56513" pt_clust_10="13000.00000"></scales>
<clustering>
<clus scale="   48.565">  1  9  2 -1</clus>
<clus scale="   80.536">  5  6 -1 -1</clus>
<clus scale="   96.329">  7  8 -1 -1</clus>
<clus scale="  518.899">  2  5  1 -1</clus>
<clus scale="  155.458">  7 10 -1 -1</clus>
<clus scale="   48.565">  1  5  2 -1</clus>
</clustering>
</event>
<event>
10    4  0.2866397E-005  0.3200042E+03  0.7546771E-02  0.1099945E+00
          2   -1    0    0  502    0 -0.00000000000E+00  0.00000000000E+00  0.76744048667E+03  0.76744048667E+03  0.00000000000E+00 0. -1.
         21   -1    0    0  503  502  0.00000000000E+00 -0.00000000000E+00 -0.13631908589E+03  0.13631908589E+03  0.00000000000E+00 0. -1.
         24    2    1    2    0    0 -0.86017761067E+02 -0.96658752313E+02  0.16057647224E+03  0.22059573749E+03  0.78330749674E+02 0.  0.
         23    2    1    2    0    0 -0.43440054958E+02  0.17448926036E+02  0.32170442070E+03  0.33764668108E+03  0.91214272729E+02 0.  0.
        -13    1    3    3    0    0 -0.26394573482E+02 -0.62643793080E+02  0.32640403553E+02  0.75407653887E+02  0.00000000000E+00 0.  1.
         14    1    3    3    0    0 -0.59623187584E+02 -0.34014959233E+02  0.12793606869E+03  0.14518808360E+03  0.00000000000E+00 0. -1.
        -13    1    4    4    0    0 -0.68919501965E+01 -0.34840793739E+02  0.77564237741E+02  0.85308797097E+02  0.00000000000E+00 0. -1.
         13    1    4    4    0    0 -0.36548104762E+02  0.52289719775E+02  0.24414018296E+03  0.25233788398E+03  0.00000000000E+00 0.  1.
         21    1    1    2  503  501 -0.25710750252E+02 -0.45065503127E+02 -0.44389638143E+02  0.68281639004E+02  0.00000000000E+00 0. -1.
          1    1    1    2  501    0  0.15516856628E+03  0.12427532940E+03  0.19323014598E+03  0.27723551499E+03  0.00000000000E+00 0. -1.
<scales pt_clust_5="13000.00000" pt_clust_6="13000.00000" pt_clust_7="13000.00000" pt_clust_8="13000.00000" pt_clust_9="51.88393" pt_clust_10="13000.00000"></scales>
<clustering>
<clus scale="   51.884">  2  9  1 -1</clus>
<clus scale="   78.331">  5  6 -1 -1</clus>
<clus scale="   91.214">  7  8 -1 -1</clus>
<clus scale="  167.884">  1  5  2 -1</clus>
<clus scale="  123.477">  7 10 -1 -1</clus>
<clus scale="   51.884">  2  5  1 -1</clus>
</clustering>
</event>
<event>
10    4  0.2866397E-005  0.3188960E+03  0.7546771E-02  0.1124923E+00
         21   -1    0    0  501  502  0.00000000000E+00  0.00000000000E+00  0.50377532771E+03  0.50377532771E+03  0.00000000000E+00 0.  1.
          2   -1    0    0  503    0 -0.00000000000E+00 -0.00000000000E+00 -0.25568099390E+03  0.25568099390E+03  0.00000000000E+00 0. -1.
         24    2    1    2    0    0  0.19451213333E+02 -0.33614612417E+02 -0.18327382478E+03  0.20426696228E+03  0.81408876432E+02 0.  0.
         23    2    1    2    0    0 -0.10744154642E+03 -0.84835983869E+02  0.31474027278E+03  0.35511219432E+03  0.91117513058E+02 0.  0.
        -11    1    3    3    0    0 -0.20833420949E+02 -0.38539964771E+02 -0.13072244496E+03  0.13786848055E+03  0.00000000000E+00 0.  1.
         12    1    3    3    0    0  0.40284634282E+02  0.49253523545E+01 -0.52551379817E+02  0.66398481727E+02  0.00000000000E+00 0. -1.
        -11    1    4    4    0    0 -0.72856567776E+02 -0.38832958390E+02  0.26963048120E+03  0.28198701125E+03  0.00000000000E+00 0.  1.
         11    1    4    4    0    0 -0.34584978648E+02 -0.46003025479E+02  0.45109791583E+02  0.73125183062E+02  0.00000000000E+00 0. -1.
         21    1    1    2  503  502  0.11275479037E+02  0.25012539951E+02  0.61224077970E+02  0.67090620101E+02  0.00000000000E+00 0. -1.
          1    1    1    2  501    0  0.76714854054E+02  0.93438056335E+02  0.55403807833E+02  0.13298654491E+03  0.00000000000E+00 0. -1.
<scales pt_clust_5="13000.00000" pt_clust_6="13000.00000" pt_clust_7="13000.00000" pt_clust_8="13000.00000" pt_clust_9="27.43654" pt_clust_10="13000.00000"></scales>
<clustering>
<clus scale="   27.437">  1  9  2 -1</clus>
<clus scale="   81.409">  5  6 -1 -1</clus>
<clus scale="   90.036">  2  5  1 -1</clus>
<clus scale="   91.118">  7  8 -1 -1</clus>
<clus scale="  119.906">  7 10 -1 -1</clus>
<clus scale="   27.437">  1  5  2 -1</clus>
</clustering>
</event>
<event>
10    4  0.2866397E-005  0.2721213E+03  0.7546771E-02  0.1135283E+00
         21   -1    0    0  501  502  0.00000000000E+00  0.00000000000E+00  0.59085689287E+03  0.59085689287E+03  0.00000000000E+00 0. -1.
          2   -1    0    0  503    0 -0.00000000000E+00 -0.00000000000E+00 -0.38330482194E+03  0.38330482194E+03  0.00000000000E+00 0. -1.
         24    2    1    2    0    0  0.16722779716E+01  0.20185984411E+02 -0.27014110243E+03  0.29257513899E+03  0.11051572853E+03 0.  0.
         23    2    1    2    0    0  0.52956490203E+02  0.22743478146E+02  0.15863312661E+03  0.19255187403E+03  0.92682790657E+02 0.  0.
        -11    1    3    3    0    0 -0.51223453237E+02 -0.88016037224E+01 -0.12999271003E+03  0.13999791088E+03  0.00000000000E+00 0.  1.
         12    1    3    3    0    0  0.52895731209E+02  0.28987588134E+02 -0.14014839240E+03  0.15257722811E+03  0.00000000000E+00 0. -1.
        -13    1    4    4    0    0 -0.25055220668E+02  0.96771966813E+01  0.22192335398E+02  0.34841239484E+02  0.00000000000E+00 0.  1.
         13    1    4    4    0    0  0.78011710871E+02  0.13066281464E+02  0.13644079121E+03  0.15771063455E+03  0.00000000000E+00 0. -1.
         21    1    1    2  503  502 -0.13017555496E+03 -0.11042277804E+03  0.34459817997E+03  0.38456049024E+03  0.00000000000E+00 0. -1.
          1    1    1    2  501    0  0.75546786789E+02  0.67493315484E+02 -0.25538133223E+02  0.10447421154E+03  0.00000000000E+00 0. -1.
<scales pt_clust_5="13000.00000" pt_clust_6="13000.00000" pt_clust_7="13000.00000" pt_clust_8="13000.00000" pt_clust_9="167.91529" pt_clust_10="13000.00000"></scales>
<clustering>
<clus scale="   92.683">  7  8 -1 -1</clus>
<clus scale="  101.305">  7 10 -1 -1</clus>
<clus scale="  110.516">  5  6 -1 -1</clus>
<clus scale="  112.357">  2  5  1 -1</clus>
<clus scale="  167.915">  1  9  2 -1</clus>
<clus scale="  167.915">  1  5  2 -1</clus>
</clustering>
</event>
<event>
10    4  0.2866397E-005  0.3341784E+03  0.7546771E-02  0.1110946E+00
         21   -1    0    0  503  502  0.00000000000E+00  0.00000000000E+00  0.19676902121E+03  0.19676902121E+03  0.00000000000E+00 0.  1.
         -1   -1    0    0    0  501 -0.00000000000E+00 -0.00000000000E+00 -0.52214285326E+03  0.52214285326E+03  0.00000000000E+00 0.  1.
         24    2    1    2    0    0  0.11870425277E+02  0.93507356310E+02  0.33567175016E+02  0.12906157925E+03  0.81520569921E+02 0.  0.
         23    2    1    2    0    0 -0.37048616651E+02 -0.12240361109E+03 -0.42721717419E+03  0.45534186202E+03  0.92013332637E+02 0.  0.
        -11    1    3    3    0    0  0.35008247206E+02  0.12730424292E+02  0.24415162590E+02  0.44539210135E+02  0.00000000000E+00 0.  1.
         12    1    3    3    0    0 -0.23137821929E+02  0.80776932018E+02  0.91520124258E+01  0.84522369118E+02  0.00000000000E+00 0. -1.
        -11    1    4    4    0    0 -0.17509168804E+02 -0.24758580911E+02 -0.20480542495E+02  0.36592498437E+02  0.00000000000E+00 0. -1.
         11    1    4    4    0    0 -0.19539447847E+02 -0.97645030183E+02 -0.40673663169E+03  0.41874936358E+03  0.00000000000E+00 0.  1.
         21    1    1    2  503  501 -0.12256206490E+02 -0.31181333803E+02  0.52027111671E+02  0.61881423093E+02  0.00000000000E+00 0. -1.
         -2    1    1    2    0  502  0.37434397863E+02  0.60077588587E+02  0.16249055445E+02  0.72627010104E+02  0.00000000000E+00 0.  1.
<scales pt_clust_5="13000.00000" pt_clust_6="13000.00000" pt_clust_7="13000.00000" pt_clust_8="13000.00000" pt_clust_9="33.50358" pt_clust_10="13000.00000"></scales>
<clustering>
<clus scale="   33.504">  1  9  2 -1</clus>
<clus scale="   81.521">  5  6 -1 -1</clus>
<clus scale="   92.013">  7  8 -1 -1</clus>
<clus scale="   60.346">  7 10 -1 -1</clus>
<clus scale="  111.127">  2  5  1 -1</clus>
<clus scale="   33.504">  1  5  2 -1</clus>
</clustering>
</event>
<event>
10    4  0.2866397E-005  0.2220390E+03  0.7546771E-02  0.1151302E+00
         21   -1    0    0  501  502  0.00000000000E+00  0.00000000000E+00  0.72755932412E+03  0.72755932412E+03  0.00000000000E+00 0. -1.
          2   -1    0    0  503    0 -0.00000000000E+00 -0.00000000000E+00 -0.16151291795E+03  0.16151291795E+03  0.00000000000E+00 0. -1.
         24    2    1    2    0    0 -0.83234500645E+02  0.75227602976E+02 -0.98253851303E+02  0.17154683829E+03  0.84778087286E+02 0.  0.
         23    2    1    2    0    0 -0.25299465567E+02 -0.13318764673E+02  0.18479021724E+03  0.20946480985E+03  0.94396131956E+02 0.  0.
        -11    1    3    3    0    0 -0.13416172474E+02 -0.19046395441E+02 -0.15441529255E+02  0.27949949711E+02  0.00000000000E+00 0.  1.
         12    1    3    3    0    0 -0.69818328171E+02  0.94273998417E+02 -0.82812322048E+02  0.14359688858E+03  0.00000000000E+00 0. -1.
        -11    1    4    4    0    0 -0.53871504869E+02  0.10591827254E+02  0.71131548241E+02  0.89855567421E+02  0.00000000000E+00 0. -1.
         11    1    4    4    0    0  0.28572039302E+02 -0.23910591927E+02  0.11365866900E+03  0.11960924243E+03  0.00000000000E+00 0.  1.
         21    1    1    2  503  502  0.13981831053E+02  0.21414007847E+02  0.19778629730E+03  0.19943287274E+03  0.00000000000E+00 0. -1.
          1    1    1    2  501    0  0.94552135158E+02 -0.83322846150E+02  0.28172374294E+03  0.30862772119E+03  0.00000000000E+00 0. -1.
<scales pt_clust_5="13000.00000" pt_clust_6="13000.00000" pt_clust_7="13000.00000" pt_clust_8="13000.00000" pt_clust_9="25.57443" pt_clust_10="13000.00000"></scales>
<clustering>
<clus scale="   25.574">  1  9  2 -1</clus>
<clus scale="   84.778">  5  6 -1 -1</clus>
<clus scale="   94.396">  7  8 -1 -1</clus>
<clus scale="  124.782">  7 10 -1 -1</clus>
<clus scale="  140.853">  2  5  1 -1</clus>
<clus scale="   25.574">  1  5  2 -1</clus>
</clustering>
</event>
<event>
10    4  0.2866397E-005  0.3302266E+03  0.7546771E-02  0.1118245E+00
         21   -1    0    0  503  502  0.00000000000E+00  0.00000000000E+00  0.69663429788E+03  0.69663429788E+03  0.00000000000E+00 0. -1.
          2   -1    0    0  502    0 -0.00000000000E+00 -0.00000000000E+00 -0.15351063946E+03  0.15351063946E+03  0.00000000000E+00 0. -1.
         24    2    1    2    0    0 -0.54464134568E+02  0.18886173560E+02  0.42378995405E+03  0.43525869099E+03  0.80803300812E+02 0.  0.
         23    2    1    2    0    0  0.43224148076E+02  0.12491295432E+03  0.64478915681E+02  0.17301588334E+03  0.91133924456E+02 0.  0.
        -13    1    3    3    0    0 -0.91564662535E+01 -0.20950526959E+02  0.34937637536E+02  0.41754089269E+02  0.00000000000E+00 0.  1.
         14    1    3    3    0    0 -0.45307668314E+02  0.39836700519E+02  0.38885231652E+03  0.39350460172E+03  0.00000000000E+00 0. -1.
        -13    1    4    4    0    0 -0.12488557841E+02  0.53711438176E+02 -0.97993159385E+01  0.56008117811E+02  0.00000000000E+00 0.  1.
         13    1    4    4    0    0  0.55712705916E+02  0.71201516147E+02  0.74278231620E+02  0.11700776553E+03  0.00000000000E+00 0. -1.
         21    1    1    2  503  501  0.16545058948E+02  0.13503572059E+02  0.79715734280E+02  0.82526866690E+02  0.00000000000E+00 0. -1.
          1    1    1    2  501    0 -0.53050724557E+01 -0.15730269994E+03 -0.24860945584E+02  0.15934349632E+03  0.00000000000E+00 0. -1.
<scales pt_clust_5="13000.00000" pt_clust_6="13000.00000" pt_clust_7="13000.00000" pt_clust_8="13000.00000" pt_clust_9="21.35616" pt_clust_10="13000.00000"></scales>
<clustering>
<clus scale="   21.356">  1  9  2 -1</clus>
<clus scale="   80.803">  5  6 -1 -1</clus>
<clus scale="   91.134">  7  8 -1 -1</clus>
<clus scale="   95.774">  2  5  1 -1</clus>
<clus scale="  141.604">  7 10 -1 -1</clus>
<clus scale="   21.356">  1  5  2 -1</clus>
</clustering>
</event>
<event>
10    4  0.2866397E-005  0.6515408E+03  0.7546771E-02  0.1003066E+00
          2   -1    0    0  503    0 -0.00000000000E+00  0.00000000000E+00  0.22640923093E+04  0.22640923093E+04  0.00000000000E+00 0. -1.
         21   -1    0    0  501  502  0.00000000000E+00 -0.00000000000E+00 -0.14610484733E+03  0.14610484733E+03  0.00000000000E+00 0. -1.
         24    2    1    2    0    0  0.28462579129E+03  0.15829927836E+03  0.34093648811E+03  0.47809515246E+03  0.79163017148E+02 0.  0.
         23    2    1    2    0    0 -0.20680900891E+01  0.65752740615E+02  0.33095023945E+02  0.11680628033E+03  0.90668222772E+02 0.  0.
        -11    1    3    3    0    0  0.57527189362E+02 -0.12903922313E+01  0.62004314030E+02  0.84590647157E+02  0.00000000000E+00 0.  1.
         12    1    3    3    0    0  0.22709860193E+03  0.15958967059E+03  0.27893217408E+03  0.39350450531E+03  0.00000000000E+00 0. -1.
        -11    1    4    4    0    0  0.23518516649E+02 -0.14553597801E+02  0.63024317642E+01  0.28366326524E+02  0.00000000000E+00 0.  1.
         11    1    4    4    0    0 -0.25586606738E+02  0.80306338416E+02  0.26792592181E+02  0.88439953810E+02  0.00000000000E+00 0. -1.
         21    1    1    2  503  502 -0.26559797186E+02 -0.30898370223E+02 -0.13543784581E+01  0.40767222741E+02  0.00000000000E+00 0. -1.
          1    1    1    2  501    0 -0.25599790402E+03 -0.19315364875E+03  0.17453103283E+04  0.17745285010E+04  0.00000000000E+00 0. -1.
<scales pt_clust_5="13000.00000" pt_clust_6="13000.00000" pt_clust_7="13000.00000" pt_clust_8="13000.00000" pt_clust_9="40.74472" pt_clust_10="13000.00000"></scales>
<clustering>
<clus scale="   40.745">  2  9  1 -1</clus>
<clus scale="   79.163">  5  6 -1 -1</clus>
<clus scale="   90.668">  7  8 -1 -1</clus>
<clus scale="  314.928">  1  5  2 -1</clus>
<clus scale="   61.116">  7 10 -1 -1</clus>
<clus scale="   40.745">  2  5  1 -1</clus>
</clustering>
</event>
<event>
10    4  0.2866397E-005  0.1771168E+03  0.7546771E-02  0.1202175E+00
         21   -1    0    0  503  502  0.00000000000E+00  0.00000000000E+00  0.32073732848E+03  0.32073732848E+03  0.00000000000E+00 0. -1.
          2   -1    0    0  502    0 -0.00000000000E+00 -0.00000000000E+00 -0.34141424966E+03  0.34141424966E+03  0.00000000000E+00 0. -1.
         24    2    1    2    0    0 -0.29316926696E+02 -0.14552996574E+02 -0.27765152029E+03  0.29103244741E+03  0.80859426320E+02 0.  0.
         23    2    1    2    0    0  0.24748640182E+02 -0.24234154889E+02  0.92369099077E+02  0.13889205447E+03  0.97770971541E+02 0.  0.
        -13    1    3    3    0    0  0.19113158334E+02  0.14147835776E+02 -0.37759616361E+02  0.44623566716E+02  0.00000000000E+00 0.  1.
         14    1    3    3    0    0 -0.48430085030E+02 -0.28700832350E+02 -0.23989190393E+03  0.24640888069E+03  0.00000000000E+00 0. -1.
        -11    1    4    4    0    0 -0.13607985998E+02  0.26259129865E+02  0.35891427690E+01  0.29792635500E+02  0.00000000000E+00 0.  1.
         11    1    4    4    0    0  0.38356626180E+02 -0.50493284755E+02  0.88779956308E+02  0.10909941897E+03  0.00000000000E+00 0. -1.
         21    1    1    2  503  501 -0.27438432397E+02 -0.31780958094E+02  0.14684597766E+03  0.15273060605E+03  0.00000000000E+00 0. -1.
          1    1    1    2  501    0  0.32006718911E+02  0.70568109558E+02  0.17759522365E+02  0.79496470215E+02  0.00000000000E+00 0. -1.
<scales pt_clust_5="13000.00000" pt_clust_6="13000.00000" pt_clust_7="13000.00000" pt_clust_8="13000.00000" pt_clust_9="41.98687" pt_clust_10="13000.00000"></scales>
<clustering>
<clus scale="   41.987">  1  9  2 -1</clus>
<clus scale="   80.859">  5  6 -1 -1</clus>
<clus scale="   87.814">  2  5  1 -1</clus>
<clus scale="   97.771">  7  8 -1 -1</clus>
<clus scale="   55.504">  7 10 -1 -1</clus>
<clus scale="   41.987">  1  5  2 -1</clus>
</clustering>
</event>
<event>
10    4  0.2866397E-005  0.1289047E+03  0.7546771E-02  0.1247144E+00
         21   -1    0    0  503  502  0.00000000000E+00  0.00000000000E+00  0.18594687241E+03  0.18594687241E+03  0.00000000000E+00 0.  1.
          2   -1    0    0  502    0 -0.00000000000E+00 -0.00000000000E+00 -0.57799103974E+03  0.57799103974E+03  0.00000000000E+00 0. -1.
         24    2    1    2    0    0 -0.10337153570E+02  0.29642239768E+02 -0.22159012782E+03  0.23782817932E+03  0.80464520185E+02 0.  0.
         23    2    1    2    0    0  0.16930571175E+02 -0.10509337738E+02 -0.18343083354E+03  0.20557023220E+03  0.90637515698E+02 0.  0.
        -11    1    3    3    0    0  0.16636070158E+02 -0.14514805989E+02 -0.20294190494E+02  0.29988207532E+02  0.00000000000E+00 0.  1.
         12    1    3    3    0    0 -0.26973223728E+02  0.44157045757E+02 -0.20129593733E+03  0.20783997179E+03  0.00000000000E+00 0. -1.
        -11    1    4    4    0    0  0.35366560481E+02  0.19349373316E+02 -0.36089500888E+02  0.54107706681E+02  0.00000000000E+00 0.  1.
         11    1    4    4    0    0 -0.18435989306E+02 -0.29858711054E+02 -0.14734133266E+03  0.15146252552E+03  0.00000000000E+00 0. -1.
         21    1    1    2  503  501 -0.33465989848E+02  0.31414221194E+01  0.16304085509E+03  0.16646970126E+03  0.00000000000E+00 0.  1.
          1    1    1    2  501    0  0.26872572242E+02 -0.22274324149E+02 -0.15006406105E+03  0.15406979936E+03  0.00000000000E+00 0. -1.
<scales pt_clust_5="13000.00000" pt_clust_6="13000.00000" pt_clust_7="13000.00000" pt_clust_8="13000.00000" pt_clust_9="33.61311" pt_clust_10="13000.00000"></scales>
<clustering>
<clus scale="   33.613">  1  9  2 -1</clus>
<clus scale="   80.465">  5  6 -1 -1</clus>
<clus scale="   89.232">  2  5  1 -1</clus>
<clus scale="   90.638">  7  8 -1 -1</clus>
<clus scale="   17.325">  7 10 -1 -1</clus>
<clus scale="   33.613">  1  5  2 -1</clus>
</clustering>
</event>
<event>
10    4  0.2866397E-005  0.4019170E+03  0.7546771E-02  0.1101430E+00
         21   -1    0    0  501  502  0.00000000000E+00  0.00000000000E+00  0.20293068657E+03  0.20293068657E+03  0.00000000000E+00 0. -1.
          2   -1    0    0  503    0 -0.00000000000E+00 -0.00000000000E+00 -0.67433897563E+03  0.67433897563E+03  0.00000000000E+00 0. -1.
         24    2    1    2    0    0 -0.90360788261E+01  0.11320311227E+02 -0.69012939080E+02  0.10682301625E+03  0.80240705840E+02 0.  0.
         23    2    1    2    0    0 -0.55274655063E+02 -0.12155322591E+03 -0.76031310029E+02  0.17814730194E+03  0.90140040278E+02 0.  0.
        -11    1    3    3    0    0  0.32728571892E+02 -0.42252561000E+01 -0.46154675190E+02  0.56738578137E+02  0.00000000000E+00 0.  1.
         12    1    3    3    0    0 -0.41764650718E+02  0.15545567327E+02 -0.22858263890E+02  0.50084438114E+02  0.00000000000E+00 0. -1.
        -13    1    4    4    0    0 -0.23313911063E+02 -0.11657343318E+03 -0.31277035098E+02  0.12292744484E+03  0.00000000000E+00 0. -1.
         13    1    4    4    0    0 -0.31960744001E+02 -0.49797927349E+01 -0.44754274931E+02  0.55219857093E+02  0.00000000000E+00 0.  1.
         21    1    1    2  503  502  0.13028386724E+03 -0.70531936690E+02  0.60651249678E+02  0.16008502192E+03  0.00000000000E+00 0. -1.
          1    1    1    2  501    0 -0.65973133354E+02  0.18076485137E+03 -0.38701528963E+03  0.43221432209E+03  0.00000000000E+00 0. -1.
<scales pt_clust_5="13000.00000" pt_clust_6="13000.00000" pt_clust_7="13000.00000" pt_clust_8="13000.00000" pt_clust_9="147.02091" pt_clust_10="13000.00000"></scales>
<clustering>
<clus scale="   80.241">  5  6 -1 -1</clus>
<clus scale="   81.538">  2  5  1 -1</clus>
<clus scale="   90.140">  7  8 -1 -1</clus>
<clus scale="  147.021">  1  9  2 -1</clus>
<clus scale="  163.441">  7 10 -1 -1</clus>
<clus scale="  147.021">  1  5  2 -1</clus>
</clustering>
</event>
<event>
10    4  0.2866397E-005  0.4927354E+03  0.7546771E-02  0.1070746E+00
         21   -1    0    0  501  502  0.00000000000E+00  0.00000000000E+00  0.89046475928E+03  0.89046475928E+03  0.00000000000E+00 0.  1.
          2   -1    0    0  503    0 -0.00000000000E+00 -0.00000000000E+00 -0.20165719502E+03  0.20165719502E+03  0.00000000000E+00 0. -1.
         24    2    1    2    0    0 -0.34489073093E+01 -0.59993608563E+02  0.57420596881E+01  0.10036440605E+03  0.80180513360E+02 0.  0.
         23    2    1    2    0    0  0.27377378400E+02  0.23577827605E+03  0.46034987486E+03  0.52584981718E+03  0.90857617417E+02 0.  0.
        -13    1    3    3    0    0  0.25434994596E+02 -0.53457952642E+02  0.25819549963E+02  0.64585918055E+02  0.00000000000E+00 0.  1.
         14    1    3    3    0    0 -0.28883901906E+02 -0.65356559209E+01 -0.20077490274E+02  0.35778487997E+02  0.00000000000E+00 0. -1.
        -11    1    4    4    0    0  0.30439202585E+02  0.12953090125E+03  0.34094376183E+03  0.36598831698E+03  0.00000000000E+00 0. -1.
         11    1    4    4    0    0 -0.30618241851E+01  0.10624737479E+03  0.11940611302E+03  0.15986150020E+03  0.00000000000E+00 0.  1.
         21    1    1    2  503  502  0.17204933174E+03 -0.99306989644E+02  0.10081447657E+03  0.22276985754E+03  0.00000000000E+00 0.  1.
          1    1    1    2  501    0 -0.19597780283E+03 -0.76477677838E+02  0.12190115314E+03  0.24313787353E+03  0.00000000000E+00 0. -1.
<scales pt_clust_5="13000.00000" pt_clust_6="13000.00000" pt_clust_7="13000.00000" pt_clust_8="13000.00000" pt_clust_9="210.39289" pt_clust_10="13000.00000"></scales>
<clustering>
<clus scale="   80.181">  5  6 -1 -1</clus>
<clus scale="   90.858">  7  8 -1 -1</clus>
<clus scale="  100.200">  2  5  1 -1</clus>
<clus scale="  210.393">  1  9  2 -1</clus>
<clus scale="  199.312">  7 10 -1 -1</clus>
<clus scale="  210.393">  1  5  2 -1</clus>
</clustering>
</event>
<event>
10    4  0.2866397E-005  0.1918703E+03  0.7546771E-02  0.1180415E+00
         21   -1    0    0  501  502  0.00000000000E+00  0.00000000000E+00  0.67627206123E+02  0.67627206123E+02  0.00000000000E+00 0.  1.
          2   -1    0    0  503    0 -0.00000000000E+00 -0.00000000000E+00 -0.73404788947E+03  0.73404788947E+03  0.00000000000E+00 0. -1.
         24    2    1    2    0    0  0.52880694136E+02 -0.32811655905E+02 -0.28321257538E+03  0.30212991052E+03  0.84853682293E+02 0.  0.
         23    2    1    2    0    0 -0.35300816895E+02 -0.42771488761E+02 -0.18692295407E+03  0.21471670582E+03  0.89930668152E+02 0.  0.
        -13    1    3    3    0    0  0.29720739510E+02 -0.59374329778E+02 -0.14473507625E+03  0.15923842404E+03  0.00000000000E+00 0.  1.
         14    1    3    3    0    0  0.23159954627E+02  0.26562673874E+02 -0.13847749913E+03  0.14289148648E+03  0.00000000000E+00 0. -1.
        -13    1    4    4    0    0 -0.15190109311E+02  0.21929021865E+02 -0.16617830965E+02  0.31428867730E+02  0.00000000000E+00 0.  1.
         13    1    4    4    0    0 -0.20110707585E+02 -0.64700510626E+02 -0.17030512311E+03  0.18328783809E+03  0.00000000000E+00 0. -1.
         21    1    1    2  503  502  0.40895993808E+02 -0.18752375560E+01  0.21612901558E+02  0.46293804544E+02  0.00000000000E+00 0.  1.
          1    1    1    2  501    0 -0.58475871048E+02  0.77458382222E+02 -0.21789805545E+03  0.23853467471E+03  0.00000000000E+00 0. -1.
<scales pt_clust_5="13000.00000" pt_clust_6="13000.00000" pt_clust_7="13000.00000" pt_clust_8="13000.00000" pt_clust_9="40.93896" pt_clust_10="13000.00000"></scales>
<clustering>
<clus scale="   40.939">  1  9  2 -1</clus>
<clus scale="   84.854">  5  6 -1 -1</clus>
<clus scale="   89.931">  7  8 -1 -1</clus>
<clus scale="   89.566">  7 10 -1 -1</clus>
<clus scale="  111.601">  2  5  1 -1</clus>
<clus scale="   40.939">  1  5  2 -1</clus>
</clustering>
</event>
<event>
10    4  0.2866397E-005  0.2638008E+03  0.7546771E-02  0.1108720E+00
         21   -1    0    0  503  502  0.00000000000E+00  0.00000000000E+00  0.25712152601E+03  0.25712152601E+03  0.00000000000E+00 0. -1.
          2   -1    0    0  502    0 -0.00000000000E+00 -0.00000000000E+00 -0.73527675901E+03  0.73527675901E+03  0.00000000000E+00 0. -1.
         24    2    1    2    0    0 -0.10429301067E+03  0.20488721764E+03 -0.54928809715E+03  0.60083756170E+03  0.80203228427E+02 0.  0.
         23    2    1    2    0    0  0.43766835061E+02 -0.99668176181E+02 -0.69102977505E+02  0.15733612106E+03  0.90167357150E+02 0.  0.
        -11    1    3    3    0    0 -0.53479669431E+02  0.38096856175E+02 -0.10855608233E+03  0.12686949398E+03  0.00000000000E+00 0.  1.
         12    1    3    3    0    0 -0.50813341237E+02  0.16679036146E+03 -0.44073201482E+03  0.47396806772E+03  0.00000000000E+00 0. -1.
        -11    1    4    4    0    0  0.25917394870E+02 -0.66827884202E+02 -0.89572118698E+02  0.11472071265E+03  0.00000000000E+00 0.  1.
         11    1    4    4    0    0  0.17849440191E+02 -0.32840291978E+02  0.20469141193E+02  0.42615408405E+02  0.00000000000E+00 0. -1.
         21    1    1    2  503  501  0.19947801071E+02 -0.14982326361E+02  0.13266975498E+03  0.13499499530E+03  0.00000000000E+00 0. -1.
          1    1    1    2  501    0  0.40578374536E+02 -0.90236715096E+02  0.75660866794E+01  0.99229606968E+02  0.00000000000E+00 0. -1.
<scales pt_clust_5="13000.00000" pt_clust_6="13000.00000" pt_clust_7="13000.00000" pt_clust_8="13000.00000" pt_clust_9="24.94764" pt_clust_10="13000.00000"></scales>
<clustering>
<clus scale="   24.948">  1  9  2 -1</clus>
<clus scale="   80.203">  5  6 -1 -1</clus>
<clus scale="   90.167">  7  8 -1 -1</clus>
<clus scale="  108.528">  7 10 -1 -1</clus>
<clus scale="  239.086">  2  5  1 -1</clus>
<clus scale="   24.948">  1  5  2 -1</clus>
</clustering>
</event>
<event>
10    4  0.2866397E-005  0.3838433E+03  0.7546771E-02  0.1099170E+00
          2   -1    0    0  503    0 -0.00000000000E+00  0.00000000000E+00  0.96717044237E+03  0.96717044237E+03  0.00000000000E+00 0. -1.
         21   -1    0    0  501  502  0.00000000000E+00 -0.00000000000E+00 -0.70886839670E+02  0.70886839670E+02  0.00000000000E+00 0.  1.
         24    2    1    2    0    0  0.13517796788E+02 -0.56555536879E+02  0.19618075049E+03  0.21967761138E+03  0.79938141702E+02 0.  0.
         23    2    1    2    0    0 -0.30068570519E+02 -0.82448653188E+02  0.54221556210E+02  0.13801837848E+03  0.91690764506E+02 0.  0.
        -13    1    3    3    0    0  0.46287668843E+02 -0.24007132649E+02  0.92738397770E+02  0.10639220425E+03  0.00000000000E+00 0.  1.
         14    1    3    3    0    0 -0.32769872055E+02 -0.32548404230E+02  0.10344235272E+03  0.11328540713E+03  0.00000000000E+00 0. -1.
        -13    1    4    4    0    0 -0.61691722084E+02 -0.38882635178E+02  0.27699231263E+02  0.78006251702E+02  0.00000000000E+00 0.  1.
         13    1    4    4    0    0  0.31623151565E+02 -0.43566018010E+02  0.26522324947E+02  0.60012126781E+02  0.00000000000E+00 0. -1.
         21    1    1    2  503  502 -0.33652884161E+02 -0.98895791892E+01  0.34832223628E+02  0.49432825043E+02  0.00000000000E+00 0. -1.
          1    1    1    2  501    0  0.50203657892E+02  0.14889376926E+03  0.61104907238E+03  0.63092846713E+03  0.00000000000E+00 0. -1.
<scales pt_clust_5="13000.00000" pt_clust_6="13000.00000" pt_clust_7="13000.00000" pt_clust_8="13000.00000" pt_clust_9="35.07592" pt_clust_10="13000.00000"></scales>
<clustering>
<clus scale="   35.076">  2  9  1 -1</clus>
<clus scale="   79.938">  5  6 -1 -1</clus>
<clus scale="   91.691">  7  8 -1 -1</clus>
<clus scale="   99.257">  1  5  2 -1</clus>
<clus scale="  112.570">  7 10 -1 -1</clus>
<clus scale="   35.076">  2  5  1 -1</clus>
</clustering>
</event>
<event>
10    4  0.2866397E-005  0.2984144E+03  0.7546771E-02  0.1127943E+00
          2   -1    0    0  503    0 -0.00000000000E+00  0.00000000000E+00  0.12339020188E+04  0.12339020188E+04  0.00000000000E+00 0. -1.
         21   -1    0    0  501  502  0.00000000000E+00 -0.00000000000E+00 -0.10048874971E+03  0.10048874971E+03  0.00000000000E+00 0. -1.
         24    2    1    2    0    0  0.40158870601E+02  0.47763273960E+02  0.94811076990E+03  0.95360754609E+03  0.80989226094E+02 0.  0.
         23    2    1    2    0    0 -0.55908081622E+02  0.21297139486E+02 -0.48705915278E+02  0.12782138665E+03  0.10191545006E+03 0.  0.
        -13    1    3    3    0    0  0.24201796273E+02 -0.16305099671E+02  0.15285837616E+03  0.15561897822E+03  0.00000000000E+00 0.  1.
         14    1    3    3    0    0  0.15957074328E+02  0.64068373631E+02  0.79525239373E+03  0.79798856787E+03  0.00000000000E+00 0. -1.
        -11    1    4    4    0    0  0.19799518891E+02 -0.20720577375E+02 -0.37926132612E+00  0.28661945401E+02  0.00000000000E+00 0.  1.
         11    1    4    4    0    0 -0.75707600513E+02  0.42017716861E+02 -0.48326653952E+02  0.99159441244E+02  0.00000000000E+00 0. -1.
         21    1    1    2  503  502 -0.20695215621E+02 -0.34058956958E+01  0.52328045573E+02  0.56374785397E+02  0.00000000000E+00 0. -1.
          1    1    1    2  501    0  0.36444426642E+02 -0.65654517750E+02  0.18168036892E+03  0.19658705040E+03  0.00000000000E+00 0. -1.
<scales pt_clust_5="13000.00000" pt_clust_6="13000.00000" pt_clust_7="13000.00000" pt_clust_8="13000.00000" pt_clust_9="20.97361" pt_clust_10="13000.00000"></scales>
<clustering>
<clus scale="   20.974">  2  9  1 -1</clus>
<clus scale="   80.989">  5  6 -1 -1</clus>
<clus scale="  101.915">  7  8 -1 -1</clus>
<clus scale="   74.571">  7 10 -1 -1</clus>
<clus scale="  101.971">  1  5  2 -1</clus>
<clus scale="   20.974">  2  5  1 -1</clus>
</clustering>
</event>
<event>
10    4  0.2866397E-005  0.2300968E+03  0.7546771E-02  0.1149207E+00
         21   -1    0    0  503  502  0.00000000000E+00  0.00000000000E+00  0.84232669871E+02  0.84232669871E+02  0.00000000000E+00 0. -1.
          2   -1    0    0  502    0 -0.00000000000E+00 -0.00000000000E+00 -0.11240136750E+04  0.11240136750E+04  0.00000000000E+00 0. -1.
         24    2    1    2    0    0 -0.86514324237E+02 -0.48860419571E+02 -0.63255402336E+03  0.64520024616E+03  0.79288689456E+02 0.  0.
         23    2    1    2    0    0 -0.40098316613E+01  0.71210149281E+01 -0.24879469352E+03  0.26516131896E+03  0.91350631895E+02 0.  0.
        -13    1    3    3    0    0 -0.81739060683E+01 -0.35042189829E+02 -0.91355554026E+02  0.98186582891E+02  0.00000000000E+00 0.  1.
         14    1    3    3    0    0 -0.78340418169E+02 -0.13818229742E+02 -0.54119846934E+03  0.54701366327E+03  0.00000000000E+00 0. -1.
        -11    1    4    4    0    0 -0.29148975130E+01  0.43857892002E+02 -0.19577528126E+03  0.20064887757E+03  0.00000000000E+00 0. -1.
         11    1    4    4    0    0 -0.10949341483E+01 -0.36736877074E+02 -0.53019412257E+02  0.64512441390E+02  0.00000000000E+00 0.  1.
         21    1    1    2  503  501 -0.46062683840E+02 -0.12927447912E+02  0.31765493301E+02  0.57427661599E+02  0.00000000000E+00 0. -1.
          1    1    1    2  501    0  0.13658683974E+03  0.54666852555E+02 -0.19019778150E+03  0.24045711810E+03  0.00000000000E+00 0. -1.
<scales pt_clust_5="13000.00000" pt_clust_6="13000.00000" pt_clust_7="13000.00000" pt_clust_8="13000.00000" pt_clust_9="47.84234" pt_clust_10="13000.00000"></scales>
<clustering>
<clus scale="   47.842">  1  9  2 -1</clus>
<clus scale="   79.289">  5  6 -1 -1</clus>
<clus scale="   91.351">  7  8 -1 -1</clus>
<clus scale="  117.007">  7 10 -1 -1</clus>
<clus scale="  133.004">  2  5  1 -1</clus>
<clus scale="   47.842">  1  5  2 -1</clus>
</clustering>
</event>
<event>
10    4  0.2866397E-005  0.2946251E+03  0.7546771E-02  0.1124487E+00
         21   -1    0    0  503  502  0.00000000000E+00  0.00000000000E+00  0.69818656936E+02  0.69818656936E+02  0.00000000000E+00 0. -1.
          2   -1    0    0  502    0 -0.00000000000E+00 -0.00000000000E+00 -0.12549582953E+04  0.12549582953E+04  0.00000000000E+00 0. -1.
         24    2    1    2    0    0  0.17677897856E+01  0.81794960979E+02 -0.65780966901E+03  0.66760253315E+03  0.79284556499E+02 0.  0.
         23    2    1    2    0    0 -0.96113033116E+02 -0.10403973848E+03 -0.52343799954E+03  0.54990918179E+03  0.91382638071E+02 0.  0.
        -11    1    3    3    0    0  0.18543592749E+02  0.54539535334E+02 -0.18618020633E+03  0.19488841673E+03  0.00000000000E+00 0.  1.
         12    1    3    3    0    0 -0.16775802964E+02  0.27255425645E+02 -0.47162946268E+03  0.47271411642E+03  0.00000000000E+00 0. -1.
        -13    1    4    4    0    0 -0.69099345076E+02 -0.10699412133E+02 -0.25550458938E+03  0.26489958872E+03  0.00000000000E+00 0. -1.
         13    1    4    4    0    0 -0.27013688040E+02 -0.93340326344E+02 -0.26793341016E+03  0.28500959307E+03  0.00000000000E+00 0.  1.
         21    1    1    2  503  501  0.25726453903E+02  0.17333296218E+02  0.16993398566E+02  0.35370456359E+02  0.00000000000E+00 0. -1.
          1    1    1    2  501    0  0.68618789428E+02  0.49114812801E+01 -0.20885368352E+02  0.71894780910E+02  0.00000000000E+00 0. -1.
<scales pt_clust_5="13000.00000" pt_clust_6="13000.00000" pt_clust_7="13000.00000" pt_clust_8="13000.00000" pt_clust_9="31.02086" pt_clust_10="13000.00000"></scales>
<clustering>
<clus scale="   31.021">  1  9  2 -1</clus>
<clus scale="   79.285">  5  6 -1 -1</clus>
<clus scale="   91.383">  7  8 -1 -1</clus>
<clus scale="   84.997">  7 10 -1 -1</clus>
<clus scale="  115.413">  2  5  1 -1</clus>
<clus scale="   31.021">  1  5  2 -1</clus>
</clustering>
</event>
<event>
10    4  0.2866397E-005  0.2033153E+03  0.7546771E-02  0.1178024E+00
          2   -1    0    0  503    0 -0.00000000000E+00  0.00000000000E+00  0.24077905129E+03  0.24077905129E+03  0.00000000000E+00 0. -1.
         21   -1    0    0  501  502  0.00000000000E+00 -0.00000000000E+00 -0.14123045182E+03  0.14123045182E+03  0.00000000000E+00 0. -1.
         24    2    1    2    0    0 -0.71683180988E+02 -0.52361565077E+01  0.77051560434E+02  0.13109622704E+03  0.77996038412E+02 0.  0.
         23    2    1    2    0    0 -0.27089067439E+02 -0.33652829529E+02 -0.39295703135E+02  0.10995355808E+03  0.93162772284E+02 0.  0.
        -13    1    3    3    0    0 -0.36679822034E+02  0.14202627627E+02 -0.51430940451E+01  0.39668317236E+02  0.00000000000E+00 0.  1.
         14    1    3    3    0    0 -0.35003358954E+02 -0.19438784135E+02  0.82194654479E+02  0.91427909807E+02  0.00000000000E+00 0. -1.
        -11    1    4    4    0    0 -0.21589227079E+02 -0.55607073842E+02 -0.56004444307E+02  0.81821385770E+02  0.00000000000E+00 0. -1.
         11    1    4    4    0    0 -0.54998403600E+01  0.21954244313E+02  0.16708741172E+02  0.28132172310E+02  0.00000000000E+00 0.  1.
         21    1    1    2  503  502  0.44353932222E+02  0.25424213627E+02 -0.76715757354E+01  0.51696373339E+02  0.00000000000E+00 0. -1.
          1    1    1    2  501    0  0.54418316205E+02  0.13464772409E+02  0.69464317908E+02  0.89263344644E+02  0.00000000000E+00 0. -1.
<scales pt_clust_5="13000.00000" pt_clust_6="13000.00000" pt_clust_7="13000.00000" pt_clust_8="13000.00000" pt_clust_9="51.12399" pt_clust_10="13000.00000"></scales>
<clustering>
<clus scale="   51.124">  2  9  1 -1</clus>
<clus scale="   77.996">  5  6 -1 -1</clus>
<clus scale="   93.163">  7  8 -1 -1</clus>
<clus scale="   60.435">  7 10 -1 -1</clus>
<clus scale="   98.983">  1  5  2 -1</clus>
<clus scale="   51.124">  2  5  1 -1</clus>
</clustering>
</event>
<event>
10    4  0.2866397E-005  0.3733601E+03  0.7546771E-02  0.1103420E+00
         21   -1    0    0  503  502  0.00000000000E+00  0.00000000000E+00  0.13721880201E+03  0.13721880201E+03  0.00000000000E+00 0.  1.
         -1   -1    0    0    0  501 -0.00000000000E+00 -0.00000000000E+00 -0.46825750227E+03  0.46825750227E+03  0.00000000000E+00 0.  1.
         24    2    1    2    0    0 -0.44743719865E+02 -0.18775403647E+01 -0.29581786617E+02  0.98655807527E+02  0.82778986670E+02 0.  0.
         23    2    1    2    0    0  0.19926070041E+03  0.66007705398E+02 -0.19452157351E+03  0.30035585027E+03  0.91176479045E+02 0.  0.
        -11    1    3    3    0    0 -0.51009515231E+02  0.26275527996E+02 -0.53837643376E-01  0.57379237656E+02  0.00000000000E+00 0.  1.
         12    1    3    3    0    0  0.62657953662E+01 -0.28153068360E+02 -0.29527948973E+02  0.41276569870E+02  0.00000000000E+00 0. -1.
        -13    1    4    4    0    0  0.18390825916E+03  0.79760642028E+02 -0.19511047081E+03  0.27973577466E+03  0.00000000000E+00 0.  1.
         13    1    4    4    0    0  0.15352441246E+02 -0.13752936630E+02  0.58889729804E+00  0.20620075611E+02  0.00000000000E+00 0. -1.
         21    1    1    2  503  501 -0.17023453867E+02 -0.13837171637E+02  0.46011454783E+01  0.22415080641E+02  0.00000000000E+00 0.  1.
         -2    1    1    2    0  502 -0.13749352668E+03 -0.50292993397E+02 -0.11153648561E+03  0.18404956584E+03  0.00000000000E+00 0.  1.
<scales pt_clust_5="13000.00000" pt_clust_6="13000.00000" pt_clust_7="13000.00000" pt_clust_8="13000.00000" pt_clust_9="21.93776" pt_clust_10="13000.00000"></scales>
<clustering>
<clus scale="   21.938">  1  9  2 -1</clus>
<clus scale="   82.779">  5  6 -1 -1</clus>
<clus scale="   91.176">  7  8 -1 -1</clus>
<clus scale="   96.619">  2  5  1 -1</clus>
<clus scale="  172.484">  7 10 -1 -1</clus>
<clus scale="   21.938">  1  5  2 -1</clus>
</clustering>
</event>
<event>
10    4  0.2866397E-005  0.2885731E+03  0.7546771E-02  0.1123277E+00
         21   -1    0    0  503  502  0.00000000000E+00  0.00000000000E+00  0.10013597208E+03  0.10013597208E+03  0.00000000000E+00 0. -1.
          2   -1    0    0  502    0 -0.00000000000E+00 -0.00000000000E+00 -0.96651036572E+03  0.96651036572E+03  0.00000000000E+00 0. -1.
         24    2    1    2    0    0 -0.68867038129E+02 -0.67977176825E+02 -0.49829760964E+03  0.51311645376E+03  0.74996145454E+02 0.  0.
         23    2    1    2    0    0  0.38265815074E+02 -0.85272722519E+02 -0.20374401880E+03  0.24131630594E+03  0.89365678565E+02 0.  0.
        -11    1    3    3    0    0 -0.91965683070E+01 -0.59246759185E+02 -0.29646811999E+03  0.30247000102E+03  0.00000000000E+00 0.  1.
         12    1    3    3    0    0 -0.59670469822E+02 -0.87304176397E+01 -0.20182948965E+03  0.21064645275E+03  0.00000000000E+00 0. -1.
        -13    1    4    4    0    0  0.58447983701E+02 -0.55276724560E+02 -0.18235040079E+03  0.19930717936E+03  0.00000000000E+00 0. -1.
         13    1    4    4    0    0 -0.20182168627E+02 -0.29995997960E+02 -0.21393618010E+02  0.42009126576E+02  0.00000000000E+00 0.  1.
         21    1    1    2  503  501 -0.80186456876E+02  0.18149763377E+02 -0.17652758164E+02  0.84088653502E+02  0.00000000000E+00 0. -1.
          1    1    1    2  501    0  0.11078767993E+03  0.13510013597E+03 -0.14668000703E+03  0.22812492460E+03  0.00000000000E+00 0. -1.
<scales pt_clust_5="13000.00000" pt_clust_6="13000.00000" pt_clust_7="13000.00000" pt_clust_8="13000.00000" pt_clust_9="82.21485" pt_clust_10="13000.00000"></scales>
<clustering>
<clus scale="   74.996">  5  6 -1 -1</clus>
<clus scale="   82.215">  1  9  2 -1</clus>
<clus scale="   89.366">  7  8 -1 -1</clus>
<clus scale="  126.572">  2  5  1 -1</clus>
<clus scale="  119.634">  7 10 -1 -1</clus>
<clus scale="   82.215">  1  5  2 -1</clus>
</clustering>
</event>
<event>
10    4  0.2866397E-005  0.1887683E+03  0.7546771E-02  0.1186651E+00
         21   -1    0    0  503  502  0.00000000000E+00  0.00000000000E+00  0.46940128947E+03  0.46940128947E+03  0.00000000000E+00 0.  1.
         -1   -1    0    0    0  501 -0.00000000000E+00 -0.00000000000E+00 -0.24036182877E+03  0.24036182877E+03  0.00000000000E+00 0.  1.
         24    2    1    2    0    0  0.55268075476E+02 -0.28428863107E+02 -0.29241531661E+02  0.10606435659E+03  0.80819676694E+02 0.  0.
         23    2    1    2    0    0 -0.47670542491E+02 -0.10017769463E+02 -0.60983930605E+02  0.12102784169E+03  0.92497904545E+02 0.  0.
        -13    1    3    3    0    0  0.71079043263E+02 -0.27917010206E+02 -0.40697618291E+02  0.86532571814E+02  0.00000000000E+00 0.  1.
         14    1    3    3    0    0 -0.15810967787E+02 -0.51185290048E+00  0.11456086630E+02  0.19531784778E+02  0.00000000000E+00 0. -1.
        -11    1    4    4    0    0 -0.29110771472E+02 -0.29929969262E+02 -0.78321139395E+02  0.88754948887E+02  0.00000000000E+00 0.  1.
         11    1    4    4    0    0 -0.18559771018E+02  0.19912199799E+02  0.17337208791E+02  0.32272892801E+02  0.00000000000E+00 0. -1.
         21    1    1    2  503  501 -0.62877330784E+01  0.11435882262E+03  0.37265278338E+03  0.38985583599E+03  0.00000000000E+00 0.  1.
         -2    1    1    2    0  502 -0.13097999075E+01 -0.75912190047E+02 -0.53387860406E+02  0.92815083970E+02  0.00000000000E+00 0.  1.
<scales pt_clust_5="13000.00000" pt_clust_6="13000.00000" pt_clust_7="13000.00000" pt_clust_8="13000.00000" pt_clust_9="112.99828" pt_clust_10="13000.00000"></scales>
<clustering>
<clus scale="   80.820">  5  6 -1 -1</clus>
<clus scale="   92.498">  7  8 -1 -1</clus>
<clus scale="   75.924">  7 10 -1 -1</clus>
<clus scale="  101.954">  2  5  1 -1</clus>
<clus scale="  112.998">  1  9  2 -1</clus>
<clus scale="  112.998">  1  5  2 -1</clus>
</clustering>
</event>
<event>
10    4  0.2866397E-005  0.5746967E+03  0.7546771E-02  0.1061513E+00
         21   -1    0    0  501  502  0.00000000000E+00  0.00000000000E+00  0.17617568594E+03  0.17617568594E+03  0.00000000000E+00 0. -1.
          2   -1    0    0  503    0 -0.00000000000E+00 -0.00000000000E+00 -0.13981603129E+04  0.13981603129E+04  0.00000000000E+00 0. -1.
         24    2    1    2    0    0  0.79402216392E+01  0.18016690508E+02 -0.17166230023E+03  0.19003820504E+03  0.79113373077E+02 0.  0.
         23    2    1    2    0    0  0.15233364739E+03 -0.18976576870E+03 -0.60559467959E+03  0.65879672216E+03  0.89730808984E+02 0.  0.
        -13    1    3    3    0    0  0.35846300966E+02  0.13917845896E+02 -0.40380430475E+02  0.55760585477E+02  0.00000000000E+00 0.  1.
         14    1    3    3    0    0 -0.27906079327E+02  0.40988446120E+01 -0.13128186975E+03  0.13427761957E+03  0.00000000000E+00 0. -1.
        -13    1    4    4    0    0  0.11338400092E+03 -0.10537259436E+03 -0.27705655923E+03  0.31736359640E+03  0.00000000000E+00 0.  1.
         13    1    4    4    0    0  0.38949646466E+02 -0.84393174339E+02 -0.32853812036E+03  0.34143312576E+03  0.00000000000E+00 0. -1.
         21    1    1    2  503  502 -0.18627551722E+03 -0.12195372593E+03 -0.42319068334E+02  0.22663226409E+03  0.00000000000E+00 0. -1.
          1    1    1    2  501    0  0.26001648195E+02  0.29370280412E+03 -0.40240857882E+03  0.49886880757E+03  0.00000000000E+00 0. -1.
<scales pt_clust_5="13000.00000" pt_clust_6="13000.00000" pt_clust_7="13000.00000" pt_clust_8="13000.00000" pt_clust_9="220.82522" pt_clust_10="13000.00000"></scales>
<clustering>
<clus scale="   79.113">  5  6 -1 -1</clus>
<clus scale="   81.527">  2  5  1 -1</clus>
<clus scale="   89.731">  7  8 -1 -1</clus>
<clus scale="  220.825">  1  9  2 -1</clus>
<clus scale="  241.233">  7 10 -1 -1</clus>
<clus scale="  220.825">  1  5  2 -1</clus>
</clustering>
</event>
<event>
10    4  0.2866397E-005  0.3025357E+03  0.7546771E-02  0.1135897E+00
          2   -1    0    0  503    0 -0.00000000000E+00  0.00000000000E+00  0.25917108390E+03  0.25917108390E+03  0.00000000000E+00 0. -1.
         21   -1    0    0  501  502  0.00000000000E+00 -0.00000000000E+00 -0.19530229012E+03  0.19530229012E+03  0.00000000000E+00 0. -1.
         24    2    1    2    0    0  0.63125884694E+01  0.22901025995E+01 -0.45657920825E+02  0.92491170425E+02  0.80155333756E+02 0.  0.
         23    2    1    2    0    0  0.40578471209E+02  0.93611581579E+02 -0.25118242146E+02  0.13881851351E+03  0.90718868345E+02 0.  0.
        -13    1    3    3    0    0  0.34649517525E+02 -0.11850253580E+02  0.36880363895E+00  0.36621763895E+02  0.00000000000E+00 0.  1.
         14    1    3    3    0    0 -0.28336929056E+02  0.14140356179E+02 -0.46026724464E+02  0.55869406530E+02  0.00000000000E+00 0. -1.
        -11    1    4    4    0    0  0.68054988673E+02  0.66532974103E+02 -0.49877297836E+01  0.95304751060E+02  0.00000000000E+00 0. -1.
         11    1    4    4    0    0 -0.27476517464E+02  0.27078607476E+02 -0.20130512362E+02  0.43513762452E+02  0.00000000000E+00 0.  1.
         21    1    1    2  503  502 -0.21503156452E+02  0.12950577769E+02 -0.20180117232E+02  0.32207768216E+02  0.00000000000E+00 0. -1.
          1    1    1    2  501    0 -0.25387903226E+02 -0.10885226195E+03  0.15482507398E+03  0.19095592186E+03  0.00000000000E+00 0. -1.
<scales pt_clust_5="13000.00000" pt_clust_6="13000.00000" pt_clust_7="13000.00000" pt_clust_8="13000.00000" pt_clust_9="25.10186" pt_clust_10="13000.00000"></scales>
<clustering>
<clus scale="   25.102">  2  9  1 -1</clus>
<clus scale="   80.155">  5  6 -1 -1</clus>
<clus scale="   80.551">  1  5  2 -1</clus>
<clus scale="   90.719">  7  8 -1 -1</clus>
<clus scale="  106.083">  7 10 -1 -1</clus>
<clus scale="   25.102">  2  5  1 -1</clus>
</clustering>
</event>
<event>
10    4  0.2866397E-005  0.1353695E+04  0.7546771E-02  0.9479549E-01
         21   -1    0    0  501  502  0.00000000000E+00  0.00000000000E+00  0.56606901837E+03  0.56606901837E+03  0.00000000000E+00 0. -1.
          2   -1    0    0  503    0 -0.00000000000E+00 -0.00000000000E+00 -0.13735326564E+04  0.13735326564E+04  0.00000000000E+00 0. -1.
         24    2    1    2    0    0  0.10998923765E+03 -0.17694011119E+03 -0.34566911930E+03  0.40998198849E+03  0.72060082610E+02 0.  0.
         23    2    1    2    0    0  0.23938404801E+03 -0.26556942696E+03 -0.78102678148E+03  0.86363956544E+03  0.89658366219E+02 0.  0.
        -13    1    3    3    0    0 -0.99360555814E+01 -0.23091900852E+02 -0.33621607852E+02  0.41980633631E+02  0.00000000000E+00 0.  1.
         14    1    3    3    0    0  0.11992529324E+03 -0.15384821033E+03 -0.31204751145E+03  0.36800135486E+03  0.00000000000E+00 0. -1.
        -13    1    4    4    0    0  0.15430491530E+03 -0.10973412895E+03 -0.44452139573E+03  0.48316752499E+03  0.00000000000E+00 0. -1.
         13    1    4    4    0    0  0.85079132707E+02 -0.15583529801E+03 -0.33650538575E+03  0.38047204045E+03  0.00000000000E+00 0.  1.
         21    1    1    2  503  502 -0.17536159424E+02  0.25171211163E+02  0.72000669490E+02  0.78263677180E+02  0.00000000000E+00 0. -1.
          1    1    1    2  501    0 -0.33183712624E+03  0.41733832698E+03  0.24723159321E+03  0.58771644370E+03  0.00000000000E+00 0. -1.
<scales pt_clust_5="13000.00000" pt_clust_6="13000.00000" pt_clust_7="13000.00000" pt_clust_8="13000.00000" pt_clust_9="30.67746" pt_clust_10="13000.00000"></scales>
<clustering>
<clus scale="   30.677">  1  9  2 -1</clus>
<clus scale="   72.060">  5  6 -1 -1</clus>
<clus scale="   89.658">  7  8 -1 -1</clus>
<clus scale="  218.554">  2  5  1 -1</clus>
<clus scale="  520.374">  7 10 -1 -1</clus>
<clus scale="   30.677">  1  5  2 -1</clus>
</clustering>
</event>
<event>
10    4  0.2866397E-005  0.1479347E+03  0.7546771E-02  0.1229655E+00
         21   -1    0    0  501  502  0.00000000000E+00  0.00000000000E+00  0.43989343308E+02  0.43989343308E+02  0.00000000000E+00 0. -1.
          4   -1    0    0  503    0 -0.00000000000E+00 -0.00000000000E+00 -0.91556404765E+03  0.91556404765E+03  0.00000000000E+00 0. -1.
         24    2    1    2    0    0  0.21190235565E+02 -0.17571360818E+02 -0.54915234102E+03  0.55571512115E+03  0.80580539941E+02 0.  0.
         23    2    1    2    0    0  0.48029307791E+01  0.92637535867E+01 -0.58535070957E+02  0.10833565113E+03  0.90561434942E+02 0.  0.
        -13    1    3    3    0    0 -0.30500399978E+02 -0.20383504156E+01 -0.16771630501E+03  0.17047928976E+03  0.00000000000E+00 0.  1.
         14    1    3    3    0    0  0.51690635543E+02 -0.15533010403E+02 -0.38143603601E+03  0.38523583138E+03  0.00000000000E+00 0. -1.
        -13    1    4    4    0    0  0.19986305915E+02 -0.55646644266E+01  0.18887895554E+02  0.28056559176E+02  0.00000000000E+00 0. -1.
         13    1    4    4    0    0 -0.15183375136E+02  0.14828418013E+02 -0.77422966511E+02  0.80279091952E+02  0.00000000000E+00 0.  1.
         21    1    1    2  503  502  0.23409001482E+01  0.61286322319E+02 -0.19336501131E+03  0.20285837601E+03  0.00000000000E+00 0. -1.
          3    1    1    2  501    0 -0.28334066492E+02 -0.52978715087E+02 -0.70522281054E+02  0.92644242678E+02  0.00000000000E+00 0. -1.
<scales pt_clust_5="13000.00000" pt_clust_6="13000.00000" pt_clust_7="13000.00000" pt_clust_8="13000.00000" pt_clust_9="61.33104" pt_clust_10="13000.00000"></scales>
<clustering>
<clus scale="   61.331">  1  9  2 -1</clus>
<clus scale="   80.581">  5  6 -1 -1</clus>
<clus scale="   84.294">  2  5  1 -1</clus>
<clus scale="   90.561">  7  8 -1 -1</clus>
<clus scale="   44.809">  7 10 -1 -1</clus>
<clus scale="   61.331">  1  5  2 -1</clus>
</clustering>
</event>
<event>
10    4  0.2866397E-005  0.5802327E+03  0.7546771E-02  0.1019317E+00
          2   -1    0    0  502    0 -0.00000000000E+00  0.00000000000E+00  0.32244649588E+04  0.32244649588E+04  0.00000000000E+00 0. -1.
         21   -1    0    0  503  502  0.00000000000E+00 -0.00000000000E+00 -0.81793368541E+02  0.81793368541E+02  0.00000000000E+00 0. -1.
         24    2    1    2    0    0 -0.26275466320E+03  0.19108711529E+01  0.34599325564E+03  0.44166439097E+03  0.79450845425E+02 0.  0.
         23    2    1    2    0    0  0.54045251625E+02  0.24102769580E+03  0.97252242837E+03  0.10075557896E+04  0.91397790860E+02 0.  0.
        -11    1    3    3    0    0 -0.70836537886E+02 -0.22997184061E+02  0.56681108193E+02  0.93591845801E+02  0.00000000000E+00 0.  1.
         12    1    3    3    0    0 -0.19191812531E+03  0.24908055214E+02  0.28931214745E+03  0.34807254516E+03  0.00000000000E+00 0. -1.
        -13    1    4    4    0    0  0.51721490466E+02  0.14901403243E+03  0.44653036806E+03  0.47357118160E+03  0.00000000000E+00 0.  1.
         13    1    4    4    0    0  0.23237611587E+01  0.92013663371E+02  0.52599206031E+03  0.53398460804E+03  0.00000000000E+00 0. -1.
         21    1    1    2  503  501  0.75913178440E+01 -0.20430628432E+02  0.25494256212E+02  0.33540956822E+02  0.00000000000E+00 0. -1.
          1    1    1    2  501    0  0.20111809373E+03 -0.22250793852E+03  0.17986616500E+04  0.18234971899E+04  0.00000000000E+00 0. -1.
<scales pt_clust_5="13000.00000" pt_clust_6="13000.00000" pt_clust_7="13000.00000" pt_clust_8="13000.00000" pt_clust_9="21.79538" pt_clust_10="13000.00000"></scales>
<clustering>
<clus scale="   21.795">  2  9  1 -1</clus>
<clus scale="   79.451">  5  6 -1 -1</clus>
<clus scale="   91.398">  7  8 -1 -1</clus>
<clus scale="  270.248">  1  5  2 -1</clus>
<clus scale="  235.069">  7 10 -1 -1</clus>
<clus scale="   21.795">  2  5  1 -1</clus>
</clustering>
</event>
<event>
10    4  0.2866397E-005  0.3772850E+03  0.7546771E-02  0.1079405E+00
         21   -1    0    0  501  502  0.00000000000E+00  0.00000000000E+00  0.32813292123E+03  0.32813292123E+03  0.00000000000E+00 0. -1.
          2   -1    0    0  503    0 -0.00000000000E+00 -0.00000000000E+00 -0.12530233973E+04  0.12530233973E+04  0.00000000000E+00 0. -1.
         24    2    1    2    0    0 -0.39999889042E+02  0.14561644746E+03 -0.32977176018E+03  0.37108197729E+03  0.78410963299E+02 0.  0.
         23    2    1    2    0    0 -0.14573377393E+03 -0.71523895015E+02 -0.51134704857E+03  0.54387748988E+03  0.89291206154E+02 0.  0.
        -11    1    3    3    0    0 -0.28907678151E+02  0.66545564981E+01 -0.75220796882E+02  0.80858550950E+02  0.00000000000E+00 0.  1.
         12    1    3    3    0    0 -0.11092210890E+02  0.13896189096E+03 -0.25455096330E+03  0.29022342634E+03  0.00000000000E+00 0. -1.
        -13    1    4    4    0    0 -0.86293919947E+02 -0.42195215204E+02 -0.16232325706E+03  0.18861579093E+03  0.00000000000E+00 0. -1.
         13    1    4    4    0    0 -0.59439853987E+02 -0.29328679811E+02 -0.34902379152E+03  0.35526169896E+03  0.00000000000E+00 0.  1.
         21    1    1    2  503  502  0.22546652398E+02  0.26841435170E+02  0.26543844320E+03  0.26774312560E+03  0.00000000000E+00 0. -1.
          1    1    1    2  501    0  0.16318701058E+03 -0.10093398761E+03 -0.34921011051E+03  0.39845372574E+03  0.00000000000E+00 0. -1.
<scales pt_clust_5="13000.00000" pt_clust_6="13000.00000" pt_clust_7="13000.00000" pt_clust_8="13000.00000" pt_clust_9="35.05445" pt_clust_10="13000.00000"></scales>
<clustering>
<clus scale="   35.054">  1  9  2 -1</clus>
<clus scale="   78.411">  5  6 -1 -1</clus>
<clus scale="   89.291">  7  8 -1 -1</clus>
<clus scale="  176.378">  2  5  1 -1</clus>
<clus scale="  159.427">  7 10 -1 -1</clus>
<clus scale="   35.054">  1  5  2 -1</clus>
</clustering>
</event>
<event>
10    4  0.2866397E-005  0.1386781E+03  0.7546771E-02  0.1229925E+00
          2   -1    0    0  502    0 -0.00000000000E+00  0.00000000000E+00  0.15392245818E+04  0.15392245818E+04  0.00000000000E+00 0. -1.
         21   -1    0    0  503  502  0.00000000000E+00 -0.00000000000E+00 -0.27605610742E+02  0.27605610742E+02  0.00000000000E+00 0. -1.
         24    2    1    2    0    0  0.15204898403E+02 -0.63886227494E+02  0.11921858055E+04  0.11968977060E+04  0.83333574326E+02 0.  0.
         23    2    1    2    0    0 -0.12786831846E+02 -0.15152292012E+02  0.16332534812E+03  0.18856116606E+03  0.92125181054E+02 0.  0.
        -13    1    3    3    0    0 -0.16984761767E+02 -0.36309831769E+02  0.20964191055E+03  0.21343996035E+03  0.00000000000E+00 0.  1.
         14    1    3    3    0    0  0.32189660170E+02 -0.27576395724E+02  0.98254389499E+03  0.98345774561E+03  0.00000000000E+00 0. -1.
        -11    1    4    4    0    0  0.14843878418E+02  0.25349158196E+02  0.11864502382E+03  0.12222750192E+03  0.00000000000E+00 0.  1.
         11    1    4    4    0    0 -0.27630710265E+02 -0.40501450207E+02  0.44680324300E+02  0.66333664140E+02  0.00000000000E+00 0. -1.
         21    1    1    2  503  501 -0.24504042148E+01  0.52397155030E+02  0.51820529848E+02  0.73734887602E+02  0.00000000000E+00 0. -1.
          1    1    1    2  501    0  0.32337658071E-01  0.26641364476E+02  0.10428728753E+03  0.10763643289E+03  0.00000000000E+00 0. -1.
<scales pt_clust_5="13000.00000" pt_clust_6="13000.00000" pt_clust_7="13000.00000" pt_clust_8="13000.00000" pt_clust_9="52.45442" pt_clust_10="13000.00000"></scales>
<clustering>
<clus scale="   52.454">  2  9  1 -1</clus>
<clus scale="   83.334">  5  6 -1 -1</clus>
<clus scale="   92.125">  7  8 -1 -1</clus>
<clus scale="   31.912">  7 10 -1 -1</clus>
<clus scale="  101.756">  1  5  2 -1</clus>
<clus scale="   52.454">  2  5  1 -1</clus>
</clustering>
</event>
<event>
10    4  0.2866397E-005  0.2591584E+03  0.7546771E-02  0.1133740E+00
          2   -1    0    0  502    0 -0.00000000000E+00  0.00000000000E+00  0.15569221265E+04  0.15569221265E+04  0.00000000000E+00 0. -1.
         21   -1    0    0  503  502  0.00000000000E+00 -0.00000000000E+00 -0.12073201365E+03  0.12073201365E+03  0.00000000000E+00 0.  1.
         24    2    1    2    0    0 -0.12809803704E+03 -0.48522049473E+01  0.33324812895E+03  0.36515497140E+03  0.76493050026E+02 0.  0.
         23    2    1    2    0    0  0.16411688016E+01  0.96136941129E+02  0.62492474495E+03  0.63896586641E+03  0.92203235876E+02 0.  0.
        -11    1    3    3    0    0 -0.48613754320E+02  0.34804713647E+02  0.11751675530E+03  0.13185163244E+03  0.00000000000E+00 0.  1.
         12    1    3    3    0    0 -0.79484282719E+02 -0.39656918595E+02  0.21573137365E+03  0.23330333896E+03  0.00000000000E+00 0. -1.
        -11    1    4    4    0    0  0.43769520492E+02  0.70115606699E+02  0.35093081824E+03  0.36053350526E+03  0.00000000000E+00 0. -1.
         11    1    4    4    0    0 -0.42128351690E+02  0.26021334430E+02  0.27399392671E+03  0.27843236115E+03  0.00000000000E+00 0.  1.
         21    1    1    2  503  501  0.32382554680E+02 -0.15988678847E+02 -0.87847509967E+02  0.94981328199E+02  0.00000000000E+00 0.  1.
          1    1    1    2  501    0  0.94074313557E+02 -0.75296057334E+02  0.56586474887E+03  0.57855197410E+03  0.00000000000E+00 0. -1.
<scales pt_clust_5="13000.00000" pt_clust_6="13000.00000" pt_clust_7="13000.00000" pt_clust_8="13000.00000" pt_clust_9="36.11465" pt_clust_10="13000.00000"></scales>
<clustering>
<clus scale="   36.115">  2  9  1 -1</clus>
<clus scale="   76.493">  5  6 -1 -1</clus>
<clus scale="   92.203">  7  8 -1 -1</clus>
<clus scale="  128.140">  7 10 -1 -1</clus>
<clus scale="  135.056">  1  5  2 -1</clus>
<clus scale="   36.115">  2  5  1 -1</clus>
</clustering>
</event>
<event>
10    4  0.2866397E-005  0.1469151E+03  0.7546771E-02  0.1225538E+00
          2   -1    0    0  502    0 -0.00000000000E+00  0.00000000000E+00  0.17850120216E+04  0.17850120216E+04  0.00000000000E+00 0. -1.
         21   -1    0    0  503  502  0.00000000000E+00 -0.00000000000E+00 -0.11403815978E+03  0.11403815978E+03  0.00000000000E+00 0. -1.
         24    2    1    2    0    0 -0.17366003386E+01 -0.27040755377E+02  0.13091889214E+04  0.13126424942E+04  0.91216596606E+02 0.  0.
         23    2    1    2    0    0 -0.55399824632E+02  0.18435172390E+02  0.26664230298E+03  0.28847349793E+03  0.93326550992E+02 0.  0.
        -11    1    3    3    0    0  0.12640499754E+02  0.19749337287E+02  0.11078309837E+03  0.11323742068E+03  0.00000000000E+00 0.  1.
         12    1    3    3    0    0 -0.14377100092E+02 -0.46790092664E+02  0.11984058230E+04  0.11994050735E+04  0.00000000000E+00 0. -1.
        -11    1    4    4    0    0 -0.14848181300E+01  0.43937747749E+02  0.67189731065E+02  0.80294397829E+02  0.00000000000E+00 0.  1.
         11    1    4    4    0    0 -0.53915006502E+02 -0.25502575359E+02  0.19945257191E+03  0.20817910010E+03  0.00000000000E+00 0. -1.
         21    1    1    2  503  501  0.66009656076E+02  0.57445018380E+02 -0.78364687693E+02  0.11746586359E+03  0.00000000000E+00 0. -1.
          1    1    1    2  501    0 -0.88732311050E+01 -0.48839435393E+02  0.17350732512E+03  0.18046832561E+03  0.00000000000E+00 0. -1.
<scales pt_clust_5="13000.00000" pt_clust_6="13000.00000" pt_clust_7="13000.00000" pt_clust_8="13000.00000" pt_clust_9="87.50546" pt_clust_10="13000.00000"></scales>
<clustering>
<clus scale="   87.505">  2  9  1 -1</clus>
<clus scale="   91.217">  5  6 -1 -1</clus>
<clus scale="   93.327">  7  8 -1 -1</clus>
<clus scale="   36.833">  7 10 -1 -1</clus>
<clus scale="   93.730">  1  5  2 -1</clus>
<clus scale="   87.505">  2  5  1 -1</clus>
</clustering>
</event>
<event>
10    4  0.2866397E-005  0.1571472E+04  0.7546771E-02  0.9169564E-01
         -1   -1    0    0    0  501 -0.00000000000E+00  0.00000000000E+00  0.15569086618E+04  0.15569086618E+04  0.00000000000E+00 0.  1.
         21   -1    0    0  503  502  0.00000000000E+00 -0.00000000000E+00 -0.12623763009E+04  0.12623763009E+04  0.00000000000E+00 0.  1.
         24    2    1    2    0    0 -0.39151194618E+03 -0.22151723211E+03 -0.59298886405E+03  0.74871322589E+03  0.81143167371E+02 0.  0.
         23    2    1    2    0    0  0.24014390459E+03 -0.45391954623E+03 -0.10443976451E+03  0.53199781111E+03  0.91662190992E+02 0.  0.
        -11    1    3    3    0    0 -0.33142046950E+03 -0.15076444497E+03 -0.48052319499E+03  0.60288637934E+03  0.00000000000E+00 0.  1.
         12    1    3    3    0    0 -0.60091476687E+02 -0.70752787138E+02 -0.11246566906E+03  0.14582684655E+03  0.00000000000E+00 0. -1.
        -13    1    4    4    0    0  0.57003900317E+02 -0.10760611676E+03 -0.65606694359E+02  0.13832121804E+03  0.00000000000E+00 0.  1.
         13    1    4    4    0    0  0.18314000427E+03 -0.34631342947E+03 -0.38833070154E+02  0.39367659307E+03  0.00000000000E+00 0. -1.
         21    1    1    2  503  501  0.66365600329E+02 -0.25794840629E+02 -0.16687213017E+03  0.18142787696E+03  0.00000000000E+00 0.  1.
         -2    1    1    2    0  502  0.85002441264E+02  0.70123161897E+03  0.11588331196E+04  0.13571460487E+04  0.00000000000E+00 0.  1.
<scales pt_clust_5="13000.00000" pt_clust_6="13000.00000" pt_clust_7="13000.00000" pt_clust_8="13000.00000" pt_clust_9="71.20229" pt_clust_10="13000.00000"></scales>
<clustering>
<clus scale="   71.202">  2  9  1 -1</clus>
<clus scale="   81.143">  5  6 -1 -1</clus>
<clus scale="   91.662">  7  8 -1 -1</clus>
<clus scale="  431.129">  1  5  2 -1</clus>
<clus scale="  538.844">  7 10 -1 -1</clus>
<clus scale="   71.202">  2  5  1 -1</clus>
</clustering>
</event>
<event>
10    4  0.2866397E-005  0.2182250E+03  0.7546771E-02  0.1164210E+00
          4   -1    0    0  502    0 -0.00000000000E+00  0.00000000000E+00  0.30561097489E+03  0.30561097489E+03  0.00000000000E+00 0. -1.
         21   -1    0    0  503  502  0.00000000000E+00 -0.00000000000E+00 -0.27449443714E+03  0.27449443714E+03  0.00000000000E+00 0.  1.
         24    2    1    2    0    0 -0.18967832832E+02 -0.79327726379E+02  0.19805448905E+03  0.22789028837E+03  0.77818609905E+02 0.  0.
         23    2    1    2    0    0  0.12307649668E+02  0.10098298607E+03  0.51834825325E+01  0.13788763636E+03  0.92935945972E+02 0.  0.
        -13    1    3    3    0    0  0.28732688296E+02 -0.19183447785E+02  0.45695744972E+02  0.57285889660E+02  0.00000000000E+00 0.  1.
         14    1    3    3    0    0 -0.47700521128E+02 -0.60144278594E+02  0.15235874407E+03  0.17060439871E+03  0.00000000000E+00 0. -1.
        -11    1    4    4    0    0  0.41729995720E+02  0.99104888950E+02  0.10072054932E+02  0.10800286037E+03  0.00000000000E+00 0.  1.
         11    1    4    4    0    0 -0.29422346051E+02  0.18780971161E+01 -0.48885723994E+01  0.29884775991E+02  0.00000000000E+00 0. -1.
         21    1    1    2  503  501 -0.41025148123E+01  0.40728487209E+02 -0.13471403022E+03  0.14079598800E+03  0.00000000000E+00 0.  1.
          3    1    1    2  501    0  0.10762697976E+02 -0.62383746896E+02 -0.37407403615E+02  0.73531499303E+02  0.00000000000E+00 0. -1.
<scales pt_clust_5="13000.00000" pt_clust_6="13000.00000" pt_clust_7="13000.00000" pt_clust_8="13000.00000" pt_clust_9="40.93459" pt_clust_10="13000.00000"></scales>
<clustering>
<clus scale="   40.935">  2  9  1 -1</clus>
<clus scale="   77.819">  5  6 -1 -1</clus>
<clus scale="   92.936">  7  8 -1 -1</clus>
<clus scale="   46.756">  7 10 -1 -1</clus>
<clus scale="  109.729">  1  5  2 -1</clus>
<clus scale="   40.935">  2  5  1 -1</clus>
</clustering>
</event>
<event>
10    4  0.2866397E-005  0.3866998E+03  0.7546771E-02  0.1076493E+00
          4   -1    0    0  503    0 -0.00000000000E+00  0.00000000000E+00  0.61032213176E+03  0.61032213176E+03  0.00000000000E+00 0. -1.
         21   -1    0    0  501  502  0.00000000000E+00 -0.00000000000E+00 -0.24313118187E+03  0.24313118187E+03  0.00000000000E+00 0. -1.
         24    2    1    2    0    0 -0.56761192403E+02 -0.16287535926E+03  0.56029032302E+02  0.20045659081E+03  0.85401268857E+02 0.  0.
         23    2    1    2    0    0  0.33545155531E+02  0.22830583148E+03  0.16581989639E+03  0.29720249579E+03  0.87087630112E+02 0.  0.
        -13    1    3    3    0    0 -0.36256322079E+01 -0.39223939097E+02  0.52746196472E+02  0.65831784493E+02  0.00000000000E+00 0.  1.
         14    1    3    3    0    0 -0.53135560196E+02 -0.12365142016E+03  0.32828358299E+01  0.13462480632E+03  0.00000000000E+00 0. -1.
        -13    1    4    4    0    0 -0.29459829441E+02  0.66076981260E+02  0.42514367312E+02  0.83913767828E+02  0.00000000000E+00 0.  1.
         13    1    4    4    0    0  0.63004984973E+02  0.16222885022E+03  0.12330552908E+03  0.21328872796E+03  0.00000000000E+00 0. -1.
         21    1    1    2  503  502  0.15132506262E+02  0.31937360080E+02 -0.92309089546E+02  0.98843086392E+02  0.00000000000E+00 0. -1.
          3    1    1    2  501    0  0.80835306100E+01 -0.97367832299E+02  0.23765111075E+03  0.25695114063E+03  0.00000000000E+00 0. -1.
<scales pt_clust_5="13000.00000" pt_clust_6="13000.00000" pt_clust_7="13000.00000" pt_clust_8="13000.00000" pt_clust_9="35.34102" pt_clust_10="13000.00000"></scales>
<clustering>
<clus scale="   35.341">  2  9  1 -1</clus>
<clus scale="   85.401">  5  6 -1 -1</clus>
<clus scale="   87.088">  7  8 -1 -1</clus>
<clus scale="   95.710">  7 10 -1 -1</clus>
<clus scale="  177.230">  1  5  2 -1</clus>
<clus scale="   35.341">  2  5  1 -1</clus>
</clustering>
</event>
<event>
10    4  0.2866397E-005  0.7789475E+03  0.7546771E-02  0.1013727E+00
          2   -1    0    0  503    0 -0.00000000000E+00  0.00000000000E+00  0.73873437243E+03  0.73873437243E+03  0.00000000000E+00 0. -1.
         21   -1    0    0  501  502  0.00000000000E+00 -0.00000000000E+00 -0.63032451888E+03  0.63032451888E+03  0.00000000000E+00 0. -1.
         24    2    1    2    0    0 -0.10376490107E+03  0.13079596400E+01  0.14643982992E+03  0.19745131605E+03  0.82301476098E+02 0.  0.
         23    2    1    2    0    0 -0.18699093719E+03  0.20338811340E+03  0.22881851454E+03  0.36956759237E+03  0.88825432570E+02 0.  0.
        -11    1    3    3    0    0 -0.35554651220E+02  0.36301827189E+02  0.85746353613E+02  0.99671425386E+02  0.00000000000E+00 0.  1.
         12    1    3    3    0    0 -0.68210249852E+02 -0.34993867549E+02  0.60693476309E+02  0.97779890659E+02  0.00000000000E+00 0. -1.
        -11    1    4    4    0    0 -0.83372576236E+02  0.36985819824E+02  0.98123041773E+02  0.13396666997E+03  0.00000000000E+00 0.  1.
         11    1    4    4    0    0 -0.10361836095E+03  0.16640229358E+03  0.13069547277E+03  0.23560092240E+03  0.00000000000E+00 0. -1.
         21    1    1    2  503  502 -0.12980893914E+03 -0.29195679881E+03 -0.16923592626E+03  0.36156594390E+03  0.00000000000E+00 0. -1.
          1    1    1    2  501    0  0.42056477740E+03  0.87260725773E+02 -0.97612564650E+02  0.44047403899E+03  0.00000000000E+00 0. -1.
<scales pt_clust_5="13000.00000" pt_clust_6="13000.00000" pt_clust_7="13000.00000" pt_clust_8="13000.00000" pt_clust_9="326.86424" pt_clust_10="13000.00000"></scales>
<clustering>
<clus scale="   82.301">  5  6 -1 -1</clus>
<clus scale="   88.825">  7  8 -1 -1</clus>
<clus scale="  132.448">  1  5  2 -1</clus>
<clus scale="  326.864">  2  9  1 -1</clus>
<clus scale="  309.043">  7 10 -1 -1</clus>
<clus scale="  326.864">  2  5  1 -1</clus>
</clustering>
</event>
<event>
10    4  0.2866397E-005  0.4662543E+03  0.7546771E-02  0.1059635E+00
         21   -1    0    0  501  502  0.00000000000E+00  0.00000000000E+00  0.77701679415E+03  0.77701679415E+03  0.00000000000E+00 0. -1.
          2   -1    0    0  503    0 -0.00000000000E+00 -0.00000000000E+00 -0.21156602352E+04  0.21156602352E+04  0.00000000000E+00 0. -1.
         24    2    1    2    0    0 -0.10214406366E+03 -0.94042576774E+02 -0.42409355206E+03  0.45358801385E+03  0.81297782384E+02 0.  0.
         23    2    1    2    0    0  0.12036872041E+03 -0.14813685052E+03 -0.78228073780E+03  0.81041601129E+03  0.91530340816E+02 0.  0.
        -11    1    3    3    0    0 -0.71134868871E+02 -0.41372389606E+02 -0.33883414199E+03  0.34868383956E+03  0.00000000000E+00 0.  1.
         12    1    3    3    0    0 -0.31009194793E+02 -0.52670187168E+02 -0.85259410067E+02  0.10490417429E+03  0.00000000000E+00 0. -1.
        -11    1    4    4    0    0  0.70803020589E+02 -0.85224923238E+02 -0.61559700219E+03  0.62548862849E+03  0.00000000000E+00 0. -1.
         11    1    4    4    0    0  0.49565699821E+02 -0.62911927278E+02 -0.16668373561E+03  0.18492738280E+03  0.00000000000E+00 0.  1.
         21    1    1    2  503  502 -0.27454355706E+03  0.66521062109E+02  0.69218311159E+03  0.74760730092E+03  0.00000000000E+00 0. -1.
          1    1    1    2  501    0  0.25631890031E+03  0.17565836518E+03 -0.82445226281E+03  0.88106570332E+03  0.00000000000E+00 0. -1.
<scales pt_clust_5="13000.00000" pt_clust_6="13000.00000" pt_clust_7="13000.00000" pt_clust_8="13000.00000" pt_clust_9="283.76860" pt_clust_10="13000.00000"></scales>
<clustering>
<clus scale="   81.298">  5  6 -1 -1</clus>
<clus scale="   91.530">  7  8 -1 -1</clus>
<clus scale="  160.894">  2  5  1 -1</clus>
<clus scale="  241.059">  7 10 -1 -1</clus>
<clus scale="  283.769">  1  9  2 -1</clus>
<clus scale="  283.769">  1  5  2 -1</clus>
</clustering>
</event>
<event>
10    4  0.2866397E-005  0.7111791E+03  0.7546771E-02  0.1024305E+00
          2   -1    0    0  503    0 -0.00000000000E+00  0.00000000000E+00  0.21772497330E+04  0.21772497330E+04  0.00000000000E+00 0. -1.
         21   -1    0    0  501  502  0.00000000000E+00 -0.00000000000E+00 -0.13405434732E+03  0.13405434732E+03  0.00000000000E+00 0.  1.
         24    2    1    2    0    0 -0.52832847332E+02 -0.83550385290E+02  0.90130164112E+03  0.91020514089E+03  0.79729377194E+02 0.  0.
         23    2    1    2    0    0 -0.15565261071E+03  0.33608968968E+03  0.63458828086E+03  0.74023468102E+03  0.89783528818E+02 0.  0.
        -13    1    3    3    0    0  0.17965058519E+02 -0.12309635402E+02  0.84899903046E+02  0.87648525307E+02  0.00000000000E+00 0.  1.
         14    1    3    3    0    0 -0.70797905852E+02 -0.71240749888E+02  0.81640173807E+03  0.82255661559E+03  0.00000000000E+00 0. -1.
        -13    1    4    4    0    0  0.29826983094E+01  0.45116331393E+02  0.11923108387E+03  0.12751639584E+03  0.00000000000E+00 0. -1.
         13    1    4    4    0    0 -0.15863530902E+03  0.29097335828E+03  0.51535719699E+03  0.61271828518E+03  0.00000000000E+00 0.  1.
         21    1    1    2  503  502  0.18439058938E+02  0.14187008741E+02 -0.26084611711E+02  0.34952497473E+02  0.00000000000E+00 0.  1.
          1    1    1    2  501    0  0.19004639910E+03 -0.26672631313E+03  0.53339007538E+03  0.62591176091E+03  0.00000000000E+00 0. -1.
<scales pt_clust_5="13000.00000" pt_clust_6="13000.00000" pt_clust_7="13000.00000" pt_clust_8="13000.00000" pt_clust_9="23.26521" pt_clust_10="13000.00000"></scales>
<clustering>
<clus scale="   23.265">  2  9  1 -1</clus>
<clus scale="   79.729">  5  6 -1 -1</clus>
<clus scale="   89.784">  7  8 -1 -1</clus>
<clus scale="  126.270">  1  5  2 -1</clus>
<clus scale="  345.447">  7 10 -1 -1</clus>
<clus scale="   23.265">  2  5  1 -1</clus>
</clustering>
</event>
<event>
10    4  0.2866397E-005  0.4907069E+03  0.7546771E-02  0.1048742E+00
          2   -1    0    0  503    0 -0.00000000000E+00  0.00000000000E+00  0.29545876388E+04  0.29545876388E+04  0.00000000000E+00 0. -1.
         21   -1    0    0  501  502  0.00000000000E+00 -0.00000000000E+00 -0.70129654821E+02  0.70129654821E+02  0.00000000000E+00 0. -1.
         24    2    1    2    0    0 -0.84898798825E+02 -0.16012417656E+03  0.85478079343E+03  0.87742668760E+03  0.79873833890E+02 0.  0.
         23    2    1    2    0    0 -0.11154475544E+03  0.24927145292E+03  0.10957116040E+04  0.11329756331E+04  0.92040079915E+02 0.  0.
        -13    1    3    3    0    0 -0.79420465164E+02 -0.75619115640E+02  0.39639609498E+03  0.41128545446E+03  0.00000000000E+00 0.  1.
         14    1    3    3    0    0 -0.54783336613E+01 -0.84505060924E+02  0.45838469845E+03  0.46614123314E+03  0.00000000000E+00 0. -1.
        -11    1    4    4    0    0 -0.71311415757E+01  0.89872812592E+02  0.24178016702E+03  0.25804190510E+03  0.00000000000E+00 0.  1.
         11    1    4    4    0    0 -0.10441361387E+03  0.15939864033E+03  0.85393143699E+03  0.87493372799E+03  0.00000000000E+00 0. -1.
         21    1    1    2  503  502  0.42334296849E+02  0.22398559267E+02 -0.12028021169E+02  0.49381792598E+02  0.00000000000E+00 0.  1.
          1    1    1    2  501    0  0.15410925742E+03 -0.11154583563E+03  0.94599360769E+03  0.96493318031E+03  0.00000000000E+00 0. -1.
<scales pt_clust_5="13000.00000" pt_clust_6="13000.00000" pt_clust_7="13000.00000" pt_clust_8="13000.00000" pt_clust_9="47.89455" pt_clust_10="13000.00000"></scales>
<clustering>
<clus scale="   47.895">  2  9  1 -1</clus>
<clus scale="   79.874">  5  6 -1 -1</clus>
<clus scale="   92.040">  7  8 -1 -1</clus>
<clus scale="  187.862">  1  5  2 -1</clus>
<clus scale="  220.928">  7 10 -1 -1</clus>
<clus scale="   47.895">  2  5  1 -1</clus>
</clustering>
</event>
<event>
10    4  0.2866397E-005  0.1956379E+03  0.7546771E-02  0.1165496E+00
          2   -1    0    0  502    0 -0.00000000000E+00  0.00000000000E+00  0.35658910976E+03  0.35658910976E+03  0.00000000000E+00 0. -1.
         21   -1    0    0  503  502  0.00000000000E+00 -0.00000000000E+00 -0.11514951610E+03  0.11514951610E+03  0.00000000000E+00 0. -1.
         24    2    1    2    0    0  0.12314146065E+03  0.61408030078E+02  0.85338631442E+02  0.17943233587E+03  0.77320861681E+02 0.  0.
         23    2    1    2    0    0 -0.88814784949E+02  0.17958109239E+02  0.12657478058E+03  0.18077778085E+03  0.91917741804E+02 0.  0.
        -13    1    3    3    0    0  0.13135837192E+02  0.23959298284E+02  0.51666834273E+02  0.58447069703E+02  0.00000000000E+00 0.  1.
         14    1    3    3    0    0  0.11000562346E+03  0.37448731794E+02  0.33671797169E+02  0.12098526617E+03  0.00000000000E+00 0. -1.
        -13    1    4    4    0    0 -0.56662107142E+02 -0.30572809377E+01  0.13036538135E+03  0.14217972431E+03  0.00000000000E+00 0.  1.
         13    1    4    4    0    0 -0.32152677807E+02  0.21015390176E+02 -0.37906007663E+01  0.38598056539E+02  0.00000000000E+00 0. -1.
         21    1    1    2  503  501 -0.13395708007E+02 -0.22929279683E+02 -0.20269935572E+02  0.33407591172E+02  0.00000000000E+00 0. -1.
          1    1    1    2  501    0 -0.20930967697E+02 -0.56436859634E+02  0.49796117206E+02  0.78120917960E+02  0.00000000000E+00 0. -1.
<scales pt_clust_5="13000.00000" pt_clust_6="13000.00000" pt_clust_7="13000.00000" pt_clust_8="13000.00000" pt_clust_9="26.55554" pt_clust_10="13000.00000"></scales>
<clustering>
<clus scale="   26.556">  2  9  1 -1</clus>
<clus scale="   77.321">  5  6 -1 -1</clus>
<clus scale="   91.918">  7  8 -1 -1</clus>
<clus scale="   64.392">  7 10 -1 -1</clus>
<clus scale="  147.836">  1  5  2 -1</clus>
<clus scale="   26.556">  2  5  1 -1</clus>
</clustering>
</event>
<event>
10    4  0.2866397E-005  0.1883837E+03  0.7546771E-02  0.1190768E+00
         21   -1    0    0  501  502  0.00000000000E+00  0.00000000000E+00  0.16334841955E+03  0.16334841955E+03  0.00000000000E+00 0.  1.
          2   -1    0    0  503    0 -0.00000000000E+00 -0.00000000000E+00 -0.64090069079E+03  0.64090069079E+03  0.00000000000E+00 0. -1.
         24    2    1    2    0    0 -0.26449041753E+02  0.31837442722E+02 -0.25301449972E+03  0.26865226172E+03  0.80277805717E+02 0.  0.
         23    2    1    2    0    0  0.16732576538E+02  0.26149116942E+02 -0.19233364709E+03  0.21453756191E+03  0.89835283902E+02 0.  0.
        -11    1    3    3    0    0 -0.21306903761E+02 -0.22524505884E+02 -0.53852896129E+02  0.62140742952E+02  0.00000000000E+00 0.  1.
         12    1    3    3    0    0 -0.51421379919E+01  0.54361948606E+02 -0.19916160359E+03  0.20651151877E+03  0.00000000000E+00 0. -1.
        -13    1    4    4    0    0  0.52056127795E+02  0.13338347217E+02 -0.14122033290E+03  0.15109908792E+03  0.00000000000E+00 0. -1.
         13    1    4    4    0    0 -0.35323551256E+02  0.12810769725E+02 -0.51113314191E+02  0.63438473988E+02  0.00000000000E+00 0.  1.
         21    1    1    2  503  502  0.10990385833E+02  0.43301594924E+02  0.12573037058E+03  0.13343141605E+03  0.00000000000E+00 0.  1.
          1    1    1    2  501    0 -0.12739206185E+01 -0.10128815459E+03 -0.15793449501E+03  0.18762787066E+03  0.00000000000E+00 0. -1.
<scales pt_clust_5="13000.00000" pt_clust_6="13000.00000" pt_clust_7="13000.00000" pt_clust_8="13000.00000" pt_clust_9="44.67456" pt_clust_10="13000.00000"></scales>
<clustering>
<clus scale="   44.675">  1  9  2 -1</clus>
<clus scale="   80.278">  5  6 -1 -1</clus>
<clus scale="   89.835">  7  8 -1 -1</clus>
<clus scale="   82.327">  7 10 -1 -1</clus>
<clus scale="   93.640">  2  5  1 -1</clus>
<clus scale="   44.675">  1  5  2 -1</clus>
</clustering>
</event>
<event>
10    4  0.2866397E-005  0.6066344E+03  0.7546771E-02  0.1004638E+00
          2   -1    0    0  503    0 -0.00000000000E+00  0.00000000000E+00  0.69204829553E+03  0.69204829553E+03  0.00000000000E+00 0. -1.
         21   -1    0    0  501  502  0.00000000000E+00 -0.00000000000E+00 -0.56705095079E+03  0.56705095079E+03  0.00000000000E+00 0. -1.
         24    2    1    2    0    0 -0.27481917515E+03  0.23598438412E+03  0.38498294942E+03  0.53466917127E+03  0.80281023790E+02 0.  0.
         23    2    1    2    0    0  0.27985019300E+03 -0.27091509595E+03 -0.29560840661E+03  0.49683685862E+03  0.88042116542E+02 0.  0.
        -13    1    3    3    0    0 -0.15522678248E+03  0.14384749361E+03  0.27913457014E+03  0.35029068453E+03  0.00000000000E+00 0.  1.
         14    1    3    3    0    0 -0.11959239267E+03  0.92136890516E+02  0.10584837928E+03  0.18437848674E+03  0.00000000000E+00 0. -1.
        -11    1    4    4    0    0  0.26960807801E+03 -0.22232753223E+03 -0.25328297728E+03  0.43159044695E+03  0.00000000000E+00 0. -1.
         11    1    4    4    0    0  0.10242114987E+02 -0.48587563715E+02 -0.42325429334E+02  0.65246411668E+02  0.00000000000E+00 0.  1.
         21    1    1    2  503  502 -0.19528184012E+02 -0.18737177742E+02 -0.87988548333E+02  0.92056593671E+02  0.00000000000E+00 0. -1.
          1    1    1    2  501    0  0.14497166164E+02  0.53667889564E+02  0.12361135026E+03  0.13553662276E+03  0.00000000000E+00 0. -1.
<scales pt_clust_5="13000.00000" pt_clust_6="13000.00000" pt_clust_7="13000.00000" pt_clust_8="13000.00000" pt_clust_9="27.06348" pt_clust_10="13000.00000"></scales>
<clustering>
<clus scale="   27.063">  2  9  1 -1</clus>
<clus scale="   80.281">  5  6 -1 -1</clus>
<clus scale="   88.042">  7  8 -1 -1</clus>
<clus scale="   55.302">  7 10 -1 -1</clus>
<clus scale="  371.448">  1  5  2 -1</clus>
<clus scale="   27.063">  2  5  1 -1</clus>
</clustering>
</event>
<event>
10    4  0.2866397E-005  0.5626617E+03  0.7546771E-02  0.1057407E+00
         21   -1    0    0  501  502  0.00000000000E+00  0.00000000000E+00  0.27489507322E+03  0.27489507322E+03  0.00000000000E+00 0. -1.
          2   -1    0    0  503    0 -0.00000000000E+00 -0.00000000000E+00 -0.79080294632E+03  0.79080294632E+03  0.00000000000E+00 0. -1.
         24    2    1    2    0    0  0.57714842783E+02 -0.40020146910E+00 -0.13028560360E+03  0.16270416097E+03  0.78531154661E+02 0.  0.
         23    2    1    2    0    0  0.21753713000E+03  0.24044530134E+03 -0.19907474215E+03  0.39386320914E+03  0.10178962954E+03 0.  0.
        -13    1    3    3    0    0  0.35356751895E+02  0.36813186366E+02 -0.90064579118E+02  0.10352264973E+03  0.00000000000E+00 0.  1.
         14    1    3    3    0    0  0.22358090888E+02 -0.37213387835E+02 -0.40221024477E+02  0.59181511237E+02  0.00000000000E+00 0. -1.
        -13    1    4    4    0    0  0.16799045303E+01  0.37009906297E+02 -0.49041659475E+02  0.61462505704E+02  0.00000000000E+00 0.  1.
         13    1    4    4    0    0  0.21585722547E+03  0.20343539505E+03 -0.15003308267E+03  0.33240070343E+03  0.00000000000E+00 0. -1.
         21    1    1    2  503  502 -0.12398796988E+03 -0.11500958722E+03  0.72614651001E+02  0.18404648697E+03  0.00000000000E+00 0.  1.
          1    1    1    2  501    0 -0.15126400290E+03 -0.12503551266E+03 -0.25916217835E+03  0.32508416247E+03  0.00000000000E+00 0. -1.
<scales pt_clust_5="13000.00000" pt_clust_6="13000.00000" pt_clust_7="13000.00000" pt_clust_8="13000.00000" pt_clust_9="165.51581" pt_clust_10="13000.00000"></scales>
<clustering>
<clus scale="   78.531">  5  6 -1 -1</clus>
<clus scale="   97.459">  2  5  1 -1</clus>
<clus scale="  101.790">  7  8 -1 -1</clus>
<clus scale="  165.516">  1  9  2 -1</clus>
<clus scale="  218.844">  7 10 -1 -1</clus>
<clus scale="  165.516">  1  5  2 -1</clus>
</clustering>
</event>
<event>
10    4  0.2866397E-005  0.4317692E+03  0.7546771E-02  0.1059712E+00
         21   -1    0    0  501  502  0.00000000000E+00  0.00000000000E+00  0.47234225190E+03  0.47234225190E+03  0.00000000000E+00 0. -1.
          4   -1    0    0  503    0 -0.00000000000E+00 -0.00000000000E+00 -0.27484528297E+03  0.27484528297E+03  0.00000000000E+00 0. -1.
         24    2    1    2    0    0  0.19160480238E+03 -0.81232505447E+02  0.11504646743E+03  0.25128761927E+03  0.81232122296E+02 0.  0.
         23    2    1    2    0    0 -0.19397077623E+03 -0.38766987294E+02  0.14664947241E+03  0.26322230514E+03  0.93018131718E+02 0.  0.
        -13    1    3    3    0    0  0.19780941234E+03 -0.68709745385E+02  0.10690001800E+03  0.23511105157E+03  0.00000000000E+00 0.  1.
         14    1    3    3    0    0 -0.62046099568E+01 -0.12522760061E+02  0.81464494342E+01  0.16176567703E+02  0.00000000000E+00 0. -1.
        -13    1    4    4    0    0 -0.14564439210E+03 -0.40481368325E+02  0.15224236679E+03  0.21454316203E+03  0.00000000000E+00 0. -1.
         13    1    4    4    0    0 -0.48326384138E+02  0.17143810303E+01 -0.55928943748E+01  0.48679143107E+02  0.00000000000E+00 0.  1.
         21    1    1    2  503  502 -0.44845077175E+02  0.25569750451E+02  0.53651853007E+02  0.74454109464E+02  0.00000000000E+00 0.  1.
          3    1    1    2  501    0  0.47211051025E+02  0.94429742290E+02 -0.11785082392E+03  0.15822350099E+03  0.00000000000E+00 0. -1.
<scales pt_clust_5="13000.00000" pt_clust_6="13000.00000" pt_clust_7="13000.00000" pt_clust_8="13000.00000" pt_clust_9="51.62260" pt_clust_10="13000.00000"></scales>
<clustering>
<clus scale="   51.623">  1  9  2 -1</clus>
<clus scale="   81.232">  5  6 -1 -1</clus>
<clus scale="   93.018">  7  8 -1 -1</clus>
<clus scale="  105.744">  7 10 -1 -1</clus>
<clus scale="  202.171">  2  5  1 -1</clus>
<clus scale="   51.623">  1  5  2 -1</clus>
</clustering>
</event>
<event>
10    4  0.2866397E-005  0.3398912E+03  0.7546771E-02  0.1116085E+00
          2   -1    0    0  502    0 -0.00000000000E+00  0.00000000000E+00  0.67553020639E+03  0.67553020639E+03  0.00000000000E+00 0. -1.
         21   -1    0    0  503  502  0.00000000000E+00 -0.00000000000E+00 -0.60678713720E+03  0.60678713720E+03  0.00000000000E+00 0.  1.
         24    2    1    2    0    0  0.35302173946E+02  0.12141798094E+02 -0.47569588636E+03  0.48392405994E+03  0.80636547220E+02 0.  0.
         23    2    1    2    0    0 -0.77050593666E+02  0.63252818073E+02  0.54312403836E+03  0.55983062701E+03  0.92135209978E+02 0.  0.
        -13    1    3    3    0    0  0.38351228725E+02  0.40440844679E+02 -0.23340211104E+03  0.23996421421E+03  0.00000000000E+00 0.  1.
         14    1    3    3    0    0 -0.30490547784E+01 -0.28299046585E+02 -0.24229377532E+03  0.24395984573E+03  0.00000000000E+00 0. -1.
        -13    1    4    4    0    0 -0.96116558463E+02  0.38732758122E+02  0.44506815415E+03  0.45697295456E+03  0.00000000000E+00 0. -1.
         13    1    4    4    0    0  0.19065964797E+02  0.24520059951E+02  0.98055884205E+02  0.10285767245E+03  0.00000000000E+00 0.  1.
         21    1    1    2  503  501 -0.22543797575E+02  0.34087800708E+02 -0.78566099978E+02  0.88559770957E+02  0.00000000000E+00 0. -1.
          1    1    1    2  501    0  0.64292217295E+02 -0.10948241688E+03  0.79881017166E+02  0.15000288568E+03  0.00000000000E+00 0. -1.
<scales pt_clust_5="13000.00000" pt_clust_6="13000.00000" pt_clust_7="13000.00000" pt_clust_8="13000.00000" pt_clust_9="40.86809" pt_clust_10="13000.00000"></scales>
<clustering>
<clus scale="   40.868">  2  9  1 -1</clus>
<clus scale="   80.637">  5  6 -1 -1</clus>
<clus scale="   92.135">  7  8 -1 -1</clus>
<clus scale="   92.736">  1  5  2 -1</clus>
<clus scale="  119.382">  7 10 -1 -1</clus>
<clus scale="   40.868">  2  5  1 -1</clus>
</clustering>
</event>
<event>
10    4  0.2866397E-005  0.1730318E+03  0.7546771E-02  0.1181343E+00
          2   -1    0    0  502    0 -0.00000000000E+00  0.00000000000E+00  0.62614997703E+03  0.62614997703E+03  0.00000000000E+00 0. -1.
         21   -1    0    0  503  502  0.00000000000E+00 -0.00000000000E+00 -0.36248564115E+03  0.36248564115E+03  0.00000000000E+00 0.  1.
         24    2    1    2    0    0  0.31318319154E+02 -0.97679193294E+02  0.26105349836E+03  0.29142475737E+03  0.79103718522E+02 0.  0.
         23    2    1    2    0    0 -0.16299134360E+02  0.10877452943E+03  0.23526250583E+03  0.27520446718E+03  0.91057630530E+02 0.  0.
        -11    1    3    3    0    0 -0.20653118319E+02 -0.57922713592E+02  0.15570967084E+03  0.16741294347E+03  0.00000000000E+00 0.  1.
         12    1    3    3    0    0  0.51971437473E+02 -0.39756479702E+02  0.10534382752E+03  0.12401181390E+03  0.00000000000E+00 0. -1.
        -13    1    4    4    0    0 -0.45783874210E+01  0.74476362447E+02  0.58641345050E+02  0.94902568690E+02  0.00000000000E+00 0.  1.
         13    1    4    4    0    0 -0.11720746939E+02  0.34298166983E+02  0.17662116078E+03  0.18030189849E+03  0.00000000000E+00 0. -1.
         21    1    1    2  503  501  0.22807152364E+01 -0.78405262535E+02 -0.30897882895E+03  0.31877971014E+03  0.00000000000E+00 0.  1.
          1    1    1    2  501    0 -0.17299900030E+02  0.67309926399E+02  0.76327160643E+02  0.10322668349E+03  0.00000000000E+00 0. -1.
<scales pt_clust_5="13000.00000" pt_clust_6="13000.00000" pt_clust_7="13000.00000" pt_clust_8="13000.00000" pt_clust_9="78.43843" pt_clust_10="13000.00000"></scales>
<clustering>
<clus scale="   78.438">  2  9  1 -1</clus>
<clus scale="   79.104">  5  6 -1 -1</clus>
<clus scale="   91.058">  7  8 -1 -1</clus>
<clus scale="   48.565">  7 10 -1 -1</clus>
<clus scale="  149.030">  1  5  2 -1</clus>
<clus scale="   78.438">  2  5  1 -1</clus>
</clustering>
</event>
<event>
10    4  0.2866397E-005  0.1294412E+03  0.7546771E-02  0.1246934E+00
         21   -1    0    0  503  502  0.00000000000E+00  0.00000000000E+00  0.20928512763E+03  0.20928512763E+03  0.00000000000E+00 0.  1.
          2   -1    0    0  502    0 -0.00000000000E+00 -0.00000000000E+00 -0.16415409459E+03  0.16415409459E+03  0.00000000000E+00 0. -1.
         24    2    1    2    0    0  0.29460887834E+01 -0.30036520527E+02 -0.53734778035E+02  0.10027566069E+03  0.79100630536E+02 0.  0.
         23    2    1    2    0    0  0.26545508739E+02  0.22061523597E+02 -0.23383346596E+02  0.98802250837E+02  0.89575270107E+02 0.  0.
        -11    1    3    3    0    0  0.31057452233E+02  0.65848815328E+01 -0.41984954046E+02  0.52637081703E+02  0.00000000000E+00 0.  1.
         12    1    3    3    0    0 -0.28111363449E+02 -0.36621402060E+02 -0.11749823989E+02  0.47638578984E+02  0.00000000000E+00 0. -1.
        -13    1    4    4    0    0  0.14771638514E+02 -0.19737074579E+02  0.24086530032E+02  0.34466133324E+02  0.00000000000E+00 0.  1.
         13    1    4    4    0    0  0.11773870224E+02  0.41798598176E+02 -0.47469876628E+02  0.64336117513E+02  0.00000000000E+00 0. -1.
         21    1    1    2  503  501 -0.53096188422E+02 -0.32426086029E+02  0.10937469107E+03  0.12583115404E+03  0.00000000000E+00 0.  1.
          1    1    1    2  501    0  0.23604590900E+02  0.40401082958E+02  0.12874466599E+02  0.48530156666E+02  0.00000000000E+00 0. -1.
<scales pt_clust_5="13000.00000" pt_clust_6="13000.00000" pt_clust_7="13000.00000" pt_clust_8="13000.00000" pt_clust_9="62.21460" pt_clust_10="13000.00000"></scales>
<clustering>
<clus scale="   62.215">  1  9  2 -1</clus>
<clus scale="   79.101">  5  6 -1 -1</clus>
<clus scale="   88.499">  2  5  1 -1</clus>
<clus scale="   89.575">  7  8 -1 -1</clus>
<clus scale="   23.601">  7 10 -1 -1</clus>
<clus scale="   62.215">  1  5  2 -1</clus>
</clustering>
</event>
<event>
10    4  0.2866397E-005  0.3469942E+03  0.7546771E-02  0.1075621E+00
         21   -1    0    0  503  502  0.00000000000E+00  0.00000000000E+00  0.24378956655E+03  0.24378956655E+03  0.00000000000E+00 0. -1.
          4   -1    0    0  502    0 -0.00000000000E+00 -0.00000000000E+00 -0.45161680841E+03  0.45161680841E+03  0.00000000000E+00 0. -1.
         24    2    1    2    0    0 -0.21253694161E+03 -0.11254757885E+03 -0.11726164128E+03  0.27989555174E+03  0.82172491224E+02 0.  0.
         23    2    1    2    0    0 -0.25680467845E+00  0.13033051475E+02 -0.99930649258E+02  0.13622511236E+03  0.91658170382E+02 0.  0.
        -11    1    3    3    0    0 -0.17547726093E+02  0.13308731349E+02 -0.86912299721E+01  0.23676623483E+02  0.00000000000E+00 0.  1.
         12    1    3    3    0    0 -0.19498921552E+03 -0.12585631020E+03 -0.10857041130E+03  0.25621892826E+03  0.00000000000E+00 0. -1.
        -11    1    4    4    0    0  0.23278534568E+02 -0.30765479958E+02 -0.23910473574E+02  0.45388497168E+02  0.00000000000E+00 0.  1.
         11    1    4    4    0    0 -0.23535339246E+02  0.43798531433E+02 -0.76020175683E+02  0.90836615194E+02  0.00000000000E+00 0. -1.
         21    1    1    2  503  501  0.29169111184E+02 -0.34573319123E+02  0.24441678755E+02  0.51415436425E+02  0.00000000000E+00 0.  1.
          3    1    1    2  501    0  0.18362463511E+03  0.13408784650E+03 -0.15076630077E+02  0.22787027444E+03  0.00000000000E+00 0. -1.
<scales pt_clust_5="13000.00000" pt_clust_6="13000.00000" pt_clust_7="13000.00000" pt_clust_8="13000.00000" pt_clust_9="45.23441" pt_clust_10="13000.00000"></scales>
<clustering>
<clus scale="   45.234">  1  9  2 -1</clus>
<clus scale="   82.172">  5  6 -1 -1</clus>
<clus scale="   91.658">  7  8 -1 -1</clus>
<clus scale="  230.193">  7 10 -1 -1</clus>
<clus scale="  251.171">  2  5  1 -1</clus>
<clus scale="   45.234">  1  5  2 -1</clus>
</clustering>
</event>
<event>
10    4  0.2866397E-005  0.3094406E+03  0.7546771E-02  0.1115115E+00
          2   -1    0    0  502    0 -0.00000000000E+00  0.00000000000E+00  0.49269566098E+03  0.49269566098E+03  0.00000000000E+00 0. -1.
         21   -1    0    0  503  502  0.00000000000E+00 -0.00000000000E+00 -0.27658949003E+03  0.27658949003E+03  0.00000000000E+00 0. -1.
         24    2    1    2    0    0 -0.56831054857E+02  0.98362393686E+02 -0.50156871333E+02  0.14783683574E+03  0.80219006310E+02 0.  0.
         23    2    1    2    0    0  0.60332764814E+02  0.72822191558E+02  0.28844300648E+03  0.31709949485E+03  0.91703912421E+02 0.  0.
        -13    1    3    3    0    0  0.15753692237E+02  0.47090800453E+02 -0.24310420593E+02  0.55287601285E+02  0.00000000000E+00 0.  1.
         14    1    3    3    0    0 -0.72584747094E+02  0.51271593232E+02 -0.25846450741E+02  0.92549234460E+02  0.00000000000E+00 0. -1.
        -11    1    4    4    0    0  0.75091614581E+02  0.33472974261E+02  0.23590571101E+03  0.24982132630E+03  0.00000000000E+00 0. -1.
         11    1    4    4    0    0 -0.14758849766E+02  0.39349217297E+02  0.52537295468E+02  0.67278168550E+02  0.00000000000E+00 0.  1.
         21    1    1    2  503  501  0.87491169436E+01 -0.24342624615E+02 -0.12307520085E+03  0.12576412638E+03  0.00000000000E+00 0. -1.
          1    1    1    2  501    0 -0.12250826901E+02 -0.14684196063E+03  0.10089523666E+03  0.17858469403E+03  0.00000000000E+00 0. -1.
<scales pt_clust_5="13000.00000" pt_clust_6="13000.00000" pt_clust_7="13000.00000" pt_clust_8="13000.00000" pt_clust_9="25.86717" pt_clust_10="13000.00000"></scales>
<clustering>
<clus scale="   25.867">  2  9  1 -1</clus>
<clus scale="   80.219">  5  6 -1 -1</clus>
<clus scale="   91.704">  7  8 -1 -1</clus>
<clus scale="  125.940">  1  5  2 -1</clus>
<clus scale="  128.195">  7 10 -1 -1</clus>
<clus scale="   25.867">  2  5  1 -1</clus>
</clustering>
</event>
<event>
10    4  0.2866397E-005  0.3367129E+03  0.7546771E-02  0.1117976E+00
          4   -1    0    0  502    0 -0.00000000000E+00  0.00000000000E+00  0.31902992847E+03  0.31902992847E+03  0.00000000000E+00 0. -1.
         21   -1    0    0  503  502  0.00000000000E+00 -0.00000000000E+00 -0.45499539796E+03  0.45499539796E+03  0.00000000000E+00 0.  1.
         24    2    1    2    0    0 -0.26787795243E+02 -0.27333031709E+02  0.68546895933E+02  0.11389387396E+03  0.82513374590E+02 0.  0.
         23    2    1    2    0    0 -0.18869791031E+02 -0.51954894730E+02 -0.23354856474E+02  0.10928129684E+03  0.91332209100E+02 0.  0.
        -11    1    3    3    0    0 -0.28426684280E+02  0.25188392553E+02  0.23356708528E+02  0.44587748674E+02  0.00000000000E+00 0.  1.
         12    1    3    3    0    0  0.16388890370E+01 -0.52521424262E+02  0.45190187405E+02  0.69306125281E+02  0.00000000000E+00 0. -1.
        -11    1    4    4    0    0  0.29286037962E+02 -0.47706267243E+02 -0.24068405060E+02  0.60933144313E+02  0.00000000000E+00 0.  1.
         11    1    4    4    0    0 -0.48155828994E+02 -0.42486274873E+01  0.71354858581E+00  0.48348152531E+02  0.00000000000E+00 0. -1.
         21    1    1    2  503  501 -0.32747623787E+02 -0.13926003630E+03 -0.26731951676E+03  0.30319216450E+03  0.00000000000E+00 0.  1.
          3    1    1    2  501    0  0.78405210062E+02  0.21854796274E+03  0.86162007807E+02  0.24765799113E+03  0.00000000000E+00 0. -1.
<scales pt_clust_5="13000.00000" pt_clust_6="13000.00000" pt_clust_7="13000.00000" pt_clust_8="13000.00000" pt_clust_9="145.64466" pt_clust_10="13000.00000"></scales>
<clustering>
<clus scale="   82.513">  5  6 -1 -1</clus>
<clus scale="   90.957">  1  5  2 -1</clus>
<clus scale="   91.332">  7  8 -1 -1</clus>
<clus scale="  145.645">  2  9  1 -1</clus>
<clus scale="  137.708">  7 10 -1 -1</clus>
<clus scale="  145.645">  2  5  1 -1</clus>
</clustering>
</event>
<event>
10    4  0.2866397E-005  0.2907774E+03  0.7546771E-02  0.1119389E+00
          2   -1    0    0  503    0 -0.00000000000E+00  0.00000000000E+00  0.75377104706E+03  0.75377104706E+03  0.00000000000E+00 0. -1.
         21   -1    0    0  501  502  0.00000000000E+00 -0.00000000000E+00 -0.25306685826E+03  0.25306685826E+03  0.00000000000E+00 0. -1.
         24    2    1    2    0    0  0.64711395277E+02 -0.10635201871E+03  0.97666199609E+02  0.17436762769E+03  0.73260265348E+02 0.  0.
         23    2    1    2    0    0  0.33088717145E+02 -0.36366520735E+02  0.94821950368E+02  0.13876175626E+03  0.88578979997E+02 0.  0.
        -13    1    3    3    0    0  0.43294532789E+02 -0.68453816368E+02  0.10242149213E+03  0.13057757692E+03  0.00000000000E+00 0.  1.
         14    1    3    3    0    0  0.21416862489E+02 -0.37898202344E+02 -0.47552925197E+01  0.43790050773E+02  0.00000000000E+00 0. -1.
        -13    1    4    4    0    0  0.80110028206E+01 -0.18402375403E+02 -0.14764590087E+02  0.24916193672E+02  0.00000000000E+00 0.  1.
         13    1    4    4    0    0  0.25077714325E+02 -0.17964145332E+02  0.10958654045E+03  0.11384556259E+03  0.00000000000E+00 0. -1.
         21    1    1    2  503  502  0.75151180270E+02  0.10779654530E+03 -0.15194165203E+03  0.20088320163E+03  0.00000000000E+00 0. -1.
          1    1    1    2  501    0 -0.17295129269E+03  0.34921994146E+02  0.46015769085E+03  0.49282531973E+03  0.00000000000E+00 0. -1.
<scales pt_clust_5="13000.00000" pt_clust_6="13000.00000" pt_clust_7="13000.00000" pt_clust_8="13000.00000" pt_clust_9="131.40698" pt_clust_10="13000.00000"></scales>
<clustering>
<clus scale="   73.260">  5  6 -1 -1</clus>
<clus scale="   88.579">  7  8 -1 -1</clus>
<clus scale="  131.407">  2  9  1 -1</clus>
<clus scale="  136.317">  1  5  2 -1</clus>
<clus scale="   83.661">  7 10 -1 -1</clus>
<clus scale="  131.407">  2  5  1 -1</clus>
</clustering>
</event>
<event>
10    4  0.2866397E-005  0.2130870E+03  0.7546771E-02  0.1167918E+00
         -1   -1    0    0    0  501 -0.00000000000E+00  0.00000000000E+00  0.46909461325E+03  0.46909461325E+03  0.00000000000E+00 0.  1.
         21   -1    0    0  501  502  0.00000000000E+00 -0.00000000000E+00 -0.35582930853E+03  0.35582930853E+03  0.00000000000E+00 0.  1.
         24    2    1    2    0    0  0.99826222328E+02  0.27765753967E+02 -0.53806461122E+02  0.14271223858E+03  0.82069702228E+02 0.  0.
         23    2    1    2    0    0  0.25404501591E+02 -0.43400200686E+02  0.25796418234E+03  0.27809995937E+03  0.90912605897E+02 0.  0.
        -13    1    3    3    0    0  0.10705717517E+03  0.42278975455E+02 -0.52298714158E+02  0.12642747337E+03  0.00000000000E+00 0.  1.
         14    1    3    3    0    0 -0.72309528396E+01 -0.14513221488E+02 -0.15077469645E+01  0.16284765207E+02  0.00000000000E+00 0. -1.
        -11    1    4    4    0    0  0.40292321499E+02 -0.62579961788E+02  0.15014208370E+03  0.16757794630E+03  0.00000000000E+00 0.  1.
         11    1    4    4    0    0 -0.14887819907E+02  0.19179761102E+02  0.10782209864E+03  0.11052201307E+03  0.00000000000E+00 0. -1.
         21    1    1    2  503  502 -0.37203258849E+02 -0.31698216009E+02 -0.22870659164E+03  0.23387082851E+03  0.00000000000E+00 0.  1.
         -2    1    1    2    0  503 -0.88027465070E+02  0.47332662728E+02  0.13781417514E+03  0.17024089531E+03  0.00000000000E+00 0.  1.
<scales pt_clust_5="13000.00000" pt_clust_6="13000.00000" pt_clust_7="13000.00000" pt_clust_8="13000.00000" pt_clust_9="48.87596" pt_clust_10="13000.00000"></scales>
<clustering>
<clus scale="   48.876">  2  9  1 -1</clus>
<clus scale="   82.070">  5  6 -1 -1</clus>
<clus scale="   90.913">  7  8 -1 -1</clus>
<clus scale="  102.429">  7 10 -1 -1</clus>
<clus scale="  108.211">  1  5  2 -1</clus>
<clus scale="   48.876">  2  5  1 -1</clus>
</clustering>
</event>
<event>
10    4  0.2866397E-005  0.3785718E+03  0.7546771E-02  0.1090614E+00
          2   -1    0    0  503    0 -0.00000000000E+00  0.00000000000E+00  0.15788379065E+04  0.15788379065E+04  0.00000000000E+00 0. -1.
         21   -1    0    0  501  502  0.00000000000E+00 -0.00000000000E+00 -0.10813434426E+03  0.10813434426E+03  0.00000000000E+00 0.  1.
         24    2    1    2    0    0  0.33683314553E+02  0.10497219631E+03  0.67828946202E+03  0.69107514502E+03  0.73174682060E+02 0.  0.
         23    2    1    2    0    0 -0.86062666161E+02  0.22479476692E+02  0.77616541670E+02  0.14646379099E+03  0.86690282917E+02 0.  0.
        -11    1    3    3    0    0  0.40424536762E+02  0.92567886389E+02  0.40447066841E+03  0.41689264609E+03  0.00000000000E+00 0.  1.
         12    1    3    3    0    0 -0.67412222090E+01  0.12404309921E+02  0.27381879361E+03  0.27418249892E+03  0.00000000000E+00 0. -1.
        -13    1    4    4    0    0  0.10101498108E+01  0.35996420017E+02  0.20146919272E+02  0.41263313159E+02  0.00000000000E+00 0. -1.
         13    1    4    4    0    0 -0.87072815972E+02 -0.13516943325E+02  0.57469622398E+02  0.10520047783E+03  0.00000000000E+00 0.  1.
         21    1    1    2  503  502 -0.74067162822E+01 -0.23424565652E+02 -0.60295549750E+02  0.65108548146E+02  0.00000000000E+00 0.  1.
          1    1    1    2  501    0  0.59786067891E+02 -0.10402710735E+03  0.77509310828E+03  0.78432476659E+03  0.00000000000E+00 0. -1.
<scales pt_clust_5="13000.00000" pt_clust_6="13000.00000" pt_clust_7="13000.00000" pt_clust_8="13000.00000" pt_clust_9="24.56766" pt_clust_10="13000.00000"></scales>
<clustering>
<clus scale="   24.568">  2  9  1 -1</clus>
<clus scale="   73.175">  5  6 -1 -1</clus>
<clus scale="   86.690">  7  8 -1 -1</clus>
<clus scale="  121.686">  7 10 -1 -1</clus>
<clus scale="  129.453">  1  5  2 -1</clus>
<clus scale="   24.568">  2  5  1 -1</clus>
</clustering>
</event>
<event>
10    4  0.2866397E-005  0.7002228E+03  0.7546771E-02  0.1034690E+00
         -1   -1    0    0    0  501 -0.00000000000E+00  0.00000000000E+00  0.55334287333E+03  0.55334287333E+03  0.00000000000E+00 0.  1.
         21   -1    0    0  503  502  0.00000000000E+00 -0.00000000000E+00 -0.37174766905E+03  0.37174766905E+03  0.00000000000E+00 0.  1.
         24    2    1    2    0    0  0.97659552941E+01  0.63844869843E+02 -0.91614764905E+02  0.13858110070E+03  0.81485673801E+02 0.  0.
         23    2    1    2    0    0  0.16348594803E+03 -0.17982265770E+03  0.39486176150E+03  0.47257932712E+03  0.91386904412E+02 0.  0.
        -11    1    3    3    0    0  0.41423879998E+02  0.43538694686E+02 -0.78254906948E+02  0.98668060843E+02  0.00000000000E+00 0.  1.
         12    1    3    3    0    0 -0.31657924704E+02  0.20306175157E+02 -0.13359857957E+02  0.39913039858E+02  0.00000000000E+00 0. -1.
        -13    1    4    4    0    0  0.61799670218E+02 -0.13092711925E+03  0.19223899735E+03  0.24065938979E+03  0.00000000000E+00 0. -1.
         13    1    4    4    0    0  0.10168627781E+03 -0.48895538448E+02  0.20262276416E+03  0.23191993733E+03  0.00000000000E+00 0.  1.
         21    1    1    2  503  501  0.65072194638E+01 -0.38096467832E+02  0.13955110814E+02  0.41090508445E+02  0.00000000000E+00 0. -1.
         -2    1    1    2    0  502 -0.17975912279E+03  0.15407425569E+03 -0.13560690313E+03  0.27283960612E+03  0.00000000000E+00 0.  1.
<scales pt_clust_5="13000.00000" pt_clust_6="13000.00000" pt_clust_7="13000.00000" pt_clust_8="13000.00000" pt_clust_9="38.64824" pt_clust_10="13000.00000"></scales>
<clustering>
<clus scale="   38.648">  2  9  1 -1</clus>
<clus scale="   81.486">  5  6 -1 -1</clus>
<clus scale="   91.387">  7  8 -1 -1</clus>
<clus scale="   97.177">  1  5  2 -1</clus>
<clus scale="  223.489">  7 10 -1 -1</clus>
<clus scale="   38.648">  2  5  1 -1</clus>
</clustering>
</event>
<event>
10    4  0.2866397E-005  0.1956428E+03  0.7546771E-02  0.1190441E+00
         21   -1    0    0  501  502  0.00000000000E+00  0.00000000000E+00  0.32178855292E+02  0.32178855292E+02  0.00000000000E+00 0. -1.
          2   -1    0    0  503    0 -0.00000000000E+00 -0.00000000000E+00 -0.82976637206E+03  0.82976637206E+03  0.00000000000E+00 0. -1.
         24    2    1    2    0    0 -0.16709034397E+02  0.19490397134E+02 -0.25086730482E+03  0.26471551963E+03  0.80503629075E+02 0.  0.
         23    2    1    2    0    0  0.97016761913E+01  0.25856484101E+02 -0.13415673573E+03  0.16508134006E+03  0.92147375459E+02 0.  0.
        -13    1    3    3    0    0 -0.19069106299E+02 -0.16073762546E+02 -0.22518463170E+02  0.33601753540E+02  0.00000000000E+00 0.  1.
         14    1    3    3    0    0  0.23600719025E+01  0.35564159680E+02 -0.22834884165E+03  0.23111376609E+03  0.00000000000E+00 0. -1.
        -11    1    4    4    0    0 -0.26219714015E+02  0.19295153591E+02 -0.12249752899E+03  0.12674944167E+03  0.00000000000E+00 0.  1.
         11    1    4    4    0    0  0.35921390206E+02  0.65613305094E+01 -0.11659206737E+02  0.38331898389E+02  0.00000000000E+00 0. -1.
         21    1    1    2  503  502  0.25417100662E+02  0.11636305367E+02 -0.18409860498E+02  0.33471713016E+02  0.00000000000E+00 0.  1.
          1    1    1    2  501    0 -0.18409742457E+02 -0.56983186602E+02 -0.39415361573E+03  0.39867665465E+03  0.00000000000E+00 0. -1.
<scales pt_clust_5="13000.00000" pt_clust_6="13000.00000" pt_clust_7="13000.00000" pt_clust_8="13000.00000" pt_clust_9="27.95412" pt_clust_10="13000.00000"></scales>
<clustering>
<clus scale="   27.954">  1  9  2 -1</clus>
<clus scale="   80.504">  5  6 -1 -1</clus>
<clus scale="   84.204">  2  5  1 -1</clus>
<clus scale="   92.147">  7  8 -1 -1</clus>
<clus scale="   46.514">  7 10 -1 -1</clus>
<clus scale="   27.954">  1  5  2 -1</clus>
</clustering>
</event>
<event>
10    4  0.2866397E-005  0.2862600E+03  0.7546771E-02  0.1110297E+00
         21   -1    0    0  501  502  0.00000000000E+00  0.00000000000E+00  0.11278617772E+03  0.11278617772E+03  0.00000000000E+00 0.  1.
          2   -1    0    0  503    0 -0.00000000000E+00 -0.00000000000E+00 -0.84112632167E+03  0.84112632167E+03  0.00000000000E+00 0. -1.
         24    2    1    2    0    0  0.11216859736E+03 -0.65718333227E+02 -0.26628340981E+02  0.15557306245E+03  0.81198618589E+02 0.  0.
         23    2    1    2    0    0  0.51989842776E+01 -0.20360733470E+02 -0.71774560669E+02  0.10402575724E+03  0.72306166441E+02 0.  0.
        -11    1    3    3    0    0  0.40743837709E+02 -0.50288054123E+02  0.21355529671E+02  0.68154290740E+02  0.00000000000E+00 0.  1.
         12    1    3    3    0    0  0.71424759654E+02 -0.15430279103E+02 -0.47983870652E+02  0.87418771712E+02  0.00000000000E+00 0. -1.
        -11    1    4    4    0    0  0.35583192189E+02 -0.12025346315E+01 -0.19482996467E+02  0.40585672438E+02  0.00000000000E+00 0. -1.
         11    1    4    4    0    0 -0.30384207911E+02 -0.19158198839E+02 -0.52291564202E+02  0.63440084803E+02  0.00000000000E+00 0.  1.
         21    1    1    2  503  502  0.47998218146E+02 -0.45128028077E+01 -0.14058458960E+02  0.50217871348E+02  0.00000000000E+00 0.  1.
          1    1    1    2  501    0 -0.16536579979E+03  0.90591869504E+02 -0.61587878334E+03  0.64409580835E+03  0.00000000000E+00 0. -1.
<scales pt_clust_5="13000.00000" pt_clust_6="13000.00000" pt_clust_7="13000.00000" pt_clust_8="13000.00000" pt_clust_9="48.20990" pt_clust_10="13000.00000"></scales>
<clustering>
<clus scale="   48.210">  1  9  2 -1</clus>
<clus scale="   72.306">  7  8 -1 -1</clus>
<clus scale="   81.199">  5  6 -1 -1</clus>
<clus scale="  179.736">  2  5  1 -1</clus>
<clus scale="   46.209">  7 10 -1 -1</clus>
<clus scale="   48.210">  1  5  2 -1</clus>
</clustering>
</event>
<event>
10    4  0.2866397E-005  0.1397435E+03  0.7546771E-02  0.1234814E+00
         21   -1    0    0  503  502  0.00000000000E+00  0.00000000000E+00  0.13324143726E+03  0.13324143726E+03  0.00000000000E+00 0. -1.
          2   -1    0    0  502    0 -0.00000000000E+00 -0.00000000000E+00 -0.28492079381E+03  0.28492079381E+03  0.00000000000E+00 0. -1.
         24    2    1    2    0    0  0.24765545326E+02 -0.71381079487E+01  0.78000972316E+01  0.84387888309E+02  0.79976179929E+02 0.  0.
         23    2    1    2    0    0 -0.16020817274E+02  0.75446992699E+01 -0.49193254351E+02  0.87311537993E+02  0.69926671020E+02 0.  0.
        -11    1    3    3    0    0 -0.25073788015E+02 -0.11338683752E+02  0.18605659892E+02  0.33217934533E+02  0.00000000000E+00 0.  1.
         12    1    3    3    0    0  0.49839333341E+02  0.42005758036E+01 -0.10805562661E+02  0.51169953775E+02  0.00000000000E+00 0. -1.
        -13    1    4    4    0    0  0.19089032719E+02  0.15822468102E+02 -0.44491911124E+02  0.50933994763E+02  0.00000000000E+00 0. -1.
         13    1    4    4    0    0 -0.35109849993E+02 -0.82777688317E+01 -0.47013432263E+01  0.36377543231E+02  0.00000000000E+00 0.  1.
         21    1    1    2  503  501 -0.10687085106E+01 -0.38323454794E+02  0.60349042378E+02  0.71497106524E+02  0.00000000000E+00 0. -1.
          1    1    1    2  501    0 -0.76760195417E+01  0.37916863473E+02 -0.17063524182E+03  0.17496569824E+03  0.00000000000E+00 0. -1.
<scales pt_clust_5="13000.00000" pt_clust_6="13000.00000" pt_clust_7="13000.00000" pt_clust_8="13000.00000" pt_clust_9="38.33835" pt_clust_10="13000.00000"></scales>
<clustering>
<clus scale="   38.338">  1  9  2 -1</clus>
<clus scale="   69.927">  7  8 -1 -1</clus>
<clus scale="   37.486">  7 10 -1 -1</clus>
<clus scale="   79.976">  5  6 -1 -1</clus>
<clus scale="   89.933">  2  5  1 -1</clus>
<clus scale="   38.338">  1  5  2 -1</clus>
</clustering>
</event>
<event>
10    4  0.2866397E-005  0.2357301E+03  0.7546771E-02  0.1142479E+00
         21   -1    0    0  501  502  0.00000000000E+00  0.00000000000E+00  0.14938621628E+03  0.14938621628E+03  0.00000000000E+00 0.  1.
          2   -1    0    0  503    0 -0.00000000000E+00 -0.00000000000E+00 -0.48924456959E+03  0.48924456959E+03  0.00000000000E+00 0. -1.
         24    2    1    2    0    0 -0.10015153740E+03 -0.79162738125E+02 -0.28893625914E+03  0.32601211721E+03  0.80639129279E+02 0.  0.
         23    2    1    2    0    0  0.52950728392E+02  0.12653343528E+02 -0.10135451207E+03  0.15383384808E+03  0.10211870034E+03 0.  0.
        -11    1    3    3    0    0 -0.28271622798E+02  0.14688299806E+02 -0.77100487843E+02  0.83423713850E+02  0.00000000000E+00 0.  1.
         12    1    3    3    0    0 -0.71879914604E+02 -0.93851037931E+02 -0.21183577130E+03  0.24258840336E+03  0.00000000000E+00 0. -1.
        -13    1    4    4    0    0  0.81196716126E+02  0.18454067370E+02 -0.56919994212E+02  0.10086300141E+03  0.00000000000E+00 0.  1.
         13    1    4    4    0    0 -0.28245987734E+02 -0.58007238418E+01 -0.44434517857E+02  0.52970846674E+02  0.00000000000E+00 0. -1.
         21    1    1    2  503  502 -0.58338814793E+01  0.79379817258E+02 -0.65762933578E+01  0.79865118765E+02  0.00000000000E+00 0.  1.
          1    1    1    2  501    0  0.53034690489E+02 -0.12870422662E+02  0.57008711262E+02  0.78919701814E+02  0.00000000000E+00 0. -1.
<scales pt_clust_5="13000.00000" pt_clust_6="13000.00000" pt_clust_7="13000.00000" pt_clust_8="13000.00000" pt_clust_9="79.59390" pt_clust_10="13000.00000"></scales>
<clustering>
<clus scale="   79.594">  1  9  2 -1</clus>
<clus scale="   80.639">  5  6 -1 -1</clus>
<clus scale="  102.119">  7  8 -1 -1</clus>
<clus scale="   60.628">  7 10 -1 -1</clus>
<clus scale="  145.247">  2  5  1 -1</clus>
<clus scale="   79.594">  1  5  2 -1</clus>
</clustering>
</event>
<event>
10    4  0.2866397E-005  0.3825253E+03  0.7546771E-02  0.1089708E+00
         21   -1    0    0  503  502  0.00000000000E+00  0.00000000000E+00  0.23097855740E+03  0.23097855740E+03  0.00000000000E+00 0.  1.
          2   -1    0    0  502    0 -0.00000000000E+00 -0.00000000000E+00 -0.34874983836E+03  0.34874983836E+03  0.00000000000E+00 0. -1.
         24    2    1    2    0    0 -0.97126530573E+02 -0.21651567407E+02 -0.10857669727E+03  0.16700302330E+03  0.78732187134E+02 0.  0.
         23    2    1    2    0    0  0.20814521809E+03  0.15416465481E+02  0.88086265724E+02  0.24324625684E+03  0.88585845597E+02 0.  0.
        -11    1    3    3    0    0 -0.16227333584E+02  0.24713521009E+02 -0.97495111548E+01  0.31130972418E+02  0.00000000000E+00 0.  1.
         12    1    3    3    0    0 -0.80899196989E+02 -0.46365088416E+02 -0.98827186113E+02  0.13587205089E+03  0.00000000000E+00 0. -1.
        -11    1    4    4    0    0  0.41125817860E+02  0.15859685084E+02 -0.15486041963E+02  0.46719160965E+02  0.00000000000E+00 0. -1.
         11    1    4    4    0    0  0.16701940023E+03 -0.44321960263E+00  0.10357230769E+03  0.19652709588E+03  0.00000000000E+00 0.  1.
         21    1    1    2  503  501 -0.18156348820E+02  0.13264000035E+02  0.12333294532E+02  0.25645601054E+02  0.00000000000E+00 0.  1.
          1    1    1    2  501    0 -0.92862338691E+02 -0.70288981089E+01 -0.10961414395E+03  0.14383351456E+03  0.00000000000E+00 0. -1.
<scales pt_clust_5="13000.00000" pt_clust_6="13000.00000" pt_clust_7="13000.00000" pt_clust_8="13000.00000" pt_clust_9="22.48526" pt_clust_10="13000.00000"></scales>
<clustering>
<clus scale="   22.485">  1  9  2 -1</clus>
<clus scale="   78.732">  5  6 -1 -1</clus>
<clus scale="   88.586">  7  8 -1 -1</clus>
<clus scale="   94.516">  7 10 -1 -1</clus>
<clus scale="  128.521">  2  5  1 -1</clus>
<clus scale="   22.485">  1  5  2 -1</clus>
</clustering>
</event>
<event>
10    4  0.2866397E-005  0.1120484E+04  0.7546771E-02  0.9642156E-01
          2   -1    0    0  503    0 -0.00000000000E+00  0.00000000000E+00  0.10302608592E+04  0.10302608592E+04  0.00000000000E+00 0. -1.
         21   -1    0    0  501  502  0.00000000000E+00 -0.00000000000E+00 -0.60092059405E+03  0.60092059405E+03  0.00000000000E+00 0. -1.
         24    2    1    2    0    0  0.11026305314E+03  0.15727995971E+03  0.46103171441E+02  0.21373070742E+03  0.81611189587E+02 0.  0.
         23    2    1    2    0    0  0.17436890225E+03  0.36988997712E+03  0.43231348678E+02  0.42213138214E+03  0.95408830998E+02 0.  0.
        -13    1    3    3    0    0  0.22802663536E+01  0.64462270429E+02  0.15124231907E+01  0.64520317322E+02  0.00000000000E+00 0.  1.
         14    1    3    3    0    0  0.10798278678E+03  0.92817689282E+02  0.44590748250E+02  0.14921039010E+03  0.00000000000E+00 0. -1.
        -13    1    4    4    0    0  0.90254960314E+02  0.14184916206E+03 -0.24275174849E+02  0.16987179504E+03  0.00000000000E+00 0.  1.
         13    1    4    4    0    0  0.84113941938E+02  0.22804081506E+03  0.67506523527E+02  0.25225958710E+03  0.00000000000E+00 0. -1.
         21    1    1    2  503  502 -0.71377731773E+02  0.12083940315E+03 -0.10978727132E+03  0.17818582124E+03  0.00000000000E+00 0. -1.
          1    1    1    2  501    0 -0.21325422361E+03 -0.64800933998E+03  0.44979301632E+03  0.81713354241E+03  0.00000000000E+00 0. -1.
<scales pt_clust_5="13000.00000" pt_clust_6="13000.00000" pt_clust_7="13000.00000" pt_clust_8="13000.00000" pt_clust_9="140.34579" pt_clust_10="13000.00000"></scales>
<clustering>
<clus scale="   81.611">  5  6 -1 -1</clus>
<clus scale="   95.409">  7  8 -1 -1</clus>
<clus scale="  140.346">  2  9  1 -1</clus>
<clus scale="  219.780">  1  5  2 -1</clus>
<clus scale="  512.449">  7 10 -1 -1</clus>
<clus scale="  140.346">  2  5  1 -1</clus>
</clustering>
</event>
<event>
10    4  0.3545423E-005  0.9800440E+03  0.7546771E-02  0.9383529E-01
          2   -1    0    0  503    0 -0.00000000000E+00  0.00000000000E+00  0.20603770476E+04  0.20603770476E+04  0.00000000000E+00 0. -1.
         21   -1    0    0  501  502  0.00000000000E+00 -0.00000000000E+00 -0.45054644730E+03  0.45054644730E+03  0.00000000000E+00 0. -1.
         24    2    1    2    0    0 -0.79947454215E+03  0.12184867727E+03  0.76424498573E+03  0.11154957252E+04  0.79080155414E+02 0.  0.
         23    2    1    2    0    0 -0.76176353196E+01  0.11078363635E+03  0.20014053610E+03  0.24539586745E+03  0.88497768994E+02 0.  0.
        -11    1    3    3    0    0 -0.20920465694E+03  0.67368858225E+02  0.20749563989E+03  0.30225749307E+03  0.00000000000E+00 0.  1.
         12    1    3    3    0    0 -0.59026988521E+03  0.54479819045E+02  0.55674934583E+03  0.81323823211E+03  0.00000000000E+00 0. -1.
        -11    1    4    4    0    0  0.40734189156E+01  0.90729884089E+02  0.74040839186E+02  0.11717743160E+03  0.00000000000E+00 0. -1.
         11    1    4    4    0    0 -0.11691054235E+02  0.20053752262E+02  0.12609969692E+03  0.12821843585E+03  0.00000000000E+00 0.  1.
         21    1    1    2  503  502 -0.25030812768E+01 -0.62338702759E+02 -0.41306602091E+02  0.74823890930E+02  0.00000000000E+00 0.  1.
          1    1    1    2  501    0  0.80959525875E+03 -0.17029361086E+03  0.68675168055E+03  0.10752080113E+04  0.00000000000E+00 0. -1.
<scales pt_clust_5="13000.00000" pt_clust_6="13000.00000" pt_clust_7="13000.00000" pt_clust_8="13000.00000" pt_clust_9="62.38894" pt_clust_10="13000.00000"></scales>
<clustering>
<clus scale="   62.389">  2  9  1 -1</clus>
<clus scale="   79.080">  5  6 -1 -1</clus>
<clus scale="   88.498">  7  8 -1 -1</clus>
<clus scale="  809.958">  1  5  2 -1</clus>
<clus scale="  206.675">  7 10 -1 -1</clus>
<clus scale="   62.389">  2  5  1 -1</clus>
</clustering>
</event>
<event>
10    4  0.2866397E-005  0.3972935E+03  0.7546771E-02  0.1077438E+00
         -1   -1    0    0    0  501 -0.00000000000E+00  0.00000000000E+00  0.10244310533E+04  0.10244310533E+04  0.00000000000E+00 0.  1.
         21   -1    0    0  503  502  0.00000000000E+00 -0.00000000000E+00 -0.88550337404E+02  0.88550337404E+02  0.00000000000E+00 0. -1.
         24    2    1    2    0    0 -0.40382578865E+02 -0.12668655906E+03  0.14732819994E+03  0.21857544058E+03  0.91593601317E+02 0.  0.
         23    2    1    2    0    0  0.10290055230E+03  0.15787028494E+03  0.74437786191E+03  0.77386116077E+03  0.96182869089E+02 0.  0.
        -11    1    3    3    0    0 -0.57641855072E+02 -0.43030944066E+02  0.92087716595E+02  0.11685201389E+03  0.00000000000E+00 0.  1.
         12    1    3    3    0    0  0.17259276207E+02 -0.83655614996E+02  0.55240483346E+02  0.10172342668E+03  0.00000000000E+00 0. -1.
        -11    1    4    4    0    0  0.75155122806E+02  0.44166337467E+02  0.22131927017E+03  0.23786798271E+03  0.00000000000E+00 0.  1.
         11    1    4    4    0    0  0.27745429494E+02  0.11370394748E+03  0.52305859174E+03  0.53599317806E+03  0.00000000000E+00 0. -1.
         21    1    1    2  503  501  0.21031467112E+02  0.47740450614E+00  0.17318618243E+02  0.27248579079E+02  0.00000000000E+00 0.  1.
         -2    1    1    2    0  502 -0.83549440547E+02 -0.31661130388E+02  0.26856035790E+02  0.93296210274E+02  0.00000000000E+00 0.  1.
<scales pt_clust_5="13000.00000" pt_clust_6="13000.00000" pt_clust_7="13000.00000" pt_clust_8="13000.00000" pt_clust_9="21.03688" pt_clust_10="13000.00000"></scales>
<clustering>
<clus scale="   21.037">  2  9  1 -1</clus>
<clus scale="   91.594">  5  6 -1 -1</clus>
<clus scale="   96.183">  7  8 -1 -1</clus>
<clus scale="   81.511">  7 10 -1 -1</clus>
<clus scale="  159.294">  1  5  2 -1</clus>
<clus scale="   21.037">  2  5  1 -1</clus>
</clustering>
</event>
<event>
10    4  0.2866397E-005  0.3452176E+03  0.7546771E-02  0.1089313E+00
          2   -1    0    0  502    0 -0.00000000000E+00  0.00000000000E+00  0.90980148537E+03  0.90980148537E+03  0.00000000000E+00 0. -1.
         21   -1    0    0  503  502  0.00000000000E+00 -0.00000000000E+00 -0.94967027385E+02  0.94967027385E+02  0.00000000000E+00 0. -1.
         24    2    1    2    0    0  0.12368290846E+03 -0.11263113575E+03  0.39137324452E+03  0.43313037669E+03  0.80284943178E+02 0.  0.
         23    2    1    2    0    0 -0.19463956783E+02 -0.92768442655E+02  0.16111466649E+03  0.20785311790E+03  0.90885385494E+02 0.  0.
        -13    1    3    3    0    0  0.86357997085E+02 -0.56428615896E+02  0.14679772456E+03  0.17941979904E+03  0.00000000000E+00 0.  1.
         14    1    3    3    0    0  0.37324911378E+02 -0.56202519856E+02  0.24457551997E+03  0.25371057765E+03  0.00000000000E+00 0. -1.
        -13    1    4    4    0    0  0.33959231831E+02 -0.50948901896E+02  0.57453308648E+02  0.83963698736E+02  0.00000000000E+00 0.  1.
         13    1    4    4    0    0 -0.53423188614E+02 -0.41819540759E+02  0.10366135784E+03  0.12388941917E+03  0.00000000000E+00 0. -1.
         21    1    1    2  503  501 -0.39098284151E+02  0.13850662371E+02  0.14708706768E+02  0.44009802618E+02  0.00000000000E+00 0.  1.
          1    1    1    2  501    0 -0.65120667529E+02  0.19154891604E+03  0.24763784021E+03  0.31977521554E+03  0.00000000000E+00 0. -1.
<scales pt_clust_5="13000.00000" pt_clust_6="13000.00000" pt_clust_7="13000.00000" pt_clust_8="13000.00000" pt_clust_9="41.47911" pt_clust_10="13000.00000"></scales>
<clustering>
<clus scale="   41.479">  2  9  1 -1</clus>
<clus scale="   80.285">  5  6 -1 -1</clus>
<clus scale="   90.885">  7  8 -1 -1</clus>
<clus scale="  176.692">  1  5  2 -1</clus>
<clus scale="  130.541">  7 10 -1 -1</clus>
<clus scale="   41.479">  2  5  1 -1</clus>
</clustering>
</event>
<event>
10    4  0.2866397E-005  0.3036514E+03  0.7546771E-02  0.1103674E+00
         21   -1    0    0  501  502  0.00000000000E+00  0.00000000000E+00  0.78476131941E+02  0.78476131941E+02  0.00000000000E+00 0. -1.
          2   -1    0    0  503    0 -0.00000000000E+00 -0.00000000000E+00 -0.16363091093E+04  0.16363091093E+04  0.00000000000E+00 0. -1.
         24    2    1    2    0    0 -0.15271783573E+03 -0.35733455980E+02 -0.95212429602E+03  0.96831184889E+03  0.80545294117E+02 0.  0.
         23    2    1    2    0    0  0.11159374973E+03  0.91374798268E+02 -0.18270372154E+03  0.25091939757E+03  0.93687648457E+02 0.  0.
        -13    1    3    3    0    0 -0.93621004560E+02  0.16232313105E+02 -0.43695567842E+03  0.44716735725E+03  0.00000000000E+00 0.  1.
         14    1    3    3    0    0 -0.59096831167E+02 -0.51965769084E+02 -0.51516861760E+03  0.52114449164E+03  0.00000000000E+00 0. -1.
        -13    1    4    4    0    0  0.90385451512E+02  0.94829605298E+02 -0.98192284715E+02  0.16371899298E+03  0.00000000000E+00 0. -1.
         13    1    4    4    0    0  0.21208298216E+02 -0.34548070304E+01 -0.84511436830E+02  0.87200404586E+02  0.00000000000E+00 0.  1.
         21    1    1    2  503  502 -0.67030735980E+01 -0.26484896973E+02  0.29145032601E+02  0.39947639338E+02  0.00000000000E+00 0. -1.
          1    1    1    2  501    0  0.47827159597E+02 -0.29156445315E+02 -0.45214999237E+03  0.45560635542E+03  0.00000000000E+00 0. -1.
<scales pt_clust_5="13000.00000" pt_clust_6="13000.00000" pt_clust_7="13000.00000" pt_clust_8="13000.00000" pt_clust_9="27.31997" pt_clust_10="13000.00000"></scales>
<clustering>
<clus scale="   27.320">  1  9  2 -1</clus>
<clus scale="   80.545">  5  6 -1 -1</clus>
<clus scale="   93.688">  7  8 -1 -1</clus>
<clus scale="   56.340">  7 10 -1 -1</clus>
<clus scale="  178.433">  2  5  1 -1</clus>
<clus scale="   27.320">  1  5  2 -1</clus>
</clustering>
</event>
<event>
10    4  0.2866397E-005  0.1331797E+03  0.7546771E-02  0.1236511E+00
         -1   -1    0    0    0  501 -0.00000000000E+00  0.00000000000E+00  0.39504974060E+03  0.39504974060E+03  0.00000000000E+00 0.  1.
         21   -1    0    0  503  502  0.00000000000E+00 -0.00000000000E+00 -0.49844094746E+02  0.49844094746E+02  0.00000000000E+00 0. -1.
         24    2    1    2    0    0 -0.38253737634E+02 -0.30012219130E+02  0.12353214463E+03  0.15463449752E+03  0.79294106508E+02 0.  0.
         23    2    1    2    0    0  0.38400458790E+02  0.28397506507E+02  0.15682736504E+03  0.18633797707E+03  0.88577681520E+02 0.  0.
        -13    1    3    3    0    0 -0.23814177763E+02 -0.27858543467E+02  0.13251716700E+03  0.13749186542E+03  0.00000000000E+00 0.  1.
         14    1    3    3    0    0 -0.14439559871E+02 -0.21536756629E+01 -0.89850223760E+01  0.17142632098E+02  0.00000000000E+00 0. -1.
        -13    1    4    4    0    0  0.51480512825E+02  0.51563849937E+02  0.12659968094E+03  0.14607037014E+03  0.00000000000E+00 0.  1.
         13    1    4    4    0    0 -0.13080054036E+02 -0.23166343430E+02  0.30227684102E+02  0.40267606927E+02  0.00000000000E+00 0. -1.
         21    1    1    2  503  501 -0.40660684295E+02  0.14427430533E+01  0.33159838881E+02  0.52487595387E+02  0.00000000000E+00 0. -1.
         -2    1    1    2    0  502  0.40513963140E+02  0.17196956941E+00  0.31686297308E+02  0.51433765368E+02  0.00000000000E+00 0.  1.
<scales pt_clust_5="13000.00000" pt_clust_6="13000.00000" pt_clust_7="13000.00000" pt_clust_8="13000.00000" pt_clust_9="40.68627" pt_clust_10="13000.00000"></scales>
<clustering>
<clus scale="   40.686">  2  9  1 -1</clus>
<clus scale="   79.294">  5  6 -1 -1</clus>
<clus scale="   88.578">  7  8 -1 -1</clus>
<clus scale="   30.527">  7 10 -1 -1</clus>
<clus scale="  100.350">  1  5  2 -1</clus>
<clus scale="   40.686">  2  5  1 -1</clus>
</clustering>
</event>
<event>
10    4  0.2866397E-005  0.5213151E+03  0.7546771E-02  0.1041715E+00
          2   -1    0    0  503    0 -0.00000000000E+00  0.00000000000E+00  0.13757037585E+04  0.13757037585E+04  0.00000000000E+00 0. -1.
         21   -1    0    0  501  502  0.00000000000E+00 -0.00000000000E+00 -0.11431862002E+03  0.11431862002E+03  0.00000000000E+00 0. -1.
         24    2    1    2    0    0  0.11207992386E+03 -0.13731368049E+03  0.53849687464E+03  0.57263070112E+03  0.80685064866E+02 0.  0.
         23    2    1    2    0    0 -0.15296764238E+02 -0.17159653024E+03  0.19766453295E+03  0.27804077193E+03  0.92498881513E+02 0.  0.
        -13    1    3    3    0    0  0.68799638934E+02 -0.44865981667E+02  0.33557689262E+03  0.34548255743E+03  0.00000000000E+00 0.  1.
         14    1    3    3    0    0  0.43280284924E+02 -0.92447698821E+02  0.20291998201E+03  0.22714814369E+03  0.00000000000E+00 0. -1.
        -11    1    4    4    0    0  0.77716429874E+01 -0.41175172873E+02  0.22385001168E+01  0.41961937260E+02  0.00000000000E+00 0.  1.
         11    1    4    4    0    0 -0.23068407225E+02 -0.13042135737E+03  0.19542603283E+03  0.23607883467E+03  0.00000000000E+00 0. -1.
         21    1    1    2  503  502 -0.19185535911E+02  0.85881586897E+01 -0.79827055856E+01  0.22484769208E+02  0.00000000000E+00 0.  1.
          1    1    1    2  501    0 -0.77597623709E+02  0.30032205204E+03  0.53320643645E+03  0.61686613623E+03  0.00000000000E+00 0. -1.
<scales pt_clust_5="13000.00000" pt_clust_6="13000.00000" pt_clust_7="13000.00000" pt_clust_8="13000.00000" pt_clust_9="21.02002" pt_clust_10="13000.00000"></scales>
<clustering>
<clus scale="   21.020">  2  9  1 -1</clus>
<clus scale="   80.685">  5  6 -1 -1</clus>
<clus scale="   92.499">  7  8 -1 -1</clus>
<clus scale="  191.815">  1  5  2 -1</clus>
<clus scale="  206.834">  7 10 -1 -1</clus>
<clus scale="   21.020">  2  5  1 -1</clus>
</clustering>
</event>
<event>
10    4  0.2866397E-005  0.1469033E+03  0.7546771E-02  0.1227436E+00
         21   -1    0    0  501  502  0.00000000000E+00  0.00000000000E+00  0.97776483127E+03  0.97776483127E+03  0.00000000000E+00 0. -1.
          2   -1    0    0  503    0 -0.00000000000E+00 -0.00000000000E+00 -0.51523507697E+02  0.51523507697E+02  0.00000000000E+00 0. -1.
         24    2    1    2    0    0 -0.59656059566E+02 -0.35427888397E+02  0.70272481251E+03  0.71076349792E+03  0.80923464622E+02 0.  0.
         23    2    1    2    0    0 -0.56085645999E+01 -0.21730910933E+02  0.35568026025E+02  0.99713343476E+02  0.90410054226E+02 0.  0.
        -13    1    3    3    0    0 -0.55081362265E+02 -0.71305635793E+01  0.21047768078E+03  0.21768246487E+03  0.00000000000E+00 0.  1.
         14    1    3    3    0    0 -0.45746973017E+01 -0.28297324818E+02  0.49224713174E+03  0.49308103305E+03  0.00000000000E+00 0. -1.
        -13    1    4    4    0    0 -0.44529546938E+02  0.39596381264E+01  0.27210358139E+02  0.52335101744E+02  0.00000000000E+00 0.  1.
         13    1    4    4    0    0  0.38920982338E+02 -0.25690549060E+02  0.83576678859E+01  0.47378241732E+02  0.00000000000E+00 0. -1.
         21    1    1    2  503  502  0.27047615914E+02  0.22986581659E+02  0.15226781037E+03  0.15635038387E+03  0.00000000000E+00 0. -1.
          1    1    1    2  501    0  0.38217008252E+02  0.34172217672E+02  0.35680674668E+02  0.62461113704E+02  0.00000000000E+00 0. -1.
<scales pt_clust_5="13000.00000" pt_clust_6="13000.00000" pt_clust_7="13000.00000" pt_clust_8="13000.00000" pt_clust_9="35.49587" pt_clust_10="13000.00000"></scales>
<clustering>
<clus scale="   35.496">  1  9  2 -1</clus>
<clus scale="   80.923">  5  6 -1 -1</clus>
<clus scale="   90.128">  2  5  1 -1</clus>
<clus scale="   90.410">  7  8 -1 -1</clus>
<clus scale="   41.755">  7 10 -1 -1</clus>
<clus scale="   35.496">  1  5  2 -1</clus>
</clustering>
</event>
<event>
10    4  0.2866397E-005  0.3293926E+03  0.7546771E-02  0.1108997E+00
         21   -1    0    0  501  502  0.00000000000E+00  0.00000000000E+00  0.13783170940E+03  0.13783170940E+03  0.00000000000E+00 0. -1.
          2   -1    0    0  503    0 -0.00000000000E+00 -0.00000000000E+00 -0.11347355670E+04  0.11347355670E+04  0.00000000000E+00 0. -1.
         24    2    1    2    0    0  0.35574074231E+02 -0.87105073793E+02 -0.30843856936E+03  0.33167070175E+03  0.77577668774E+02 0.  0.
         23    2    1    2    0    0  0.88987373863E+02 -0.18175535100E+02 -0.21730788000E+03  0.25244662186E+03  0.90870674025E+02 0.  0.
        -11    1    3    3    0    0  0.10785839993E+02 -0.82717906509E+02 -0.28610601399E+03  0.29801885451E+03  0.00000000000E+00 0.  1.
         12    1    3    3    0    0  0.24788234238E+02 -0.43871672848E+01 -0.22332555372E+02  0.33651847243E+02  0.00000000000E+00 0. -1.
        -13    1    4    4    0    0  0.40661310262E+02  0.12960360837E+02 -0.20368771778E+02  0.47288476069E+02  0.00000000000E+00 0. -1.
         13    1    4    4    0    0  0.48326063601E+02 -0.31135895937E+02 -0.19693910822E+03  0.20515814579E+03  0.00000000000E+00 0.  1.
         21    1    1    2  503  502 -0.78901743206E+02 -0.12347291075E+03  0.16911227643E+02  0.14750265893E+03  0.00000000000E+00 0. -1.
          1    1    1    2  501    0 -0.45659704888E+02  0.22875351964E+03 -0.48806863592E+03  0.54094729389E+03  0.00000000000E+00 0. -1.
<scales pt_clust_5="13000.00000" pt_clust_6="13000.00000" pt_clust_7="13000.00000" pt_clust_8="13000.00000" pt_clust_9="151.00332" pt_clust_10="13000.00000"></scales>
<clustering>
<clus scale="   77.578">  5  6 -1 -1</clus>
<clus scale="   90.871">  7  8 -1 -1</clus>
<clus scale="  121.947">  2  5  1 -1</clus>
<clus scale="  151.003">  1  9  2 -1</clus>
<clus scale="  128.977">  7 10 -1 -1</clus>
<clus scale="  151.003">  1  5  2 -1</clus>
</clustering>
</event>
<event>
10    4  0.2866397E-005  0.9817994E+03  0.7546771E-02  0.1005862E+00
         21   -1    0    0  503  502  0.00000000000E+00  0.00000000000E+00  0.23645137155E+03  0.23645137155E+03  0.00000000000E+00 0. -1.
          2   -1    0    0  502    0 -0.00000000000E+00 -0.00000000000E+00 -0.20079160543E+04  0.20079160543E+04  0.00000000000E+00 0. -1.
         24    2    1    2    0    0  0.30398860219E+02 -0.33980305082E+02 -0.36600391068E+03  0.37552126552E+03  0.70559240259E+02 0.  0.
         23    2    1    2    0    0 -0.40550065187E+02 -0.35682073382E+03 -0.16355113494E+03  0.40470882559E+03  0.89860535809E+02 0.  0.
        -13    1    3    3    0    0 -0.18606790249E+02 -0.29383757858E+02 -0.15406288075E+03  0.15793982745E+03  0.00000000000E+00 0.  1.
         14    1    3    3    0    0  0.49005650468E+02 -0.45965472235E+01 -0.21194102993E+03  0.21758143807E+03  0.00000000000E+00 0. -1.
        -13    1    4    4    0    0  0.91258350420E+00 -0.81735172222E+02 -0.79673533859E+02  0.11414614836E+03  0.00000000000E+00 0. -1.
         13    1    4    4    0    0 -0.41462648691E+02 -0.27508556160E+03 -0.83877601085E+02  0.29056267723E+03  0.00000000000E+00 0.  1.
         21    1    1    2  503  501  0.36415677434E+02  0.67992509278E+01  0.79556214677E+02  0.87758319662E+02  0.00000000000E+00 0. -1.
          1    1    1    2  501    0 -0.26264472466E+02  0.38400178797E+03 -0.13214658518E+04  0.13763790150E+04  0.00000000000E+00 0. -1.
<scales pt_clust_5="13000.00000" pt_clust_6="13000.00000" pt_clust_7="13000.00000" pt_clust_8="13000.00000" pt_clust_9="37.04499" pt_clust_10="13000.00000"></scales>
<clustering>
<clus scale="   37.045">  1  9  2 -1</clus>
<clus scale="   70.559">  5  6 -1 -1</clus>
<clus scale="   84.340">  2  5  1 -1</clus>
<clus scale="   89.861">  7  8 -1 -1</clus>
<clus scale="  357.264">  7 10 -1 -1</clus>
<clus scale="   37.045">  1  5  2 -1</clus>
</clustering>
</event>
<event>
10    4  0.2866397E-005  0.2631738E+03  0.7546771E-02  0.1118579E+00
          2   -1    0    0  502    0 -0.00000000000E+00  0.00000000000E+00  0.42916106127E+03  0.42916106127E+03  0.00000000000E+00 0. -1.
         21   -1    0    0  503  502  0.00000000000E+00 -0.00000000000E+00 -0.31675720319E+03  0.31675720319E+03  0.00000000000E+00 0.  1.
         24    2    1    2    0    0  0.16306765836E+03  0.96300165543E+01 -0.13041038295E+03  0.22655289586E+03  0.87381624055E+02 0.  0.
         23    2    1    2    0    0 -0.83581376538E+02 -0.99741667207E+02  0.16724470703E+03  0.23046961314E+03  0.90615693289E+02 0.  0.
        -13    1    3    3    0    0  0.58101345695E+02  0.31341769053E+02 -0.90839209526E+02  0.11229352095E+03  0.00000000000E+00 0.  1.
         14    1    3    3    0    0  0.10496631267E+03 -0.21711752499E+02 -0.39571173420E+02  0.11425937492E+03  0.00000000000E+00 0. -1.
        -13    1    4    4    0    0 -0.59765255131E+02 -0.10302419348E+02  0.38237245841E+02  0.71694578141E+02  0.00000000000E+00 0.  1.
         13    1    4    4    0    0 -0.23816121407E+02 -0.89439247860E+02  0.12900746119E+03  0.15877503500E+03  0.00000000000E+00 0. -1.
         21    1    1    2  503  501  0.64764032911E-01  0.26956203305E+02 -0.90388114069E+02  0.94322066644E+02  0.00000000000E+00 0.  1.
          1    1    1    2  501    0 -0.79551045856E+02  0.63155447348E+02  0.16595764807E+03  0.19457368882E+03  0.00000000000E+00 0. -1.
<scales pt_clust_5="13000.00000" pt_clust_6="13000.00000" pt_clust_7="13000.00000" pt_clust_8="13000.00000" pt_clust_9="26.95628" pt_clust_10="13000.00000"></scales>
<clustering>
<clus scale="   26.956">  2  9  1 -1</clus>
<clus scale="   87.382">  5  6 -1 -1</clus>
<clus scale="   90.616">  7  8 -1 -1</clus>
<clus scale="  102.647">  7 10 -1 -1</clus>
<clus scale="  187.640">  1  5  2 -1</clus>
<clus scale="   26.956">  2  5  1 -1</clus>
</clustering>
</event>
<event>
10    4  0.2866397E-005  0.5906465E+03  0.7546771E-02  0.1057957E+00
         21   -1    0    0  503  502  0.00000000000E+00  0.00000000000E+00  0.22783577885E+03  0.22783577885E+03  0.00000000000E+00 0. -1.
          2   -1    0    0  502    0 -0.00000000000E+00 -0.00000000000E+00 -0.15440287328E+04  0.15440287328E+04  0.00000000000E+00 0. -1.
         24    2    1    2    0    0 -0.52521229001E+01 -0.26304951894E+02  0.15355671312E+02  0.87355249985E+02  0.81704392595E+02 0.  0.
         23    2    1    2    0    0 -0.26401172400E+03 -0.86025395081E+02 -0.10373263464E+04  0.10776681520E+04  0.90664976559E+02 0.  0.
        -13    1    3    3    0    0 -0.18396649368E+02 -0.16061867613E+02 -0.30204907938E+02  0.38842718271E+02  0.00000000000E+00 0.  1.
         14    1    3    3    0    0  0.13144526468E+02 -0.10243084282E+02  0.45560579250E+02  0.48512531714E+02  0.00000000000E+00 0. -1.
        -11    1    4    4    0    0 -0.15118560388E+03 -0.94499152119E+02 -0.66955092072E+03  0.69288210541E+03  0.00000000000E+00 0.  1.
         11    1    4    4    0    0 -0.11282612012E+03  0.84737570376E+01 -0.36777542566E+03  0.38478604660E+03  0.00000000000E+00 0. -1.
         21    1    1    2  503  501  0.23203671291E+02  0.27850268516E+02  0.11574812752E+03  0.12129170145E+03  0.00000000000E+00 0. -1.
          1    1    1    2  501    0  0.24606017560E+03  0.84480078459E+02 -0.40997040635E+03  0.48554940816E+03  0.00000000000E+00 0. -1.
<scales pt_clust_5="13000.00000" pt_clust_6="13000.00000" pt_clust_7="13000.00000" pt_clust_8="13000.00000" pt_clust_9="36.24980" pt_clust_10="13000.00000"></scales>
<clustering>
<clus scale="   36.250">  1  9  2 -1</clus>
<clus scale="   81.704">  5  6 -1 -1</clus>
<clus scale="   82.960">  2  5  1 -1</clus>
<clus scale="   90.665">  7  8 -1 -1</clus>
<clus scale="  271.217">  7 10 -1 -1</clus>
<clus scale="   36.250">  1  5  2 -1</clus>
</clustering>
</event>
<event>
10    4  0.2866397E-005  0.3914565E+03  0.7546771E-02  0.1092521E+00
          2   -1    0    0  502    0 -0.00000000000E+00  0.00000000000E+00  0.12372461841E+04  0.12372461841E+04  0.00000000000E+00 0. -1.
         21   -1    0    0  503  502  0.00000000000E+00 -0.00000000000E+00 -0.18436534973E+03  0.18436534973E+03  0.00000000000E+00 0. -1.
         24    2    1    2    0    0 -0.54518512929E+02 -0.60928231747E+02  0.22382234603E+03  0.24880111982E+03  0.71561420926E+02 0.  0.
         23    2    1    2    0    0  0.13642278917E+03  0.16963526891E+03  0.44941861204E+03  0.50834154882E+03  0.95114349839E+02 0.  0.
        -11    1    3    3    0    0 -0.25288149100E+02 -0.72811702009E+02  0.16104564405E+03  0.17854056654E+03  0.00000000000E+00 0.  1.
         12    1    3    3    0    0 -0.29230363829E+02  0.11883470262E+02  0.62776701981E+02  0.70260553276E+02  0.00000000000E+00 0. -1.
        -11    1    4    4    0    0  0.11821985092E+02  0.43051106922E+02  0.18137382006E+03  0.18678763273E+03  0.00000000000E+00 0.  1.
         11    1    4    4    0    0  0.12460080408E+03  0.12658416199E+03  0.26804479198E+03  0.32155391608E+03  0.00000000000E+00 0. -1.
         21    1    1    2  503  501 -0.52164598559E+02  0.33926609603E+02 -0.12477589738E+03  0.13943164902E+03  0.00000000000E+00 0. -1.
          1    1    1    2  501    0 -0.29739677681E+02 -0.14263364677E+03  0.50441577367E+03  0.52503721616E+03  0.00000000000E+00 0. -1.
<scales pt_clust_5="13000.00000" pt_clust_6="13000.00000" pt_clust_7="13000.00000" pt_clust_8="13000.00000" pt_clust_9="62.22668" pt_clust_10="13000.00000"></scales>
<clustering>
<clus scale="   62.227">  2  9  1 -1</clus>
<clus scale="   71.561">  5  6 -1 -1</clus>
<clus scale="   95.114">  7  8 -1 -1</clus>
<clus scale="  111.346">  1  5  2 -1</clus>
<clus scale="  178.530">  7 10 -1 -1</clus>
<clus scale="   62.227">  2  5  1 -1</clus>
</clustering>
</event>
<event>
10    4  0.2866397E-005  0.3105646E+03  0.7546771E-02  0.1095315E+00
         21   -1    0    0  501  502  0.00000000000E+00  0.00000000000E+00  0.57958052237E+02  0.57958052237E+02  0.00000000000E+00 0.  1.
          2   -1    0    0  503    0 -0.00000000000E+00 -0.00000000000E+00 -0.17474122494E+04  0.17474122494E+04  0.00000000000E+00 0. -1.
         24    2    1    2    0    0  0.20743106644E+03  0.36317412382E+01 -0.55264916729E+03  0.59572986947E+03  0.80200613480E+02 0.  0.
         23    2    1    2    0    0 -0.81102587973E+02  0.11007717767E+03 -0.59701628829E+03  0.61933565702E+03  0.91943421535E+02 0.  0.
        -11    1    3    3    0    0  0.11296611118E+03  0.41838545289E+02 -0.29241245059E+03  0.31625440299E+03  0.00000000000E+00 0.  1.
         12    1    3    3    0    0  0.94464955258E+02 -0.38206804050E+02 -0.26023671670E+03  0.27947546648E+03  0.00000000000E+00 0. -1.
        -11    1    4    4    0    0 -0.28643488331E+02  0.86872469760E+02 -0.48429998674E+03  0.49286281315E+03  0.00000000000E+00 0. -1.
         11    1    4    4    0    0 -0.52459099642E+02  0.23204707911E+02 -0.11271630154E+03  0.12647284388E+03  0.00000000000E+00 0.  1.
         21    1    1    2  503  502 -0.31434974128E+02 -0.15248022305E+02 -0.15559567728E+01  0.34972571883E+02  0.00000000000E+00 0.  1.
          1    1    1    2  501    0 -0.94893504341E+02 -0.98460896605E+02 -0.53823278477E+03  0.55533220322E+03  0.00000000000E+00 0. -1.
<scales pt_clust_5="13000.00000" pt_clust_6="13000.00000" pt_clust_7="13000.00000" pt_clust_8="13000.00000" pt_clust_9="34.93794" pt_clust_10="13000.00000"></scales>
<clustering>
<clus scale="   34.938">  1  9  2 -1</clus>
<clus scale="   80.201">  5  6 -1 -1</clus>
<clus scale="   91.943">  7  8 -1 -1</clus>
<clus scale="  143.564">  7 10 -1 -1</clus>
<clus scale="  207.215">  2  5  1 -1</clus>
<clus scale="   34.938">  1  5  2 -1</clus>
</clustering>
</event>
<event>
10    4  0.2866397E-005  0.2590116E+03  0.7546771E-02  0.1128966E+00
         21   -1    0    0  503  502  0.00000000000E+00  0.00000000000E+00  0.37038493998E+03  0.37038493998E+03  0.00000000000E+00 0.  1.
         -1   -1    0    0    0  501 -0.00000000000E+00 -0.00000000000E+00 -0.36948519745E+03  0.36948519745E+03  0.00000000000E+00 0.  1.
         24    2    1    2    0    0 -0.10843482643E+03  0.46319000908E+02 -0.24711595951E+03  0.28818658616E+03  0.89897995350E+02 0.  0.
         23    2    1    2    0    0 -0.15735909589E+02 -0.10305763877E+02  0.54431392408E+01  0.91373711296E+02  0.89250768801E+02 0.  0.
        -13    1    3    3    0    0 -0.81943336327E+02  0.64303905000E+02 -0.22856677897E+03  0.25118215505E+03  0.00000000000E+00 0.  1.
         14    1    3    3    0    0 -0.26491490103E+02 -0.17984904092E+02 -0.18549180549E+02  0.37004431115E+02  0.00000000000E+00 0. -1.
        -11    1    4    4    0    0 -0.45832394922E+02  0.42007452447E+01  0.25288110575E+02  0.52514219230E+02  0.00000000000E+00 0.  1.
         11    1    4    4    0    0  0.30096485333E+02 -0.14506509122E+02 -0.19844971334E+02  0.38859492065E+02  0.00000000000E+00 0. -1.
         21    1    1    2  503  501 -0.36842402369E+02  0.61301508947E+02  0.10582074909E+03  0.12772340643E+03  0.00000000000E+00 0.  1.
         -2    1    1    2    0  502  0.16101313839E+03 -0.97314745978E+02  0.13675181371E+03  0.23258643355E+03  0.00000000000E+00 0.  1.
<scales pt_clust_5="13000.00000" pt_clust_6="13000.00000" pt_clust_7="13000.00000" pt_clust_8="13000.00000" pt_clust_9="71.52089" pt_clust_10="13000.00000"></scales>
<clustering>
<clus scale="   71.521">  1  9  2 -1</clus>
<clus scale="   89.251">  7  8 -1 -1</clus>
<clus scale="   89.898">  5  6 -1 -1</clus>
<clus scale="  144.156">  7 10 -1 -1</clus>
<clus scale="  152.071">  2  5  1 -1</clus>
<clus scale="   71.521">  1  5  2 -1</clus>
</clustering>
</event>
<event>
10    4  0.2866397E-005  0.1562334E+03  0.7546771E-02  0.1208896E+00
         21   -1    0    0  501  502  0.00000000000E+00  0.00000000000E+00  0.81814786217E+02  0.81814786217E+02  0.00000000000E+00 0. -1.
          2   -1    0    0  503    0 -0.00000000000E+00 -0.00000000000E+00 -0.44410547290E+03  0.44410547290E+03  0.00000000000E+00 0. -1.
         24    2    1    2    0    0  0.57497276492E+02  0.50396029154E+01  0.18501105404E+02  0.99838855539E+02  0.79335816455E+02 0.  0.
         23    2    1    2    0    0 -0.47212372370E+02  0.20412393024E+02 -0.18473020475E+03  0.21217570007E+03  0.90816327052E+02 0.  0.
        -11    1    3    3    0    0  0.20477765869E+01 -0.24520518832E+02 -0.14809610243E+02  0.28718875123E+02  0.00000000000E+00 0.  1.
         12    1    3    3    0    0  0.55449499905E+02  0.29560121748E+02  0.33310715648E+02  0.71119980416E+02  0.00000000000E+00 0. -1.
        -11    1    4    4    0    0  0.60212835555E+01  0.35313228059E+02 -0.12819277834E+03  0.13310397571E+03  0.00000000000E+00 0.  1.
         11    1    4    4    0    0 -0.53233655925E+02 -0.14900835035E+02 -0.56537426410E+02  0.79071724359E+02  0.00000000000E+00 0. -1.
         21    1    1    2  503  502  0.24562338304E+02  0.59387459075E+01 -0.21580389875E+02  0.33230865066E+02  0.00000000000E+00 0. -1.
          1    1    1    2  501    0 -0.34847242426E+02 -0.31390741847E+02 -0.17448119746E+03  0.18067483844E+03  0.00000000000E+00 0. -1.
<scales pt_clust_5="13000.00000" pt_clust_6="13000.00000" pt_clust_7="13000.00000" pt_clust_8="13000.00000" pt_clust_9="25.27008" pt_clust_10="13000.00000"></scales>
<clustering>
<clus scale="   25.270">  1  9  2 -1</clus>
<clus scale="   79.336">  5  6 -1 -1</clus>
<clus scale="   90.816">  7  8 -1 -1</clus>
<clus scale="   45.998">  7 10 -1 -1</clus>
<clus scale="  110.719">  2  5  1 -1</clus>
<clus scale="   25.270">  1  5  2 -1</clus>
</clustering>
</event>
<event>
10    4  0.2866397E-005  0.1726435E+03  0.7546771E-02  0.1197815E+00
         21   -1    0    0  503  502  0.00000000000E+00  0.00000000000E+00  0.11127206505E+03  0.11127206505E+03  0.00000000000E+00 0. -1.
          2   -1    0    0  502    0 -0.00000000000E+00 -0.00000000000E+00 -0.24065312135E+03  0.24065312135E+03  0.00000000000E+00 0. -1.
         24    2    1    2    0    0 -0.46375847906E+02 -0.37183318774E+02 -0.52292007059E+02  0.11218378726E+03  0.79482260021E+02 0.  0.
         23    2    1    2    0    0  0.94861743447E+02 -0.26032368013E+02 -0.61278320651E+02  0.14371998115E+03  0.84993916525E+02 0.  0.
        -13    1    3    3    0    0  0.52746763683E+01 -0.43107200907E+02 -0.39358385041E+02  0.58610028612E+02  0.00000000000E+00 0.  1.
         14    1    3    3    0    0 -0.51650524274E+02  0.59238821330E+01 -0.12933622017E+02  0.53573758649E+02  0.00000000000E+00 0. -1.
        -11    1    4    4    0    0  0.41413810048E+02 -0.15563066257E+02 -0.75430620367E+02  0.87447648242E+02  0.00000000000E+00 0. -1.
         11    1    4    4    0    0  0.53447933399E+02 -0.10469301756E+02  0.14152299717E+02  0.56272332910E+02  0.00000000000E+00 0.  1.
         21    1    1    2  503  501 -0.37090220750E+02  0.13438578005E+02  0.70469311070E+01  0.40074169887E+02  0.00000000000E+00 0.  1.
          1    1    1    2  501    0 -0.11395674791E+02  0.49777108782E+02 -0.22857659701E+02  0.55947248097E+02  0.00000000000E+00 0. -1.
<scales pt_clust_5="13000.00000" pt_clust_6="13000.00000" pt_clust_7="13000.00000" pt_clust_8="13000.00000" pt_clust_9="39.44971" pt_clust_10="13000.00000"></scales>
<clustering>
<clus scale="   39.450">  1  9  2 -1</clus>
<clus scale="   79.482">  5  6 -1 -1</clus>
<clus scale="   84.994">  7  8 -1 -1</clus>
<clus scale="   55.451">  7 10 -1 -1</clus>
<clus scale="  104.238">  2  5  1 -1</clus>
<clus scale="   39.450">  1  5  2 -1</clus>
</clustering>
</event>
<event>
10    4  0.2866397E-005  0.8445714E+03  0.7546771E-02  0.9839395E-01
          2   -1    0    0  503    0 -0.00000000000E+00  0.00000000000E+00  0.79819135665E+03  0.79819135665E+03  0.00000000000E+00 0. -1.
         21   -1    0    0  501  502  0.00000000000E+00 -0.00000000000E+00 -0.13192365835E+04  0.13192365835E+04  0.00000000000E+00 0.  1.
         24    2    1    2    0    0  0.24970880676E+03 -0.45907184401E+02  0.51340111034E+02  0.27124907953E+03  0.80487877296E+02 0.  0.
         23    2    1    2    0    0  0.31473235163E+02  0.35551631041E+02  0.32004667009E+02  0.97542754062E+02  0.78967127074E+02 0.  0.
        -13    1    3    3    0    0  0.41444910114E+02  0.78285861913E+01  0.36285673728E+02  0.55638273284E+02  0.00000000000E+00 0.  1.
         14    1    3    3    0    0  0.20826389664E+03 -0.53735770592E+02  0.15054437305E+02  0.21561080624E+03  0.00000000000E+00 0. -1.
        -13    1    4    4    0    0 -0.20333554352E+02  0.34528212716E+02  0.10369565639E+02  0.41390564111E+02  0.00000000000E+00 0. -1.
         13    1    4    4    0    0  0.51806789516E+02  0.10234183252E+01  0.21635101370E+02  0.56152189951E+02  0.00000000000E+00 0.  1.
         21    1    1    2  503  502 -0.68604470908E+03 -0.51353321650E+03 -0.66366081359E+03  0.10838908537E+04  0.00000000000E+00 0.  1.
          1    1    1    2  501    0  0.40486266716E+03  0.52388876986E+03  0.59270808657E+02  0.66474525286E+03  0.00000000000E+00 0. -1.
<scales pt_clust_5="13000.00000" pt_clust_6="13000.00000" pt_clust_7="13000.00000" pt_clust_8="13000.00000" pt_clust_9="802.44108" pt_clust_10="13000.00000"></scales>
<clustering>
<clus scale="   78.967">  7  8 -1 -1</clus>
<clus scale="   80.488">  5  6 -1 -1</clus>
<clus scale="  266.346">  1  5  2 -1</clus>
<clus scale="  739.450">  7 10 -1 -1</clus>
<clus scale="  802.441">  2  9  1 -1</clus>
<clus scale="  802.441">  2  5  1 -1</clus>
</clustering>
</event>
<event>
10    4  0.2866397E-005  0.6828600E+03  0.7546771E-02  0.1017241E+00
         21   -1    0    0  503  502  0.00000000000E+00  0.00000000000E+00  0.28145255740E+03  0.28145255740E+03  0.00000000000E+00 0. -1.
          2   -1    0    0  502    0 -0.00000000000E+00 -0.00000000000E+00 -0.14895529692E+04  0.14895529692E+04  0.00000000000E+00 0. -1.
         24    2    1    2    0    0 -0.60604014474E+02 -0.14261401879E+03  0.12608355800E+03  0.21500569417E+03  0.79490754184E+02 0.  0.
         23    2    1    2    0    0  0.21954235428E+03 -0.14605794712E+03 -0.90371163748E+03  0.94587636388E+03  0.91954351696E+02 0.  0.
        -13    1    3    3    0    0  0.46340021703E+01 -0.31028151540E+02  0.64718553620E+02  0.71921563851E+02  0.00000000000E+00 0.  1.
         14    1    3    3    0    0 -0.65238016645E+02 -0.11158586725E+03  0.61365004376E+02  0.14308413032E+03  0.00000000000E+00 0. -1.
        -13    1    4    4    0    0  0.31056641981E+02 -0.56295136591E+02 -0.30809262210E+03  0.31472960014E+03  0.00000000000E+00 0.  1.
         13    1    4    4    0    0  0.18848571230E+03 -0.89762810528E+02 -0.59561901538E+03  0.63114676374E+03  0.00000000000E+00 0. -1.
         21    1    1    2  503  501  0.22479164936E+02 -0.12394353977E+02  0.24298042128E+02  0.35345830277E+02  0.00000000000E+00 0.  1.
          1    1    1    2  501    0 -0.18141750474E+03  0.30106631989E+03 -0.45477037445E+03  0.57477763829E+03  0.00000000000E+00 0. -1.
<scales pt_clust_5="13000.00000" pt_clust_6="13000.00000" pt_clust_7="13000.00000" pt_clust_8="13000.00000" pt_clust_9="25.66969" pt_clust_10="13000.00000"></scales>
<clustering>
<clus scale="   25.670">  1  9  2 -1</clus>
<clus scale="   79.491">  5  6 -1 -1</clus>
<clus scale="   91.954">  7  8 -1 -1</clus>
<clus scale="  176.586">  2  5  1 -1</clus>
<clus scale="  311.637">  7 10 -1 -1</clus>
<clus scale="   25.670">  1  5  2 -1</clus>
</clustering>
</event>
<event>
10    4  0.2866397E-005  0.2106896E+03  0.7546771E-02  0.1168349E+00
         -3   -1    0    0    0  501 -0.00000000000E+00  0.00000000000E+00  0.24970237922E+03  0.24970237922E+03  0.00000000000E+00 0.  1.
         21   -1    0    0  503  502  0.00000000000E+00 -0.00000000000E+00 -0.21689860438E+03  0.21689860438E+03  0.00000000000E+00 0. -1.
         24    2    1    2    0    0  0.63093243546E+02  0.35671763503E+02 -0.13384849181E+03  0.17181161029E+03  0.79690517505E+02 0.  0.
         23    2    1    2    0    0 -0.11710801712E+03 -0.25868706261E+02  0.17286600700E+03  0.22839221388E+03  0.88864331115E+02 0.  0.
        -11    1    3    3    0    0  0.79396288064E+01  0.49441438566E+02 -0.73175373715E+02  0.88668646496E+02  0.00000000000E+00 0.  1.
         12    1    3    3    0    0  0.55153614739E+02 -0.13769675063E+02 -0.60673118092E+02  0.83142963798E+02  0.00000000000E+00 0. -1.
        -11    1    4    4    0    0 -0.50817201126E+02  0.96361036681E+00  0.11821862406E+02  0.52183071067E+02  0.00000000000E+00 0. -1.
         11    1    4    4    0    0 -0.66290815996E+02 -0.26832316628E+02  0.16104414460E+03  0.17620914281E+03  0.00000000000E+00 0.  1.
         21    1    1    2  503  501  0.15009668248E+02 -0.20559027314E+02  0.43845734088E-01  0.25455169759E+02  0.00000000000E+00 0. -1.
         -4    1    1    2    0  502  0.39005105328E+02  0.10755970072E+02 -0.62575860889E+01  0.40941989662E+02  0.00000000000E+00 0.  1.
<scales pt_clust_5="13000.00000" pt_clust_6="13000.00000" pt_clust_7="13000.00000" pt_clust_8="13000.00000" pt_clust_9="25.45513" pt_clust_10="13000.00000"></scales>
<clustering>
<clus scale="   25.455">  2  9  1 -1</clus>
<clus scale="   79.691">  5  6 -1 -1</clus>
<clus scale="   88.864">  7  8 -1 -1</clus>
<clus scale="   41.593">  7 10 -1 -1</clus>
<clus scale="  110.845">  1  5  2 -1</clus>
<clus scale="   25.455">  2  5  1 -1</clus>
</clustering>
</event>
<event>
10    4  0.2866397E-005  0.1818026E+03  0.7546771E-02  0.1172464E+00
         21   -1    0    0  501  502  0.00000000000E+00  0.00000000000E+00  0.36307466842E+02  0.36307466842E+02  0.00000000000E+00 0. -1.
          2   -1    0    0  503    0 -0.00000000000E+00 -0.00000000000E+00 -0.15721466915E+04  0.15721466915E+04  0.00000000000E+00 0. -1.
         24    2    1    2    0    0 -0.82295448870E+02 -0.11126340185E+03 -0.11219489370E+04  0.11344304369E+04  0.94925831098E+02 0.  0.
         23    2    1    2    0    0  0.19273676298E+02  0.43779718245E+02 -0.23109272369E+03  0.25263562932E+03  0.90181904679E+02 0.  0.
        -13    1    3    3    0    0 -0.64309607614E+02 -0.43189917844E+02 -0.31381798608E+03  0.32323802843E+03  0.00000000000E+00 0.  1.
         14    1    3    3    0    0 -0.17985841256E+02 -0.68073484007E+02 -0.80813095092E+03  0.81119240846E+03  0.00000000000E+00 0. -1.
        -11    1    4    4    0    0 -0.10355187909E+01  0.65789763735E+02 -0.11258452786E+03  0.13040184518E+03  0.00000000000E+00 0. -1.
         11    1    4    4    0    0  0.20309195089E+02 -0.22010045490E+02 -0.11850819582E+03  0.12223378414E+03  0.00000000000E+00 0.  1.
         21    1    1    2  503  502  0.45309601851E+01  0.61288047810E+02 -0.63442664287E+02  0.88327379993E+02  0.00000000000E+00 0. -1.
          1    1    1    2  501    0  0.58490812386E+02  0.61956357969E+01 -0.11935489964E+03  0.13306071210E+03  0.00000000000E+00 0. -1.
<scales pt_clust_5="13000.00000" pt_clust_6="13000.00000" pt_clust_7="13000.00000" pt_clust_8="13000.00000" pt_clust_9="61.45530" pt_clust_10="13000.00000"></scales>
<clustering>
<clus scale="   61.455">  1  9  2 -1</clus>
<clus scale="   90.182">  7  8 -1 -1</clus>
<clus scale="   64.353">  7 10 -1 -1</clus>
<clus scale="   94.926">  5  6 -1 -1</clus>
<clus scale="  157.035">  2  5  1 -1</clus>
<clus scale="   61.455">  1  5  2 -1</clus>
</clustering>
</event>
<event>
10    4  0.2866397E-005  0.1780439E+03  0.7546771E-02  0.1192773E+00
          2   -1    0    0  502    0 -0.00000000000E+00  0.00000000000E+00  0.37054305704E+03  0.37054305704E+03  0.00000000000E+00 0. -1.
         21   -1    0    0  503  502  0.00000000000E+00 -0.00000000000E+00 -0.90500071505E+02  0.90500071505E+02  0.00000000000E+00 0. -1.
         24    2    1    2    0    0  0.38983646609E+02 -0.68044487871E+02  0.77036917811E+02  0.13555368327E+03  0.79311646739E+02 0.  0.
         23    2    1    2    0    0  0.22178213210E+02  0.60107430211E+02  0.88445763241E+02  0.14237268127E+03  0.91337566365E+02 0.  0.
        -11    1    3    3    0    0  0.23050847803E+02 -0.87649868017E+01  0.69455807363E+02  0.73703973804E+02  0.00000000000E+00 0.  1.
         12    1    3    3    0    0  0.15932798806E+02 -0.59279501070E+02  0.75811104481E+01  0.61849709462E+02  0.00000000000E+00 0. -1.
        -13    1    4    4    0    0  0.54751736589E+02  0.51465664628E+02  0.74765025575E+02  0.10600130350E+03  0.00000000000E+00 0. -1.
         13    1    4    4    0    0 -0.32573523379E+02  0.86417655836E+01  0.13680737666E+02  0.36371377769E+02  0.00000000000E+00 0.  1.
         21    1    1    2  503  501 -0.22179306056E+02  0.66461787538E+01 -0.27413302435E+02  0.35882899263E+02  0.00000000000E+00 0. -1.
          1    1    1    2  501    0 -0.38982553763E+02  0.12908789062E+01  0.14197360692E+03  0.14723386475E+03  0.00000000000E+00 0. -1.
<scales pt_clust_5="13000.00000" pt_clust_6="13000.00000" pt_clust_7="13000.00000" pt_clust_8="13000.00000" pt_clust_9="23.15369" pt_clust_10="13000.00000"></scales>
<clustering>
<clus scale="   23.154">  2  9  1 -1</clus>
<clus scale="   79.312">  5  6 -1 -1</clus>
<clus scale="   91.338">  7  8 -1 -1</clus>
<clus scale="   40.005">  7 10 -1 -1</clus>
<clus scale="  106.129">  1  5  2 -1</clus>
<clus scale="   23.154">  2  5  1 -1</clus>
</clustering>
</event>
<event>
10    4  0.2866397E-005  0.3987469E+03  0.7546771E-02  0.1088586E+00
          2   -1    0    0  503    0 -0.00000000000E+00  0.00000000000E+00  0.13136781522E+04  0.13136781522E+04  0.00000000000E+00 0. -1.
         21   -1    0    0  501  502  0.00000000000E+00 -0.00000000000E+00 -0.16106905958E+03  0.16106905958E+03  0.00000000000E+00 0.  1.
         24    2    1    2    0    0  0.99000034784E+02 -0.22983388538E+02  0.20458127524E+03  0.24291003389E+03  0.82598688553E+02 0.  0.
         23    2    1    2    0    0 -0.13007648800E+03  0.40925131841E+02  0.18036260938E+03  0.24373089389E+03  0.90990761228E+02 0.  0.
        -11    1    3    3    0    0  0.58586383140E+02  0.28646402296E+02  0.10845200595E+03  0.12654966712E+03  0.00000000000E+00 0.  1.
         12    1    3    3    0    0  0.40413651644E+02 -0.51629790834E+02  0.96129269291E+02  0.11636036677E+03  0.00000000000E+00 0. -1.
        -11    1    4    4    0    0 -0.86518949144E+02  0.59819419179E+02  0.78182714781E+02  0.13105887365E+03  0.00000000000E+00 0.  1.
         11    1    4    4    0    0 -0.43557538851E+02 -0.18894287339E+02  0.10217989460E+03  0.11267202024E+03  0.00000000000E+00 0. -1.
         21    1    1    2  503  502 -0.51079328732E+02  0.10326116962E+03 -0.71945292567E+02  0.13582375380E+03  0.00000000000E+00 0.  1.
          1    1    1    2  501    0  0.82155781943E+02 -0.12120291292E+03  0.83961050057E+03  0.85228253019E+03  0.00000000000E+00 0. -1.
<scales pt_clust_5="13000.00000" pt_clust_6="13000.00000" pt_clust_7="13000.00000" pt_clust_8="13000.00000" pt_clust_9="115.20402" pt_clust_10="13000.00000"></scales>
<clustering>
<clus scale="   82.599">  5  6 -1 -1</clus>
<clus scale="   90.991">  7  8 -1 -1</clus>
<clus scale="  115.204">  2  9  1 -1</clus>
<clus scale="  116.886">  1  5  2 -1</clus>
<clus scale="  165.380">  7 10 -1 -1</clus>
<clus scale="  115.204">  2  5  1 -1</clus>
</clustering>
</event>
<event>
10    4  0.2866397E-005  0.3824792E+03  0.7546771E-02  0.1060606E+00
          2   -1    0    0  502    0 -0.00000000000E+00  0.00000000000E+00  0.50892981375E+03  0.50892981375E+03  0.00000000000E+00 0. -1.
         21   -1    0    0  503  502  0.00000000000E+00 -0.00000000000E+00 -0.61805974109E+03  0.61805974109E+03  0.00000000000E+00 0. -1.
         24    2    1    2    0    0 -0.76665906286E+02 -0.29792661780E+03  0.28092336468E+03  0.42411276195E+03  0.79471801586E+02 0.  0.
         23    2    1    2    0    0 -0.81577949879E+02  0.37059648254E+02  0.21152674320E+02  0.12930119491E+03  0.90790880267E+02 0.  0.
        -13    1    3    3    0    0 -0.57771489657E+02 -0.91866218894E+02  0.12141428003E+03  0.16284463327E+03  0.00000000000E+00 0.  1.
         14    1    3    3    0    0 -0.18894416630E+02 -0.20606039891E+03  0.15950908465E+03  0.26126812868E+03  0.00000000000E+00 0. -1.
        -13    1    4    4    0    0 -0.77529720519E+02  0.62268942297E+02  0.60212300694E+01  0.99621955161E+02  0.00000000000E+00 0.  1.
         13    1    4    4    0    0 -0.40482293600E+01 -0.25209294043E+02  0.15131444251E+02  0.29679239751E+02  0.00000000000E+00 0. -1.
         21    1    1    2  503  501  0.30775638719E+02  0.12088634426E+03 -0.35470841051E+03  0.37600359660E+03  0.00000000000E+00 0. -1.
          1    1    1    2  501    0  0.12746821745E+03  0.13998062529E+03 -0.56497555825E+02  0.19757200138E+03  0.00000000000E+00 0. -1.
<scales pt_clust_5="13000.00000" pt_clust_6="13000.00000" pt_clust_7="13000.00000" pt_clust_8="13000.00000" pt_clust_9="124.74233" pt_clust_10="13000.00000"></scales>
<clustering>
<clus scale="   79.472">  5  6 -1 -1</clus>
<clus scale="   90.791">  7  8 -1 -1</clus>
<clus scale="  124.742">  2  9  1 -1</clus>
<clus scale="  246.440">  7 10 -1 -1</clus>
<clus scale="  283.652">  1  5  2 -1</clus>
<clus scale="  124.742">  2  5  1 -1</clus>
</clustering>
</event>
<event>
10    4  0.2866397E-005  0.3956185E+03  0.7546771E-02  0.1099714E+00
         -3   -1    0    0    0  501 -0.00000000000E+00  0.00000000000E+00  0.96060004404E+02  0.96060004404E+02  0.00000000000E+00 0.  1.
         21   -1    0    0  501  502  0.00000000000E+00 -0.00000000000E+00 -0.12371917464E+04  0.12371917464E+04  0.00000000000E+00 0. -1.
         24    2    1    2    0    0 -0.34934542418E+02  0.15840424247E+02 -0.15878033688E+03  0.18221001733E+03  0.80733845078E+02 0.  0.
         23    2    1    2    0    0  0.62970148539E+02 -0.78069520789E+02 -0.46121162843E+03  0.48029820657E+03  0.88938806836E+02 0.  0.
        -11    1    3    3    0    0  0.18511398674E+02 -0.12290244963E+02 -0.79487563718E+02  0.82534809553E+02  0.00000000000E+00 0.  1.
         12    1    3    3    0    0 -0.53445941092E+02  0.28130669210E+02 -0.79292773162E+02  0.99675207776E+02  0.00000000000E+00 0. -1.
        -13    1    4    4    0    0  0.60408719266E+02 -0.27153053350E+02 -0.36932305444E+03  0.37521463219E+03  0.00000000000E+00 0. -1.
         13    1    4    4    0    0  0.25614292736E+01 -0.50916467438E+02 -0.91888573989E+02  0.10508357439E+03  0.00000000000E+00 0.  1.
         21    1    1    2  503  502 -0.16179205372E+03 -0.54156938828E+02 -0.44719849855E+03  0.47863988528E+03  0.00000000000E+00 0. -1.
         -4    1    1    2    0  503  0.13375644760E+03  0.11638603537E+03 -0.73941278098E+02  0.19210364158E+03  0.00000000000E+00 0.  1.
<scales pt_clust_5="13000.00000" pt_clust_6="13000.00000" pt_clust_7="13000.00000" pt_clust_8="13000.00000" pt_clust_9="175.92020" pt_clust_10="13000.00000"></scales>
<clustering>
<clus scale="   80.734">  5  6 -1 -1</clus>
<clus scale="   88.939">  7  8 -1 -1</clus>
<clus scale="   89.383">  1  5  2 -1</clus>
<clus scale="  167.914">  7 10 -1 -1</clus>
<clus scale="  175.920">  2  9  1 -1</clus>
<clus scale="  175.920">  2  5  1 -1</clus>
</clustering>
</event>
<event>
10    4  0.2866397E-005  0.9862841E+03  0.7546771E-02  0.9337887E-01
         21   -1    0    0  503  502  0.00000000000E+00  0.00000000000E+00  0.39843469934E+03  0.39843469934E+03  0.00000000000E+00 0. -1.
          2   -1    0    0  502    0 -0.00000000000E+00 -0.00000000000E+00 -0.33581150274E+04  0.33581150274E+04  0.00000000000E+00 0. -1.
         24    2    1    2    0    0  0.31081401747E+03  0.90755494373E+03 -0.22789834059E+04  0.24738343650E+04  0.76352943703E+02 0.  0.
         23    2    1    2    0    0  0.13833365747E+02 -0.86420436217E+02 -0.15802992988E+03  0.20174233277E+03  0.89814566149E+02 0.  0.
        -13    1    3    3    0    0  0.18032898324E+03  0.42469706419E+03 -0.10444211578E+04  0.11417975711E+04  0.00000000000E+00 0.  1.
         14    1    3    3    0    0  0.13048503423E+03  0.48285787954E+03 -0.12345622481E+04  0.13320367940E+04  0.00000000000E+00 0. -1.
        -11    1    4    4    0    0  0.25455153646E+02 -0.10522277706E+02 -0.17271900301E+01  0.27598303583E+02  0.00000000000E+00 0.  1.
         11    1    4    4    0    0 -0.11621787899E+02 -0.75898158512E+02 -0.15630273985E+03  0.17414402919E+03  0.00000000000E+00 0. -1.
         21    1    1    2  503  501 -0.57920936752E+02 -0.70345847379E+02  0.46015816783E+02  0.10208245957E+03  0.00000000000E+00 0.  1.
          1    1    1    2  501    0 -0.26672644647E+03 -0.75078866013E+03 -0.56868280911E+03  0.97889056937E+03  0.00000000000E+00 0. -1.
<scales pt_clust_5="13000.00000" pt_clust_6="13000.00000" pt_clust_7="13000.00000" pt_clust_8="13000.00000" pt_clust_9="91.12285" pt_clust_10="13000.00000"></scales>
<clustering>
<clus scale="   76.353">  5  6 -1 -1</clus>
<clus scale="   89.815">  7  8 -1 -1</clus>
<clus scale="   91.123">  1  9  2 -1</clus>
<clus scale="  851.159">  7 10 -1 -1</clus>
<clus scale="  936.844">  2  5  1 -1</clus>
<clus scale="   91.123">  1  5  2 -1</clus>
</clustering>
</event>
<event>
10    4  0.2866397E-005  0.3837222E+03  0.7546771E-02  0.1069464E+00
         21   -1    0    0  501  502  0.00000000000E+00  0.00000000000E+00  0.45866846851E+03  0.45866846851E+03  0.00000000000E+00 0. -1.
          2   -1    0    0  503    0 -0.00000000000E+00 -0.00000000000E+00 -0.44625993255E+03  0.44625993255E+03  0.00000000000E+00 0. -1.
         24    2    1    2    0    0  0.27471701283E+03  0.14458810392E+03 -0.40361928242E+02  0.32306980699E+03  0.79811390183E+02 0.  0.
         23    2    1    2    0    0  0.56633259589E+02 -0.10859966463E+03 -0.15380022502E+02  0.15402839768E+03  0.92124855234E+02 0.  0.
        -11    1    3    3    0    0  0.15725345135E+02  0.18627591889E+02  0.16599953980E+02  0.29492916630E+02  0.00000000000E+00 0.  1.
         12    1    3    3    0    0  0.25899166770E+03  0.12596051203E+03 -0.56961882222E+02  0.29357689036E+03  0.00000000000E+00 0. -1.
        -13    1    4    4    0    0  0.80437801915E+02 -0.89885199296E+02 -0.23021488862E+02  0.12279893313E+03  0.00000000000E+00 0. -1.
         13    1    4    4    0    0 -0.23804542325E+02 -0.18714465333E+02  0.76414663602E+01  0.31229464551E+02  0.00000000000E+00 0.  1.
         21    1    1    2  503  502 -0.17839813147E+03 -0.14054498425E+03  0.83378966398E+02  0.24193147366E+03  0.00000000000E+00 0. -1.
          1    1    1    2  501    0 -0.15295214095E+03  0.10455654496E+03 -0.15228479694E+02  0.18589872272E+03  0.00000000000E+00 0. -1.
<scales pt_clust_5="13000.00000" pt_clust_6="13000.00000" pt_clust_7="13000.00000" pt_clust_8="13000.00000" pt_clust_9="227.10963" pt_clust_10="13000.00000"></scales>
<clustering>
<clus scale="   79.811">  5  6 -1 -1</clus>
<clus scale="   92.125">  7  8 -1 -1</clus>
<clus scale="  185.274">  7 10 -1 -1</clus>
<clus scale="  227.110">  1  9  2 -1</clus>
<clus scale="  219.756">  2  5  1 -1</clus>
<clus scale="  227.110">  1  5  2 -1</clus>
</clustering>
</event>
<event>
10    4  0.2866397E-005  0.4654263E+03  0.7546771E-02  0.1048750E+00
         21   -1    0    0  503  502  0.00000000000E+00  0.00000000000E+00  0.19493619004E+03  0.19493619004E+03  0.00000000000E+00 0. -1.
          2   -1    0    0  502    0 -0.00000000000E+00 -0.00000000000E+00 -0.11824710603E+04  0.11824710603E+04  0.00000000000E+00 0. -1.
         24    2    1    2    0    0  0.19042586634E+03 -0.64648294880E+02 -0.24642207893E+03  0.32815162648E+03  0.80735595465E+02 0.  0.
         23    2    1    2    0    0  0.74802358582E+02  0.90681718431E+02 -0.54365006536E+03  0.56850294731E+03  0.11756547382E+03 0.  0.
        -13    1    3    3    0    0  0.48536657453E+02 -0.33555607192E+02 -0.26723736538E+02  0.64776106592E+02  0.00000000000E+00 0.  1.
         14    1    3    3    0    0  0.14188920889E+03 -0.31092687689E+02 -0.21969834239E+03  0.26337551989E+03  0.00000000000E+00 0. -1.
        -11    1    4    4    0    0  0.33559501885E+02  0.12019180484E+02 -0.28189253684E+02  0.45445955701E+02  0.00000000000E+00 0.  1.
         11    1    4    4    0    0  0.41242856697E+02  0.78662537947E+02 -0.51546081167E+03  0.52305699161E+03  0.00000000000E+00 0. -1.
         21    1    1    2  503  501 -0.95389864798E+01 -0.49347993155E+02  0.85181253254E+02  0.98904310307E+02  0.00000000000E+00 0. -1.
          1    1    1    2  501    0 -0.25568923844E+03  0.23314569605E+02 -0.28264397926E+03  0.38184836627E+03  0.00000000000E+00 0. -1.
<scales pt_clust_5="13000.00000" pt_clust_6="13000.00000" pt_clust_7="13000.00000" pt_clust_8="13000.00000" pt_clust_9="50.26148" pt_clust_10="13000.00000"></scales>
<clustering>
<clus scale="   50.261">  1  9  2 -1</clus>
<clus scale="   80.736">  5  6 -1 -1</clus>
<clus scale="  117.565">  7  8 -1 -1</clus>
<clus scale="  220.112">  2  5  1 -1</clus>
<clus scale="  190.080">  7 10 -1 -1</clus>
<clus scale="   50.261">  1  5  2 -1</clus>
</clustering>
</event>
<event>
10    4  0.2866397E-005  0.3994542E+03  0.7546771E-02  0.1077336E+00
         -1   -1    0    0    0  501 -0.00000000000E+00  0.00000000000E+00  0.23783735090E+03  0.23783735090E+03  0.00000000000E+00 0.  1.
         21   -1    0    0  501  502  0.00000000000E+00 -0.00000000000E+00 -0.45955993770E+03  0.45955993770E+03  0.00000000000E+00 0.  1.
         24    2    1    2    0    0  0.12929172238E+03 -0.18905794101E+02 -0.73480358986E+02  0.17025866964E+03  0.80714762629E+02 0.  0.
         23    2    1    2    0    0  0.40981730124E+02  0.15269579009E+03 -0.93956102608E+02  0.20489362832E+03  0.90322440158E+02 0.  0.
        -11    1    3    3    0    0  0.10799640345E+03 -0.27561765792E+02 -0.21624745827E+02  0.11353635419E+03  0.00000000000E+00 0.  1.
         12    1    3    3    0    0  0.21295318932E+02  0.86559716909E+01 -0.51855613159E+02  0.56722315454E+02  0.00000000000E+00 0. -1.
        -11    1    4    4    0    0  0.12772692328E+02  0.57792844194E+02 -0.87550566612E+02  0.10567997078E+03  0.00000000000E+00 0. -1.
         11    1    4    4    0    0  0.28209037796E+02  0.94902945891E+02 -0.64055359966E+01  0.99213657546E+02  0.00000000000E+00 0.  1.
         21    1    1    2  503  502  0.18287027118E+01 -0.48219415916E+02 -0.11167847276E+03  0.12165745971E+03  0.00000000000E+00 0.  1.
         -2    1    1    2    0  503 -0.17210215521E+03 -0.85570580068E+02  0.57392347563E+02  0.20058753092E+03  0.00000000000E+00 0.  1.
<scales pt_clust_5="13000.00000" pt_clust_6="13000.00000" pt_clust_7="13000.00000" pt_clust_8="13000.00000" pt_clust_9="48.25408" pt_clust_10="13000.00000"></scales>
<clustering>
<clus scale="   48.254">  2  9  1 -1</clus>
<clus scale="   80.715">  5  6 -1 -1</clus>
<clus scale="   90.322">  7  8 -1 -1</clus>
<clus scale="  157.159">  1  5  2 -1</clus>
<clus scale="  143.922">  7 10 -1 -1</clus>
<clus scale="   48.254">  2  5  1 -1</clus>
</clustering>
</event>
<event>
10    4  0.2866397E-005  0.1638951E+03  0.7546771E-02  0.1200682E+00
         21   -1    0    0  503  502  0.00000000000E+00  0.00000000000E+00  0.14372934155E+03  0.14372934155E+03  0.00000000000E+00 0. -1.
         -3   -1    0    0    0  501 -0.00000000000E+00 -0.00000000000E+00 -0.19951360194E+03  0.19951360194E+03  0.00000000000E+00 0.  1.
         24    2    1    2    0    0 -0.27884008141E+02 -0.63832080727E+02  0.40292862657E+02  0.11239405092E+03  0.78465632363E+02 0.  0.
         23    2    1    2    0    0 -0.24953536341E+02  0.52785578084E+02 -0.49616292172E+02  0.12854469246E+03  0.10321320304E+03 0.  0.
        -13    1    3    3    0    0  0.22003435487E+02 -0.25751055462E+02 -0.60110978785E+01  0.34400600698E+02  0.00000000000E+00 0.  1.
         14    1    3    3    0    0 -0.49887443628E+02 -0.38081025265E+02  0.46303960535E+02  0.77993450227E+02  0.00000000000E+00 0. -1.
        -11    1    4    4    0    0  0.31115857308E+02 -0.11480123822E+02 -0.11212280277E+02  0.35010070665E+02  0.00000000000E+00 0.  1.
         11    1    4    4    0    0 -0.56069393648E+02  0.64265701906E+02 -0.38404011894E+02  0.93534621799E+02  0.00000000000E+00 0. -1.
         21    1    1    2  503  501  0.24118640633E+02 -0.31364429586E+02 -0.15764990283E+02  0.42590740636E+02  0.00000000000E+00 0.  1.
         -4    1    1    2    0  502  0.28718903848E+02  0.42410932230E+02 -0.30695840597E+02  0.59713459461E+02  0.00000000000E+00 0.  1.
<scales pt_clust_5="13000.00000" pt_clust_6="13000.00000" pt_clust_7="13000.00000" pt_clust_8="13000.00000" pt_clust_9="39.56561" pt_clust_10="13000.00000"></scales>
<clustering>
<clus scale="   39.566">  1  9  2 -1</clus>
<clus scale="   78.466">  5  6 -1 -1</clus>
<clus scale="  103.213">  7  8 -1 -1</clus>
<clus scale="   50.009">  7 10 -1 -1</clus>
<clus scale="  114.472">  2  5  1 -1</clus>
<clus scale="   39.566">  1  5  2 -1</clus>
</clustering>
</event>
<event>
10    4  0.2866397E-005  0.2377360E+03  0.7546771E-02  0.1167521E+00
          2   -1    0    0  502    0 -0.00000000000E+00  0.00000000000E+00  0.67081765936E+03  0.67081765936E+03  0.00000000000E+00 0. -1.
         21   -1    0    0  503  502  0.00000000000E+00 -0.00000000000E+00 -0.54072272275E+02  0.54072272275E+02  0.00000000000E+00 0.  1.
         24    2    1    2    0    0  0.81914705957E+01 -0.25583043622E+02  0.27908877355E+03  0.29027259623E+03  0.75140164287E+02 0.  0.
         23    2    1    2    0    0  0.52303750230E+02 -0.59756913463E+02  0.29267375245E+03  0.31698288199E+03  0.92269448402E+02 0.  0.
        -13    1    3    3    0    0 -0.20068114958E+02  0.74153285055E+01  0.26907270832E+02  0.34376119014E+02  0.00000000000E+00 0.  1.
         14    1    3    3    0    0  0.28259585554E+02 -0.32998372128E+02  0.25218150272E+03  0.25589647722E+03  0.00000000000E+00 0. -1.
        -11    1    4    4    0    0  0.42494552372E+02 -0.81233474313E+02  0.18161457215E+03  0.20344167996E+03  0.00000000000E+00 0.  1.
         11    1    4    4    0    0  0.98091978577E+01  0.21476560851E+02  0.11105918030E+03  0.11354120203E+03  0.00000000000E+00 0. -1.
         21    1    1    2  503  501 -0.46506254288E+01  0.28906409704E+02  0.11067667161E+02  0.31300193214E+02  0.00000000000E+00 0. -1.
          1    1    1    2  501    0 -0.55844595397E+02  0.56433547381E+02  0.33915193923E+02  0.86334260198E+02  0.00000000000E+00 0. -1.
<scales pt_clust_5="13000.00000" pt_clust_6="13000.00000" pt_clust_7="13000.00000" pt_clust_8="13000.00000" pt_clust_9="29.27813" pt_clust_10="13000.00000"></scales>
<clustering>
<clus scale="   29.278">  2  9  1 -1</clus>
<clus scale="   75.140">  5  6 -1 -1</clus>
<clus scale="   78.636">  1  5  2 -1</clus>
<clus scale="   92.269">  7  8 -1 -1</clus>
<clus scale="   88.650">  7 10 -1 -1</clus>
<clus scale="   29.278">  2  5  1 -1</clus>
</clustering>
</event>
<event>
10    4  0.2975644E-005  0.3890148E+03  0.7546771E-02  0.1076407E+00
         21   -1    0    0  501  502  0.00000000000E+00  0.00000000000E+00  0.70227946492E+02  0.70227946492E+02  0.00000000000E+00 0. -1.
          2   -1    0    0  503    0 -0.00000000000E+00 -0.00000000000E+00 -0.15132435195E+04  0.15132435195E+04  0.00000000000E+00 0. -1.
         24    2    1    2    0    0 -0.98709450022E+02  0.11377293431E+03 -0.16194913431E+03  0.23528359232E+03  0.80268366153E+02 0.  0.
         23    2    1    2    0    0 -0.20918373927E+02  0.98948660071E+02 -0.32450699100E+03  0.35250825526E+03  0.93428406409E+02 0.  0.
        -13    1    3    3    0    0 -0.57423041742E+01  0.51299782099E+02 -0.84804477268E+02  0.99279610521E+02  0.00000000000E+00 0.  1.
         14    1    3    3    0    0 -0.92967145847E+02  0.62473152207E+02 -0.77144657045E+02  0.13600398180E+03  0.00000000000E+00 0. -1.
        -13    1    4    4    0    0 -0.10704544529E+02  0.43320642125E+02 -0.32832120692E+02  0.55400482460E+02  0.00000000000E+00 0.  1.
         13    1    4    4    0    0 -0.10213829398E+02  0.55628017946E+02 -0.29167487031E+03  0.29710777280E+03  0.00000000000E+00 0. -1.
         21    1    1    2  503  502 -0.25606944414E+02 -0.13542478826E+02 -0.78497499451E+02  0.83671809799E+02  0.00000000000E+00 0. -1.
          1    1    1    2  501    0  0.14523476836E+03 -0.19917911555E+03 -0.87806194822E+03  0.91200780859E+03  0.00000000000E+00 0. -1.
<scales pt_clust_5="13000.00000" pt_clust_6="13000.00000" pt_clust_7="13000.00000" pt_clust_8="13000.00000" pt_clust_9="28.96748" pt_clust_10="13000.00000"></scales>
<clustering>
<clus scale="   28.967">  1  9  2 -1</clus>
<clus scale="   80.268">  5  6 -1 -1</clus>
<clus scale="   93.428">  7  8 -1 -1</clus>
<clus scale="  174.492">  2  5  1 -1</clus>
<clus scale="  139.440">  7 10 -1 -1</clus>
<clus scale="   28.967">  1  5  2 -1</clus>
</clustering>
</event>
<event>
10    4  0.2866397E-005  0.4821192E+03  0.7546771E-02  0.1036504E+00
         21   -1    0    0  501  502  0.00000000000E+00  0.00000000000E+00  0.28758835994E+03  0.28758835994E+03  0.00000000000E+00 0.  1.
          2   -1    0    0  503    0 -0.00000000000E+00 -0.00000000000E+00 -0.74526570963E+03  0.74526570963E+03  0.00000000000E+00 0. -1.
         24    2    1    2    0    0  0.20041077032E+03  0.55920148105E+02  0.75480795059E+01  0.22363084408E+03  0.81622552613E+02 0.  0.
         23    2    1    2    0    0 -0.72656765453E+01  0.10782341021E+03 -0.89065832467E+02  0.16756657645E+03  0.92017157012E+02 0.  0.
        -11    1    3    3    0    0  0.20199220123E+03  0.45469880274E+02 -0.51485405920E+01  0.20711075984E+03  0.00000000000E+00 0.  1.
         12    1    3    3    0    0 -0.15814309103E+01  0.10450267831E+02  0.12696620098E+02  0.16520084242E+02  0.00000000000E+00 0. -1.
        -13    1    4    4    0    0  0.60943586030E+01  0.87687573579E+02 -0.10626377606E+03  0.13790664186E+03  0.00000000000E+00 0.  1.
         13    1    4    4    0    0 -0.13360035148E+02  0.20135836629E+02  0.17197943592E+02  0.29659934587E+02  0.00000000000E+00 0. -1.
         21    1    1    2  503  502  0.12606555001E+03  0.49743933914E+02 -0.88847373734E+02  0.16205195982E+03  0.00000000000E+00 0. -1.
          1    1    1    2  501    0 -0.31921064379E+03 -0.21348749223E+03 -0.28731222300E+03  0.47960468923E+03  0.00000000000E+00 0. -1.
<scales pt_clust_5="13000.00000" pt_clust_6="13000.00000" pt_clust_7="13000.00000" pt_clust_8="13000.00000" pt_clust_9="135.52491" pt_clust_10="13000.00000"></scales>
<clustering>
<clus scale="   81.623">  5  6 -1 -1</clus>
<clus scale="   92.017">  7  8 -1 -1</clus>
<clus scale="  135.525">  1  9  2 -1</clus>
<clus scale="  282.281">  2  5  1 -1</clus>
<clus scale="  179.846">  7 10 -1 -1</clus>
<clus scale="  135.525">  1  5  2 -1</clus>
</clustering>
</event>
<event>
10    4  0.2866397E-005  0.5160660E+03  0.7546771E-02  0.1049607E+00
         21   -1    0    0  503  502  0.00000000000E+00  0.00000000000E+00  0.34956306729E+03  0.34956306729E+03  0.00000000000E+00 0. -1.
          2   -1    0    0  502    0 -0.00000000000E+00 -0.00000000000E+00 -0.58024716152E+03  0.58024716152E+03  0.00000000000E+00 0. -1.
         24    2    1    2    0    0  0.54286037614E+02 -0.15324682091E+03 -0.43495485890E+02  0.18648976872E+03  0.80343105159E+02 0.  0.
         23    2    1    2    0    0 -0.88261478455E+02 -0.14574720122E+03 -0.23889393431E+02  0.19554938729E+03  0.92932903251E+02 0.  0.
        -13    1    3    3    0    0  0.24309091390E+02 -0.91782863904E+02 -0.64696629245E+02  0.11489421163E+03  0.00000000000E+00 0.  1.
         14    1    3    3    0    0  0.29976946224E+02 -0.61463957006E+02  0.21201143355E+02  0.71595557092E+02  0.00000000000E+00 0. -1.
        -13    1    4    4    0    0 -0.40060810035E+02 -0.81404909925E+02 -0.58572910429E+02  0.10799265575E+03  0.00000000000E+00 0.  1.
         13    1    4    4    0    0 -0.48200668420E+02 -0.64342291294E+02  0.34683516998E+02  0.87556731531E+02  0.00000000000E+00 0. -1.
         21    1    1    2  503  501 -0.16126792369E+03  0.59931107308E+02  0.41967611518E+02  0.17708856895E+03  0.00000000000E+00 0. -1.
          1    1    1    2  501    0  0.19524336453E+03  0.23906291482E+03 -0.20526682643E+03  0.37068250386E+03  0.00000000000E+00 0. -1.
<scales pt_clust_5="13000.00000" pt_clust_6="13000.00000" pt_clust_7="13000.00000" pt_clust_8="13000.00000" pt_clust_9="172.04383" pt_clust_10="13000.00000"></scales>
<clustering>
<clus scale="   80.343">  5  6 -1 -1</clus>
<clus scale="   92.933">  7  8 -1 -1</clus>
<clus scale="  172.044">  1  9  2 -1</clus>
<clus scale="  157.563">  2  5  1 -1</clus>
<clus scale="  227.207">  7 10 -1 -1</clus>
<clus scale="  172.044">  1  5  2 -1</clus>
</clustering>
</event>
<event>
10    4  0.2866397E-005  0.3152975E+03  0.7546771E-02  0.1090934E+00
          2   -1    0    0  502    0 -0.00000000000E+00  0.00000000000E+00  0.30577198680E+03  0.30577198680E+03  0.00000000000E+00 0. -1.
         21   -1    0    0  503  502  0.00000000000E+00 -0.00000000000E+00 -0.29576293321E+03  0.29576293321E+03  0.00000000000E+00 0. -1.
         24    2    1    2    0    0  0.45696656374E+02 -0.19374880859E+03  0.47919028375E+02  0.22018843641E+03  0.80993388701E+02 0.  0.
         23    2    1    2    0    0 -0.76998884159E+02  0.84901126984E+01 -0.50754819739E+02  0.12577843053E+03  0.85107295125E+02 0.  0.
        -11    1    3    3    0    0  0.26398387076E+02 -0.80859214286E+02 -0.19533920131E+02  0.87273486300E+02  0.00000000000E+00 0.  1.
         12    1    3    3    0    0  0.19298269298E+02 -0.11288959431E+03  0.67452948506E+02  0.13291495011E+03  0.00000000000E+00 0. -1.
        -13    1    4    4    0    0 -0.77815098389E+01 -0.32595104441E+02 -0.22960247671E+02  0.40622231623E+02  0.00000000000E+00 0.  1.
         13    1    4    4    0    0 -0.69217374320E+02  0.41085217140E+02 -0.27794572068E+02  0.85156198903E+02  0.00000000000E+00 0. -1.
         21    1    1    2  503  501  0.44928237452E+02 -0.11836268857E+02 -0.27409036914E+02  0.53943480473E+02  0.00000000000E+00 0. -1.
          1    1    1    2  501    0 -0.13626009667E+02  0.19709496475E+03  0.40253881867E+02  0.20162457260E+03  0.00000000000E+00 0. -1.
<scales pt_clust_5="13000.00000" pt_clust_6="13000.00000" pt_clust_7="13000.00000" pt_clust_8="13000.00000" pt_clust_9="46.46121" pt_clust_10="13000.00000"></scales>
<clustering>
<clus scale="   46.461">  2  9  1 -1</clus>
<clus scale="   80.993">  5  6 -1 -1</clus>
<clus scale="   85.107">  7  8 -1 -1</clus>
<clus scale="  193.352">  7 10 -1 -1</clus>
<clus scale="  222.189">  1  5  2 -1</clus>
<clus scale="   46.461">  2  5  1 -1</clus>
</clustering>
</event>
<event>
10    4  0.2866397E-005  0.3620203E+03  0.7546771E-02  0.1090975E+00
          2   -1    0    0  502    0 -0.00000000000E+00  0.00000000000E+00  0.20960429664E+04  0.20960429664E+04  0.00000000000E+00 0. -1.
         21   -1    0    0  503  502  0.00000000000E+00 -0.00000000000E+00 -0.37649421972E+02  0.37649421972E+02  0.00000000000E+00 0. -1.
         24    2    1    2    0    0  0.99817207936E+02 -0.73931734529E+02  0.84881654056E+03  0.86234901561E+03  0.87902951178E+02 0.  0.
         23    2    1    2    0    0  0.70490664549E+02 -0.60409253761E+02  0.21181343003E+03  0.24816104547E+03  0.90004242226E+02 0.  0.
        -13    1    3    3    0    0  0.60630798936E+02 -0.15349492769E+01  0.22147695616E+03  0.22963120859E+03  0.00000000000E+00 0.  1.
         14    1    3    3    0    0  0.39186409000E+02 -0.72396785252E+02  0.62733958439E+03  0.63271780701E+03  0.00000000000E+00 0. -1.
        -13    1    4    4    0    0  0.19134928248E+02 -0.30079763846E+02  0.90127638060E+01  0.36771831386E+02  0.00000000000E+00 0. -1.
         13    1    4    4    0    0  0.51355736301E+02 -0.30329489915E+02  0.20280066623E+03  0.21138921408E+03  0.00000000000E+00 0.  1.
         21    1    1    2  503  501 -0.34179355845E+02  0.11998819276E+02  0.87523398916E+02  0.94723520774E+02  0.00000000000E+00 0. -1.
          1    1    1    2  501    0 -0.13612851664E+03  0.12234216901E+03  0.91024017496E+03  0.92845880655E+03  0.00000000000E+00 0. -1.
<scales pt_clust_5="13000.00000" pt_clust_6="13000.00000" pt_clust_7="13000.00000" pt_clust_8="13000.00000" pt_clust_9="36.22430" pt_clust_10="13000.00000"></scales>
<clustering>
<clus scale="   36.224">  2  9  1 -1</clus>
<clus scale="   87.903">  5  6 -1 -1</clus>
<clus scale="   90.004">  7  8 -1 -1</clus>
<clus scale="  146.628">  1  5  2 -1</clus>
<clus scale="   98.412">  7 10 -1 -1</clus>
<clus scale="   36.224">  2  5  1 -1</clus>
</clustering>
</event>
<event>
10    4  0.2866397E-005  0.2203712E+03  0.7546771E-02  0.1171495E+00
         21   -1    0    0  503  502  0.00000000000E+00  0.00000000000E+00  0.20811173552E+03  0.20811173552E+03  0.00000000000E+00 0.  1.
         -1   -1    0    0    0  501 -0.00000000000E+00 -0.00000000000E+00 -0.63574815138E+03  0.63574815138E+03  0.00000000000E+00 0.  1.
         24    2    1    2    0    0  0.42283890314E+02  0.12424089534E+01 -0.51862116412E+03  0.52642502356E+03  0.79786731960E+02 0.  0.
         23    2    1    2    0    0 -0.47382937592E+02 -0.46110395897E+02 -0.80170262682E+02  0.13782914080E+03  0.90544407061E+02 0.  0.
        -13    1    3    3    0    0  0.52447480594E+02  0.23952284543E+02 -0.24581171646E+03  0.25248336600E+03  0.00000000000E+00 0.  1.
         14    1    3    3    0    0 -0.10163590280E+02 -0.22709875590E+02 -0.27280944765E+03  0.27394165756E+03  0.00000000000E+00 0. -1.
        -11    1    4    4    0    0  0.21045106756E+02 -0.37670591122E+02 -0.29691282413E+02  0.52378833561E+02  0.00000000000E+00 0.  1.
         11    1    4    4    0    0 -0.68428044348E+02 -0.84398047746E+01 -0.50478980268E+02  0.85450307237E+02  0.00000000000E+00 0. -1.
         21    1    1    2  503  501 -0.10720691807E+02  0.18004977767E+02  0.95639312188E+02  0.97908071644E+02  0.00000000000E+00 0. -1.
         -2    1    1    2    0  502  0.15819739085E+02  0.26863009176E+02  0.75515698750E+02  0.81697650911E+02  0.00000000000E+00 0.  1.
<scales pt_clust_5="13000.00000" pt_clust_6="13000.00000" pt_clust_7="13000.00000" pt_clust_8="13000.00000" pt_clust_9="20.95501" pt_clust_10="13000.00000"></scales>
<clustering>
<clus scale="   20.955">  1  9  2 -1</clus>
<clus scale="   79.787">  5  6 -1 -1</clus>
<clus scale="   90.143">  2  5  1 -1</clus>
<clus scale="   90.544">  7  8 -1 -1</clus>
<clus scale="   41.103">  7 10 -1 -1</clus>
<clus scale="   20.955">  1  5  2 -1</clus>
</clustering>
</event>
<event>
10    4  0.2866397E-005  0.2413082E+03  0.7546771E-02  0.1130298E+00
         21   -1    0    0  503  502  0.00000000000E+00  0.00000000000E+00  0.47472531344E+03  0.47472531344E+03  0.00000000000E+00 0. -1.
          2   -1    0    0  502    0 -0.00000000000E+00 -0.00000000000E+00 -0.47348777049E+03  0.47348777049E+03  0.00000000000E+00 0. -1.
         24    2    1    2    0    0  0.16706495292E+03  0.83220303904E+02  0.15262591793E+03  0.25105336168E+03  0.69977154188E+02 0.  0.
         23    2    1    2    0    0 -0.20837863946E+02 -0.28493543276E+02 -0.10577725889E+03  0.14409629215E+03  0.91262337960E+02 0.  0.
        -11    1    3    3    0    0  0.48529855884E+02  0.49394984210E+02  0.25005614182E+02  0.73622633190E+02  0.00000000000E+00 0.  1.
         12    1    3    3    0    0  0.11853509704E+03  0.33825319695E+02  0.12762030375E+03  0.17743072849E+03  0.00000000000E+00 0. -1.
        -11    1    4    4    0    0  0.17819182370E+02 -0.35724004610E+02 -0.95410027469E+02  0.10342534074E+03  0.00000000000E+00 0.  1.
         11    1    4    4    0    0 -0.38657046316E+02  0.72304613337E+01 -0.10367231422E+02  0.40670951407E+02  0.00000000000E+00 0. -1.
         21    1    1    2  503  501 -0.31106203769E+02  0.10527588216E+02  0.23791823787E+03  0.24017392435E+03  0.00000000000E+00 0. -1.
          1    1    1    2  501    0 -0.11512088521E+03 -0.65254348844E+02 -0.28352935396E+03  0.31288950575E+03  0.00000000000E+00 0. -1.
<scales pt_clust_5="13000.00000" pt_clust_6="13000.00000" pt_clust_7="13000.00000" pt_clust_8="13000.00000" pt_clust_9="32.83940" pt_clust_10="13000.00000"></scales>
<clustering>
<clus scale="   32.839">  1  9  2 -1</clus>
<clus scale="   69.977">  5  6 -1 -1</clus>
<clus scale="   91.262">  7  8 -1 -1</clus>
<clus scale="  133.700">  7 10 -1 -1</clus>
<clus scale="  181.999">  2  5  1 -1</clus>
<clus scale="   32.839">  1  5  2 -1</clus>
</clustering>
</event>
<event>
10    4  0.2866397E-005  0.1957539E+03  0.7546771E-02  0.1186530E+00
          2   -1    0    0  502    0 -0.00000000000E+00  0.00000000000E+00  0.42769982638E+03  0.42769982638E+03  0.00000000000E+00 0. -1.
         21   -1    0    0  503  502  0.00000000000E+00 -0.00000000000E+00 -0.13788847032E+03  0.13788847032E+03  0.00000000000E+00 0. -1.
         24    2    1    2    0    0 -0.95775303434E+01 -0.35374071008E+02  0.18360810376E+03  0.20522032967E+03  0.84026150436E+02 0.  0.
         23    2    1    2    0    0 -0.34602645169E+01 -0.97157619038E+02  0.61753440690E+02  0.14585056751E+03  0.89483653471E+02 0.  0.
        -11    1    3    3    0    0 -0.94377860586E+01 -0.61805698516E+02  0.14966674974E+03  0.16220096224E+03  0.00000000000E+00 0.  1.
         12    1    3    3    0    0 -0.13974428476E+00  0.26431627509E+02  0.33941354016E+02  0.43019367425E+02  0.00000000000E+00 0. -1.
        -11    1    4    4    0    0 -0.37837819430E+01 -0.42958976349E+02 -0.20179519554E+02  0.47613061907E+02  0.00000000000E+00 0. -1.
         11    1    4    4    0    0  0.32351742604E+00 -0.54198642688E+02  0.81932960244E+02  0.98237505603E+02  0.00000000000E+00 0.  1.
         21    1    1    2  503  501  0.55524226147E+02  0.14127142307E+03 -0.85800005877E+00  0.15179357967E+03  0.00000000000E+00 0. -1.
          1    1    1    2  501    0 -0.42486431287E+02 -0.87397330264E+01  0.45307811672E+02  0.62723819840E+02  0.00000000000E+00 0. -1.
<scales pt_clust_5="13000.00000" pt_clust_6="13000.00000" pt_clust_7="13000.00000" pt_clust_8="13000.00000" pt_clust_9="140.01345" pt_clust_10="13000.00000"></scales>
<clustering>
<clus scale="   84.026">  5  6 -1 -1</clus>
<clus scale="   89.484">  7  8 -1 -1</clus>
<clus scale="   43.376">  7 10 -1 -1</clus>
<clus scale="   91.670">  1  5  2 -1</clus>
<clus scale="  140.013">  2  9  1 -1</clus>
<clus scale="  140.013">  2  5  1 -1</clus>
</clustering>
</event>
<event>
10    4  0.2866397E-005  0.7931672E+03  0.7546771E-02  0.9863259E-01
         21   -1    0    0  501  502  0.00000000000E+00  0.00000000000E+00  0.29586695535E+03  0.29586695535E+03  0.00000000000E+00 0.  1.
          2   -1    0    0  503    0 -0.00000000000E+00 -0.00000000000E+00 -0.28949462500E+04  0.28949462500E+04  0.00000000000E+00 0. -1.
         24    2    1    2    0    0  0.27450363507E+03 -0.11691125771E+03 -0.49305706280E+03  0.58166841678E+03  0.78818729092E+02 0.  0.
         23    2    1    2    0    0  0.20676336459E+03  0.19285119251E+03 -0.86290800369E+03  0.91192295824E+03  0.83967776812E+02 0.  0.
        -13    1    3    3    0    0  0.27094247346E+03 -0.96153959427E+02 -0.45701226775E+03  0.53992186537E+03  0.00000000000E+00 0.  1.
         14    1    3    3    0    0  0.35611616176E+01 -0.20757298284E+02 -0.36044795054E+02  0.41746551410E+02  0.00000000000E+00 0. -1.
        -11    1    4    4    0    0  0.11679370788E+03  0.85043080840E+02 -0.55520605828E+03  0.57369579304E+03  0.00000000000E+00 0. -1.
         11    1    4    4    0    0  0.89969656714E+02  0.10780811168E+03 -0.30770194541E+03  0.33822716520E+03  0.00000000000E+00 0.  1.
         21    1    1    2  503  502 -0.72348655973E+01  0.60636638031E+02  0.18050388953E+03  0.19055392750E+03  0.00000000000E+00 0.  1.
          1    1    1    2  501    0 -0.47403213407E+03 -0.13657657284E+03 -0.14236181177E+04  0.15066679028E+04  0.00000000000E+00 0. -1.
<scales pt_clust_5="13000.00000" pt_clust_6="13000.00000" pt_clust_7="13000.00000" pt_clust_8="13000.00000" pt_clust_9="61.06673" pt_clust_10="13000.00000"></scales>
<clustering>
<clus scale="   61.067">  1  9  2 -1</clus>
<clus scale="   78.819">  5  6 -1 -1</clus>
<clus scale="   83.968">  7  8 -1 -1</clus>
<clus scale="  297.567">  2  5  1 -1</clus>
<clus scale="  355.272">  7 10 -1 -1</clus>
<clus scale="   61.067">  1  5  2 -1</clus>
</clustering>
</event>
<event>
10    4  0.2866397E-005  0.3365001E+03  0.7546771E-02  0.1087646E+00
          2   -1    0    0  503    0 -0.00000000000E+00  0.00000000000E+00  0.25041715789E+04  0.25041715789E+04  0.00000000000E+00 0. -1.
         21   -1    0    0  501  502  0.00000000000E+00 -0.00000000000E+00 -0.78555602705E+02  0.78555602705E+02  0.00000000000E+00 0.  1.
         24    2    1    2    0    0 -0.55532347800E+02  0.14486066067E+03  0.30744853667E+03  0.35379842397E+03  0.81118859933E+02 0.  0.
         23    2    1    2    0    0  0.34994956724E+02  0.34463482673E+02  0.43087050395E+03  0.44362033305E+03  0.93473151690E+02 0.  0.
        -13    1    3    3    0    0 -0.37414054481E+02  0.14973801742E+03  0.25472574862E+03  0.29783635162E+03  0.00000000000E+00 0.  1.
         14    1    3    3    0    0 -0.18118293319E+02 -0.48773567500E+01  0.52722788055E+02  0.55962072352E+02  0.00000000000E+00 0. -1.
        -11    1    4    4    0    0  0.60876635676E+02 -0.11069283809E+01  0.22423761011E+03  0.23235682872E+03  0.00000000000E+00 0. -1.
         11    1    4    4    0    0 -0.25881678953E+02  0.35570411054E+02  0.20663289383E+03  0.21126350433E+03  0.00000000000E+00 0.  1.
         21    1    1    2  503  502  0.29405815352E+01  0.46621774769E+02 -0.28425345007E+02  0.54683060825E+02  0.00000000000E+00 0.  1.
          1    1    1    2  501    0  0.17596809541E+02 -0.22594591812E+03  0.17157222806E+04  0.17306253638E+04  0.00000000000E+00 0. -1.
<scales pt_clust_5="13000.00000" pt_clust_6="13000.00000" pt_clust_7="13000.00000" pt_clust_8="13000.00000" pt_clust_9="46.71442" pt_clust_10="13000.00000"></scales>
<clustering>
<clus scale="   46.714">  2  9  1 -1</clus>
<clus scale="   81.119">  5  6 -1 -1</clus>
<clus scale="   93.473">  7  8 -1 -1</clus>
<clus scale="  199.400">  1  5  2 -1</clus>
<clus scale="   85.478">  7 10 -1 -1</clus>
<clus scale="   46.714">  2  5  1 -1</clus>
</clustering>
</event>
<event>
10    4  0.2866397E-005  0.5060917E+03  0.7546771E-02  0.1035090E+00
          2   -1    0    0  502    0 -0.00000000000E+00  0.00000000000E+00  0.11143313723E+04  0.11143313723E+04  0.00000000000E+00 0. -1.
         21   -1    0    0  503  502  0.00000000000E+00 -0.00000000000E+00 -0.27384275923E+03  0.27384275923E+03  0.00000000000E+00 0. -1.
         24    2    1    2    0    0  0.16393959273E+03  0.18015008505E+03  0.79960378078E+03  0.84001335943E+03  0.83222560513E+02 0.  0.
         23    2    1    2    0    0  0.13537343788E+02 -0.22050517225E+03  0.19161422257E+03  0.30637986796E+03  0.91360946426E+02 0.  0.
        -11    1    3    3    0    0 -0.74968392375E+00  0.33472608318E+02  0.66450446632E+02  0.74408597563E+02  0.00000000000E+00 0.  1.
         12    1    3    3    0    0  0.16468927665E+03  0.14667747673E+03  0.73315333415E+03  0.76560476187E+03  0.00000000000E+00 0. -1.
        -13    1    4    4    0    0  0.96853603944E+01 -0.52057610403E+02  0.23796549445E+01  0.53004374956E+02  0.00000000000E+00 0.  1.
         13    1    4    4    0    0  0.38519833934E+01 -0.16844756185E+03  0.18923456763E+03  0.25337549300E+03  0.00000000000E+00 0. -1.
         21    1    1    2  503  501 -0.43609162274E+02 -0.10700128424E+02 -0.26432079371E+02  0.52104765639E+02  0.00000000000E+00 0.  1.
          1    1    1    2  501    0 -0.13386777424E+03  0.51055215624E+02 -0.12429731090E+03  0.18967613851E+03  0.00000000000E+00 0. -1.
<scales pt_clust_5="13000.00000" pt_clust_6="13000.00000" pt_clust_7="13000.00000" pt_clust_8="13000.00000" pt_clust_9="44.90269" pt_clust_10="13000.00000"></scales>
<clustering>
<clus scale="   44.903">  2  9  1 -1</clus>
<clus scale="   83.223">  5  6 -1 -1</clus>
<clus scale="   91.361">  7  8 -1 -1</clus>
<clus scale="  168.858">  7 10 -1 -1</clus>
<clus scale="  254.377">  1  5  2 -1</clus>
<clus scale="   44.903">  2  5  1 -1</clus>
</clustering>
</event>
<event>
10    4  0.2866397E-005  0.1585189E+03  0.7546771E-02  0.1214871E+00
          2   -1    0    0  503    0 -0.00000000000E+00  0.00000000000E+00  0.17994307771E+03  0.17994307771E+03  0.00000000000E+00 0. -1.
         21   -1    0    0  501  502  0.00000000000E+00 -0.00000000000E+00 -0.22171872760E+03  0.22171872760E+03  0.00000000000E+00 0. -1.
         24    2    1    2    0    0 -0.13556472093E+02  0.37527210170E+02  0.51889642388E+02  0.10371515107E+03  0.80450159331E+02 0.  0.
         23    2    1    2    0    0 -0.23154263188E+02 -0.59629369387E+02  0.37911109651E+02  0.11791694601E+03  0.91517060284E+02 0.  0.
        -11    1    3    3    0    0 -0.19295119519E+02  0.38922605691E+02  0.71263507036E+02  0.83461118529E+02  0.00000000000E+00 0.  1.
         12    1    3    3    0    0  0.57386474254E+01 -0.13953955207E+01 -0.19373864648E+02  0.20254032545E+02  0.00000000000E+00 0. -1.
        -11    1    4    4    0    0  0.10851271390E+02 -0.39652617912E+02  0.59985078622E+02  0.72720628815E+02  0.00000000000E+00 0.  1.
         11    1    4    4    0    0 -0.34005534578E+02 -0.19976751474E+02 -0.22073968971E+02  0.45196317190E+02  0.00000000000E+00 0. -1.
         21    1    1    2  503  502 -0.13720507111E+02  0.23574771937E+02 -0.12640283434E+03  0.12931240744E+03  0.00000000000E+00 0. -1.
          1    1    1    2  501    0  0.50431242392E+02 -0.14726127207E+01 -0.51735675874E+01  0.50717300786E+02  0.00000000000E+00 0. -1.
<scales pt_clust_5="13000.00000" pt_clust_6="13000.00000" pt_clust_7="13000.00000" pt_clust_8="13000.00000" pt_clust_9="27.27677" pt_clust_10="13000.00000"></scales>
<clustering>
<clus scale="   27.277">  2  9  1 -1</clus>
<clus scale="   80.450">  5  6 -1 -1</clus>
<clus scale="   91.517">  7  8 -1 -1</clus>
<clus scale="   46.677">  7 10 -1 -1</clus>
<clus scale="   93.339">  1  5  2 -1</clus>
<clus scale="   27.277">  2  5  1 -1</clus>
</clustering>
</event>
<event>
10    4  0.2866397E-005  0.3837057E+03  0.7546771E-02  0.1082959E+00
          2   -1    0    0  502    0 -0.00000000000E+00  0.00000000000E+00  0.10167285316E+04  0.10167285316E+04  0.00000000000E+00 0. -1.
         21   -1    0    0  503  502  0.00000000000E+00 -0.00000000000E+00 -0.12319376113E+03  0.12319376113E+03  0.00000000000E+00 0. -1.
         24    2    1    2    0    0  0.12551862428E+03 -0.10897737582E+02  0.35082964866E+03  0.38369254373E+03  0.90911165474E+02 0.  0.
         23    2    1    2    0    0  0.20669931100E+02  0.93220750831E+02  0.36051450784E+02  0.13454467799E+03  0.87665322872E+02 0.  0.
        -11    1    3    3    0    0  0.39552515051E+02 -0.43799123473E+02  0.95336506548E+02  0.11212410153E+03  0.00000000000E+00 0.  1.
         12    1    3    3    0    0  0.85966109226E+02  0.32901385891E+02  0.25549314211E+03  0.27156844219E+03  0.00000000000E+00 0. -1.
        -11    1    4    4    0    0  0.36859708792E+02  0.39731540695E+02  0.53343963504E+02  0.76044801930E+02  0.00000000000E+00 0.  1.
         11    1    4    4    0    0 -0.16189777692E+02  0.53489210136E+02 -0.17292512721E+02  0.58499876058E+02  0.00000000000E+00 0. -1.
         21    1    1    2  503  501 -0.21712649037E+02 -0.40707966120E+02 -0.39035109813E+02  0.60434406027E+02  0.00000000000E+00 0. -1.
          1    1    1    2  501    0 -0.12447590634E+03 -0.41615047129E+02  0.54568878082E+03  0.56125066497E+03  0.00000000000E+00 0. -1.
<scales pt_clust_5="13000.00000" pt_clust_6="13000.00000" pt_clust_7="13000.00000" pt_clust_8="13000.00000" pt_clust_9="46.13651" pt_clust_10="13000.00000"></scales>
<clustering>
<clus scale="   46.137">  2  9  1 -1</clus>
<clus scale="   87.665">  7  8 -1 -1</clus>
<clus scale="   90.911">  5  6 -1 -1</clus>
<clus scale="  134.838">  7 10 -1 -1</clus>
<clus scale="  152.395">  1  5  2 -1</clus>
<clus scale="   46.137">  2  5  1 -1</clus>
</clustering>
</event>
<event>
10    4  0.2866397E-005  0.3161631E+03  0.7546771E-02  0.1125040E+00
         -3   -1    0    0    0  501 -0.00000000000E+00  0.00000000000E+00  0.27709724274E+03  0.27709724274E+03  0.00000000000E+00 0.  1.
         21   -1    0    0  501  502  0.00000000000E+00 -0.00000000000E+00 -0.36124312670E+03  0.36124312670E+03  0.00000000000E+00 0. -1.
         24    2    1    2    0    0 -0.38660418814E+01 -0.46045945808E+02  0.15526004783E+02  0.93423318414E+02  0.79697454124E+02 0.  0.
         23    2    1    2    0    0  0.12474581858E+02 -0.49792579824E+02 -0.92639477655E+02  0.14063611733E+03  0.92528527918E+02 0.  0.
        -13    1    3    3    0    0  0.34357898535E+02 -0.38548179880E+02  0.40519386878E+00  0.51639050590E+02  0.00000000000E+00 0.  1.
         14    1    3    3    0    0 -0.38223940416E+02 -0.74977659282E+01  0.15120810914E+02  0.41784267824E+02  0.00000000000E+00 0. -1.
        -11    1    4    4    0    0 -0.38969904593E+02 -0.26706546907E+02 -0.28241967546E+02  0.55040910626E+02  0.00000000000E+00 0.  1.
         11    1    4    4    0    0  0.51444486451E+02 -0.23086032916E+02 -0.64397510109E+02  0.85595206701E+02  0.00000000000E+00 0. -1.
         21    1    1    2  503  502 -0.22127261687E+02  0.23088140239E+03 -0.85872128132E+02  0.24732541331E+03  0.00000000000E+00 0. -1.
         -4    1    1    2    0  503  0.13518721710E+02 -0.13504287676E+03  0.78839717037E+02  0.15695552039E+03  0.00000000000E+00 0.  1.
<scales pt_clust_5="13000.00000" pt_clust_6="13000.00000" pt_clust_7="13000.00000" pt_clust_8="13000.00000" pt_clust_9="215.47290" pt_clust_10="13000.00000"></scales>
<clustering>
<clus scale="   79.697">  5  6 -1 -1</clus>
<clus scale="   92.124">  1  5  2 -1</clus>
<clus scale="   92.529">  7  8 -1 -1</clus>
<clus scale="  159.840">  7 10 -1 -1</clus>
<clus scale="  215.473">  2  9  1 -1</clus>
<clus scale="  215.473">  2  5  1 -1</clus>
</clustering>
</event>
<event>
10    4  0.2866397E-005  0.5634884E+03  0.7546771E-02  0.1038074E+00
          2   -1    0    0  502    0 -0.00000000000E+00  0.00000000000E+00  0.13092427312E+04  0.13092427312E+04  0.00000000000E+00 0. -1.
         21   -1    0    0  503  502  0.00000000000E+00 -0.00000000000E+00 -0.33722798093E+03  0.33722798093E+03  0.00000000000E+00 0. -1.
         24    2    1    2    0    0  0.14366107525E+03  0.28572261513E+02  0.89279497394E+03  0.90840020019E+03  0.81567024893E+02 0.  0.
         23    2    1    2    0    0  0.63309904221E+02  0.79238784128E+02  0.27355701250E+03  0.30555787013E+03  0.90803326071E+02 0.  0.
        -13    1    3    3    0    0  0.50271236439E+02 -0.28188628919E+02  0.26909899095E+03  0.27520185854E+03  0.00000000000E+00 0.  1.
         14    1    3    3    0    0  0.93389838809E+02  0.56760890431E+02  0.62369598299E+03  0.63319834166E+03  0.00000000000E+00 0. -1.
        -11    1    4    4    0    0  0.15350211467E+02  0.35213375095E+02  0.21368394960E+03  0.21710928375E+03  0.00000000000E+00 0.  1.
         11    1    4    4    0    0  0.47959692754E+02  0.44025409033E+02  0.59873062903E+02  0.88448586371E+02  0.00000000000E+00 0. -1.
         21    1    1    2  503  501  0.26007084000E+02  0.64904709762E+02 -0.11024862306E+03  0.13055170874E+03  0.00000000000E+00 0.  1.
          1    1    1    2  501    0 -0.23297806347E+03 -0.17271575540E+03 -0.84088613134E+02  0.30196093304E+03  0.00000000000E+00 0. -1.
<scales pt_clust_5="13000.00000" pt_clust_6="13000.00000" pt_clust_7="13000.00000" pt_clust_8="13000.00000" pt_clust_9="69.92131" pt_clust_10="13000.00000"></scales>
<clustering>
<clus scale="   69.921">  2  9  1 -1</clus>
<clus scale="   81.567">  5  6 -1 -1</clus>
<clus scale="   90.803">  7  8 -1 -1</clus>
<clus scale="  168.869">  1  5  2 -1</clus>
<clus scale="  208.782">  7 10 -1 -1</clus>
<clus scale="   69.921">  2  5  1 -1</clus>
</clustering>
</event>
<event>
10    4  0.2866397E-005  0.2409378E+03  0.7546771E-02  0.1130761E+00
         -3   -1    0    0    0  501 -0.00000000000E+00  0.00000000000E+00  0.51717919473E+03  0.51717919473E+03  0.00000000000E+00 0.  1.
         21   -1    0    0  503  502  0.00000000000E+00 -0.00000000000E+00 -0.17967906445E+03  0.17967906445E+03  0.00000000000E+00 0.  1.
         24    2    1    2    0    0  0.58061954472E+02 -0.15679152850E+03  0.32354236270E+03  0.37272436441E+03  0.79303325259E+02 0.  0.
         23    2    1    2    0    0 -0.11880037960E+01  0.55455259811E+02  0.30928395528E+02  0.11017609390E+03  0.90030599377E+02 0.  0.
        -11    1    3    3    0    0  0.76780458043E+02 -0.13343219231E+03  0.25396151130E+03  0.29697784077E+03  0.00000000000E+00 0.  1.
         12    1    3    3    0    0 -0.18718503571E+02 -0.23359336186E+02  0.69580851397E+02  0.75746523644E+02  0.00000000000E+00 0. -1.
        -13    1    4    4    0    0 -0.22153429657E+02  0.51731805220E+02  0.54549013130E+02  0.78374415151E+02  0.00000000000E+00 0. -1.
         13    1    4    4    0    0  0.20965425861E+02  0.37234545908E+01 -0.23620617601E+02  0.31801678753E+02  0.00000000000E+00 0.  1.
         21    1    1    2  503  501  0.63690090331E+02  0.54682190645E+02 -0.92396136810E+01  0.84450814330E+02  0.00000000000E+00 0.  1.
         -4    1    1    2    0  502 -0.12056404101E+03  0.46654078040E+02 -0.77310142726E+01  0.12950698654E+03  0.00000000000E+00 0.  1.
<scales pt_clust_5="13000.00000" pt_clust_6="13000.00000" pt_clust_7="13000.00000" pt_clust_8="13000.00000" pt_clust_9="83.94385" pt_clust_10="13000.00000"></scales>
<clustering>
<clus scale="   79.303">  5  6 -1 -1</clus>
<clus scale="   83.944">  2  9  1 -1</clus>
<clus scale="   90.031">  7  8 -1 -1</clus>
<clus scale="  115.304">  7 10 -1 -1</clus>
<clus scale="  180.776">  1  5  2 -1</clus>
<clus scale="   83.944">  2  5  1 -1</clus>
</clustering>
</event>
<event>
10    4  0.2866397E-005  0.3351588E+03  0.7546771E-02  0.1116529E+00
         -1   -1    0    0    0  501 -0.00000000000E+00  0.00000000000E+00  0.23356199221E+03  0.23356199221E+03  0.00000000000E+00 0.  1.
         21   -1    0    0  503  502  0.00000000000E+00 -0.00000000000E+00 -0.27504095515E+03  0.27504095515E+03  0.00000000000E+00 0.  1.
         24    2    1    2    0    0  0.33517648036E+02 -0.46158855635E+02 -0.76804567914E+02  0.12290799368E+03  0.77158023401E+02 0.  0.
         23    2    1    2    0    0  0.51129909926E-01 -0.63629834385E+02 -0.12554765170E+03  0.16725459404E+03  0.90350030116E+02 0.  0.
        -11    1    3    3    0    0  0.44449251035E+02 -0.95819132959E+01 -0.10921215192E+02  0.46763467807E+02  0.00000000000E+00 0.  1.
         12    1    3    3    0    0 -0.10931602999E+02 -0.36576942339E+02 -0.65883352722E+02  0.76144525876E+02  0.00000000000E+00 0. -1.
        -11    1    4    4    0    0 -0.16269285087E+02 -0.78188061143E+02 -0.65301631041E+02  0.10316184158E+03  0.00000000000E+00 0.  1.
         11    1    4    4    0    0  0.16320414997E+02  0.14558226757E+02 -0.60246020664E+02  0.64092752459E+02  0.00000000000E+00 0. -1.
         21    1    1    2  503  501 -0.20564419751E+02 -0.11009581912E+02  0.44289079172E+02  0.50056256227E+02  0.00000000000E+00 0.  1.
         -2    1    1    2    0  502 -0.13004358196E+02  0.12079827193E+03  0.11658417751E+03  0.16838410340E+03  0.00000000000E+00 0.  1.
<scales pt_clust_5="13000.00000" pt_clust_6="13000.00000" pt_clust_7="13000.00000" pt_clust_8="13000.00000" pt_clust_9="23.32610" pt_clust_10="13000.00000"></scales>
<clustering>
<clus scale="   23.326">  2  9  1 -1</clus>
<clus scale="   77.158">  5  6 -1 -1</clus>
<clus scale="   90.350">  7  8 -1 -1</clus>
<clus scale="   95.644">  1  5  2 -1</clus>
<clus scale="   82.628">  7 10 -1 -1</clus>
<clus scale="   23.326">  2  5  1 -1</clus>
</clustering>
</event>
<event>
10    4  0.2866397E-005  0.3126096E+03  0.7546771E-02  0.1111301E+00
         21   -1    0    0  503  502  0.00000000000E+00  0.00000000000E+00  0.15109834278E+03  0.15109834278E+03  0.00000000000E+00 0. -1.
          2   -1    0    0  502    0 -0.00000000000E+00 -0.00000000000E+00 -0.77582340744E+03  0.77582340744E+03  0.00000000000E+00 0. -1.
         24    2    1    2    0    0  0.30896899958E+02 -0.71089550177E+02  0.41406296390E+02  0.11927821206E+03  0.80650281591E+02 0.  0.
         23    2    1    2    0    0 -0.67997378901E+02  0.41183591097E+02 -0.96874075780E+02  0.15540571172E+03  0.91905478417E+02 0.  0.
        -13    1    3    3    0    0  0.36709135773E+02 -0.22199070492E+02 -0.14029485187E+02  0.45135195075E+02  0.00000000000E+00 0.  1.
         14    1    3    3    0    0 -0.58122358147E+01 -0.48890479685E+02  0.55435781576E+02  0.74143016987E+02  0.00000000000E+00 0. -1.
        -13    1    4    4    0    0  0.19935993416E+02  0.13985395949E+02 -0.40562535902E+01  0.24687817371E+02  0.00000000000E+00 0. -1.
         13    1    4    4    0    0 -0.87933372317E+02  0.27198195148E+02 -0.92817822190E+02  0.13071789435E+03  0.00000000000E+00 0.  1.
         21    1    1    2  503  501 -0.88041883037E+02 -0.49067512120E+02 -0.50398215566E+02  0.11268972467E+03  0.00000000000E+00 0. -1.
          1    1    1    2  501    0  0.12514236198E+03  0.78973471200E+02 -0.51885906969E+03  0.53954810177E+03  0.00000000000E+00 0. -1.
<scales pt_clust_5="13000.00000" pt_clust_6="13000.00000" pt_clust_7="13000.00000" pt_clust_8="13000.00000" pt_clust_9="100.79183" pt_clust_10="13000.00000"></scales>
<clustering>
<clus scale="   80.650">  5  6 -1 -1</clus>
<clus scale="   91.905">  7  8 -1 -1</clus>
<clus scale="  100.792">  1  9  2 -1</clus>
<clus scale="  134.533">  2  5  1 -1</clus>
<clus scale="   97.019">  7 10 -1 -1</clus>
<clus scale="  100.792">  1  5  2 -1</clus>
</clustering>
</event>
<event>
10    4  0.2866397E-005  0.3164165E+03  0.7546771E-02  0.1124715E+00
          2   -1    0    0  503    0 -0.00000000000E+00  0.00000000000E+00  0.10147972762E+04  0.10147972762E+04  0.00000000000E+00 0. -1.
         21   -1    0    0  501  502  0.00000000000E+00 -0.00000000000E+00 -0.29134330272E+03  0.29134330272E+03  0.00000000000E+00 0. -1.
         24    2    1    2    0    0  0.46061082650E+02  0.38101664248E+01  0.88086996680E+03  0.88575909066E+03  0.80629570138E+02 0.  0.
         23    2    1    2    0    0  0.13993668147E+03  0.28814804206E+02 -0.55049527301E+02  0.17732739006E+03  0.89453815175E+02 0.  0.
        -13    1    3    3    0    0  0.18323451657E+02 -0.31877886284E+02  0.19733382545E+03  0.20073013521E+03  0.00000000000E+00 0.  1.
         14    1    3    3    0    0  0.27737630992E+02  0.35688052709E+02  0.68353614135E+03  0.68502895546E+03  0.00000000000E+00 0. -1.
        -11    1    4    4    0    0  0.45877264395E+02 -0.30525665475E+02 -0.48769224191E+01  0.55320195348E+02  0.00000000000E+00 0.  1.
         11    1    4    4    0    0  0.94059417072E+02  0.59340469681E+02 -0.50172604882E+02  0.12200719472E+03  0.00000000000E+00 0. -1.
         21    1    1    2  503  502 -0.49131970977E+02  0.98197224428E+01 -0.85055817913E+02  0.98716106496E+02  0.00000000000E+00 0. -1.
          1    1    1    2  501    0 -0.13686579314E+03 -0.42444693074E+02 -0.17310648124E+02  0.14433799167E+03  0.00000000000E+00 0. -1.
<scales pt_clust_5="13000.00000" pt_clust_6="13000.00000" pt_clust_7="13000.00000" pt_clust_8="13000.00000" pt_clust_9="50.10367" pt_clust_10="13000.00000"></scales>
<clustering>
<clus scale="   50.104">  2  9  1 -1</clus>
<clus scale="   80.630">  5  6 -1 -1</clus>
<clus scale="   89.454">  7  8 -1 -1</clus>
<clus scale="   92.645">  1  5  2 -1</clus>
<clus scale="  133.980">  7 10 -1 -1</clus>
<clus scale="   50.104">  2  5  1 -1</clus>
</clustering>
</event>
<event>
10    4  0.2866397E-005  0.2154239E+03  0.7546771E-02  0.1177993E+00
          2   -1    0    0  502    0 -0.00000000000E+00  0.00000000000E+00  0.11853319244E+04  0.11853319244E+04  0.00000000000E+00 0. -1.
         21   -1    0    0  503  502  0.00000000000E+00 -0.00000000000E+00 -0.55755003907E+02  0.55755003907E+02  0.00000000000E+00 0. -1.
         24    2    1    2    0    0 -0.20458899121E+02  0.23533533762E+02  0.88059442974E+03  0.88456687113E+03  0.77714902365E+02 0.  0.
         23    2    1    2    0    0 -0.64853715499E+02  0.15373585390E+02  0.67589770805E+02  0.13284648130E+03  0.92937930555E+02 0.  0.
        -13    1    3    3    0    0 -0.29499720730E+01 -0.20086235960E+02  0.78047544862E+02  0.80644767153E+02  0.00000000000E+00 0.  1.
         14    1    3    3    0    0 -0.17508927048E+02  0.43619769722E+02  0.80254688488E+03  0.80392210398E+03  0.00000000000E+00 0. -1.
        -13    1    4    4    0    0  0.22834237396E+02  0.86935711923E+01  0.25619845332E+02  0.35402783116E+02  0.00000000000E+00 0.  1.
         13    1    4    4    0    0 -0.87687952895E+02  0.66800141974E+01  0.41969925473E+02  0.97443698189E+02  0.00000000000E+00 0. -1.
         21    1    1    2  503  501  0.17481326396E+02 -0.19787432469E+02 -0.27108791351E+01  0.26542195124E+02  0.00000000000E+00 0. -1.
          1    1    1    2  501    0  0.67831288223E+02 -0.19119686683E+02  0.18410359912E+03  0.19713138079E+03  0.00000000000E+00 0. -1.
<scales pt_clust_5="13000.00000" pt_clust_6="13000.00000" pt_clust_7="13000.00000" pt_clust_8="13000.00000" pt_clust_9="26.40339" pt_clust_10="13000.00000"></scales>
<clustering>
<clus scale="   26.403">  2  9  1 -1</clus>
<clus scale="   77.715">  5  6 -1 -1</clus>
<clus scale="   83.271">  1  5  2 -1</clus>
<clus scale="   92.938">  7  8 -1 -1</clus>
<clus scale="   57.673">  7 10 -1 -1</clus>
<clus scale="   26.403">  2  5  1 -1</clus>
</clustering>
</event>
<event>
10    4  0.2866397E-005  0.3611353E+03  0.7546771E-02  0.1075971E+00
          2   -1    0    0  502    0 -0.00000000000E+00  0.00000000000E+00  0.41918838663E+03  0.41918838663E+03  0.00000000000E+00 0. -1.
         21   -1    0    0  503  502  0.00000000000E+00 -0.00000000000E+00 -0.29954532755E+03  0.29954532755E+03  0.00000000000E+00 0. -1.
         24    2    1    2    0    0  0.26893832699E+02  0.20642301206E+03  0.47498855462E+02  0.22708856429E+03  0.77326170322E+02 0.  0.
         23    2    1    2    0    0 -0.18686613325E+02 -0.16492806678E+03 -0.35161397818E+02  0.19257075003E+03  0.91086295018E+02 0.  0.
        -11    1    3    3    0    0  0.10258581564E+01  0.99188278672E+02  0.60227143365E+02  0.11604600729E+03  0.00000000000E+00 0.  1.
         12    1    3    3    0    0  0.25867974543E+02  0.10723473339E+03 -0.12728287903E+02  0.11104255700E+03  0.00000000000E+00 0. -1.
        -13    1    4    4    0    0  0.36174621459E+02 -0.60881894152E+02 -0.42116900825E+01  0.70943263292E+02  0.00000000000E+00 0.  1.
         13    1    4    4    0    0 -0.54861234784E+02 -0.10404617263E+03 -0.30949707735E+02  0.12162748674E+03  0.00000000000E+00 0. -1.
         21    1    1    2  503  501 -0.33969168861E+02 -0.15960027316E+00 -0.89815680949E+02  0.96024926190E+02  0.00000000000E+00 0. -1.
          1    1    1    2  501    0  0.25761949487E+02 -0.41335345006E+02  0.19712128239E+03  0.20304947367E+03  0.00000000000E+00 0. -1.
<scales pt_clust_5="13000.00000" pt_clust_6="13000.00000" pt_clust_7="13000.00000" pt_clust_8="13000.00000" pt_clust_9="33.96954" pt_clust_10="13000.00000"></scales>
<clustering>
<clus scale="   33.970">  2  9  1 -1</clus>
<clus scale="   77.326">  5  6 -1 -1</clus>
<clus scale="   91.086">  7  8 -1 -1</clus>
<clus scale="   48.452">  7 10 -1 -1</clus>
<clus scale="  220.700">  1  5  2 -1</clus>
<clus scale="   33.970">  2  5  1 -1</clus>
</clustering>
</event>
<event>
10    4  0.2866397E-005  0.2765838E+03  0.7546771E-02  0.1146282E+00
          2   -1    0    0  502    0 -0.00000000000E+00  0.00000000000E+00  0.14727775071E+04  0.14727775071E+04  0.00000000000E+00 0. -1.
         21   -1    0    0  503  502  0.00000000000E+00 -0.00000000000E+00 -0.26611871031E+03  0.26611871031E+03  0.00000000000E+00 0.  1.
         24    2    1    2    0    0  0.44579183807E+01  0.94408724716E+01  0.50998449617E+02  0.96648790680E+02  0.81431835097E+02 0.  0.
         23    2    1    2    0    0  0.33064093268E+01 -0.10183022593E+03  0.43716866571E+03  0.45784646579E+03  0.90147749260E+02 0.  0.
        -11    1    3    3    0    0 -0.19145328147E+02  0.39357487695E+02  0.30816750505E+02  0.53527820236E+02  0.00000000000E+00 0.  1.
         12    1    3    3    0    0  0.23603246527E+02 -0.29916615223E+02  0.20181699112E+02  0.43120970444E+02  0.00000000000E+00 0. -1.
        -13    1    4    4    0    0  0.23285111277E+02  0.51027029667E+01  0.45689592165E+02  0.51534190757E+02  0.00000000000E+00 0.  1.
         13    1    4    4    0    0 -0.19978701950E+02 -0.10693292890E+03  0.39147907355E+03  0.40631227503E+03  0.00000000000E+00 0. -1.
         21    1    1    2  503  501  0.26722349273E+02  0.21715624325E+03 -0.17587292444E+03  0.28071730172E+03  0.00000000000E+00 0.  1.
          1    1    1    2  501    0 -0.34486676980E+02 -0.12476688979E+03  0.89436460592E+03  0.90368365925E+03  0.00000000000E+00 0. -1.
<scales pt_clust_5="13000.00000" pt_clust_6="13000.00000" pt_clust_7="13000.00000" pt_clust_8="13000.00000" pt_clust_9="219.16580" pt_clust_10="13000.00000"></scales>
<clustering>
<clus scale="   81.432">  5  6 -1 -1</clus>
<clus scale="   82.098">  1  5  2 -1</clus>
<clus scale="   90.148">  7  8 -1 -1</clus>
<clus scale="  122.840">  7 10 -1 -1</clus>
<clus scale="  219.166">  2  9  1 -1</clus>
<clus scale="  219.166">  2  5  1 -1</clus>
</clustering>
</event>
<event>
10    4  0.2866397E-005  0.3136206E+03  0.7546771E-02  0.1114365E+00
         21   -1    0    0  501  502  0.00000000000E+00  0.00000000000E+00  0.35565149252E+03  0.35565149252E+03  0.00000000000E+00 0. -1.
         -1   -1    0    0    0  501 -0.00000000000E+00 -0.00000000000E+00 -0.15962723460E+03  0.15962723460E+03  0.00000000000E+00 0.  1.
         24    2    1    2    0    0 -0.85345574840E+02 -0.24844345555E+02  0.96456422486E+01  0.12048943809E+03  0.80768543547E+02 0.  0.
         23    2    1    2    0    0  0.11377962170E+03  0.88989978142E+02  0.20319920887E+03  0.26792785636E+03  0.98134597387E+02 0.  0.
        -13    1    3    3    0    0 -0.63609989731E+02  0.23216639586E+01 -0.27727090668E+02  0.69429190360E+02  0.00000000000E+00 0.  1.
         14    1    3    3    0    0 -0.21735585110E+02 -0.27166009514E+02  0.37372732916E+02  0.51060247734E+02  0.00000000000E+00 0. -1.
        -11    1    4    4    0    0  0.16115616034E+02  0.29668582360E+02 -0.11691660584E+01  0.33783203055E+02  0.00000000000E+00 0.  1.
         11    1    4    4    0    0  0.97664005664E+02  0.59321395782E+02  0.20436837493E+03  0.23414465330E+03  0.00000000000E+00 0. -1.
         21    1    1    2  503  502 -0.22854177087E+02  0.46306627676E+01  0.33954787618E+02  0.41190824829E+02  0.00000000000E+00 0. -1.
         -2    1    1    2    0  503 -0.55798697711E+01 -0.68776295354E+02 -0.50775380820E+02  0.85670607834E+02  0.00000000000E+00 0.  1.
<scales pt_clust_5="13000.00000" pt_clust_6="13000.00000" pt_clust_7="13000.00000" pt_clust_8="13000.00000" pt_clust_9="23.31859" pt_clust_10="13000.00000"></scales>
<clustering>
<clus scale="   23.319">  1  9  2 -1</clus>
<clus scale="   80.769">  5  6 -1 -1</clus>
<clus scale="   98.135">  7  8 -1 -1</clus>
<clus scale="   68.862">  7 10 -1 -1</clus>
<clus scale="  123.282">  2  5  1 -1</clus>
<clus scale="   23.319">  1  5  2 -1</clus>
</clustering>
</event>
<event>
10    4  0.2866397E-005  0.2069515E+03  0.7546771E-02  0.1170405E+00
         21   -1    0    0  503  502  0.00000000000E+00  0.00000000000E+00  0.29351238830E+02  0.29351238830E+02  0.00000000000E+00 0. -1.
          2   -1    0    0  502    0 -0.00000000000E+00 -0.00000000000E+00 -0.10583950189E+04  0.10583950189E+04  0.00000000000E+00 0. -1.
         24    2    1    2    0    0  0.81231734394E+02  0.16940831073E+02 -0.47505729214E+03  0.48888869097E+03  0.80294052812E+02 0.  0.
         23    2    1    2    0    0 -0.10313322085E+03  0.17685470996E+02 -0.27598542216E+03  0.30898527878E+03  0.91404114378E+02 0.  0.
        -11    1    3    3    0    0  0.33968847448E+02 -0.31095698688E+02 -0.14960292657E+03  0.15653070214E+03  0.00000000000E+00 0.  1.
         12    1    3    3    0    0  0.47262886947E+02  0.48036529761E+02 -0.32545436556E+03  0.33235798883E+03  0.00000000000E+00 0. -1.
        -13    1    4    4    0    0  0.10063715386E+02  0.20762434564E+02 -0.72883060809E+02  0.76448005921E+02  0.00000000000E+00 0.  1.
         13    1    4    4    0    0 -0.11319693624E+03 -0.30769635683E+01 -0.20310236136E+03  0.23253727286E+03  0.00000000000E+00 0. -1.
         21    1    1    2  503  501 -0.18627519523E+02 -0.10719771583E+02 -0.27053284828E+02  0.34551095588E+02  0.00000000000E+00 0.  1.
          1    1    1    2  501    0  0.40529005984E+02 -0.23906530486E+02 -0.25094778096E+03  0.25532119241E+03  0.00000000000E+00 0. -1.
<scales pt_clust_5="13000.00000" pt_clust_6="13000.00000" pt_clust_7="13000.00000" pt_clust_8="13000.00000" pt_clust_9="21.49181" pt_clust_10="13000.00000"></scales>
<clustering>
<clus scale="   21.492">  1  9  2 -1</clus>
<clus scale="   80.294">  5  6 -1 -1</clus>
<clus scale="   91.404">  7  8 -1 -1</clus>
<clus scale="   46.177">  7 10 -1 -1</clus>
<clus scale="  111.583">  2  5  1 -1</clus>
<clus scale="   21.492">  1  5  2 -1</clus>
</clustering>
</event>
<event>
10    4  0.2866397E-005  0.4184548E+03  0.7546771E-02  0.1087193E+00
          2   -1    0    0  503    0 -0.00000000000E+00  0.00000000000E+00  0.90882728788E+03  0.90882728788E+03  0.00000000000E+00 0. -1.
         21   -1    0    0  501  502  0.00000000000E+00 -0.00000000000E+00 -0.62641766891E+03  0.62641766891E+03  0.00000000000E+00 0. -1.
         24    2    1    2    0    0  0.63175178171E+02 -0.20275177335E+02  0.19903405743E+03  0.22500679114E+03  0.81309987633E+02 0.  0.
         23    2    1    2    0    0  0.20329295198E+02  0.16803369323E+02 -0.17406660233E+02  0.95101337483E+02  0.89697486624E+02 0.  0.
        -13    1    3    3    0    0  0.14860929022E+02  0.26916321624E+02  0.10378416026E+03  0.10824272494E+03  0.00000000000E+00 0.  1.
         14    1    3    3    0    0  0.48314249149E+02 -0.47191498959E+02  0.95249897164E+02  0.11676406620E+03  0.00000000000E+00 0. -1.
        -11    1    4    4    0    0 -0.33107028325E+00 -0.32378005568E+02  0.11582151300E+02  0.34388822034E+02  0.00000000000E+00 0. -1.
         11    1    4    4    0    0  0.20660365482E+02  0.49181374891E+02 -0.28988811533E+02  0.60712515449E+02  0.00000000000E+00 0.  1.
         21    1    1    2  503  502  0.43501067553E+02 -0.12680903861E+03 -0.53618650887E+03  0.55269236240E+03  0.00000000000E+00 0. -1.
          1    1    1    2  501    0 -0.12700554092E+03  0.13028084662E+03  0.63696873064E+03  0.66244446578E+03  0.00000000000E+00 0. -1.
<scales pt_clust_5="13000.00000" pt_clust_6="13000.00000" pt_clust_7="13000.00000" pt_clust_8="13000.00000" pt_clust_9="134.53436" pt_clust_10="13000.00000"></scales>
<clustering>
<clus scale="   81.310">  5  6 -1 -1</clus>
<clus scale="   89.697">  7  8 -1 -1</clus>
<clus scale="  104.945">  1  5  2 -1</clus>
<clus scale="  130.546">  7 10 -1 -1</clus>
<clus scale="  134.534">  2  9  1 -1</clus>
<clus scale="  134.534">  2  5  1 -1</clus>
</clustering>
</event>
<event>
10    4  0.2866397E-005  0.2717347E+03  0.7546771E-02  0.1145263E+00
          2   -1    0    0  502    0 -0.00000000000E+00  0.00000000000E+00  0.13228812024E+04  0.13228812024E+04  0.00000000000E+00 0. -1.
         21   -1    0    0  503  502  0.00000000000E+00 -0.00000000000E+00 -0.29388060294E+02  0.29388060294E+02  0.00000000000E+00 0. -1.
         24    2    1    2    0    0  0.59422580913E+01  0.40552829288E+02  0.19704039792E+03  0.21585980922E+03  0.78042914041E+02 0.  0.
         23    2    1    2    0    0  0.89441097458E+02  0.22811060579E+02  0.28592665235E+03  0.31369841856E+03  0.90180889774E+02 0.  0.
        -11    1    3    3    0    0 -0.17889256477E+01  0.58165433544E+02  0.18304409801E+03  0.19207175672E+03  0.00000000000E+00 0.  1.
         12    1    3    3    0    0  0.77311837390E+01 -0.17612604256E+02  0.13996299910E+02  0.23788052503E+02  0.00000000000E+00 0. -1.
        -13    1    4    4    0    0  0.10422367360E+03  0.58183998132E+01  0.25412579457E+03  0.27472958957E+03  0.00000000000E+00 0. -1.
         13    1    4    4    0    0 -0.14782576146E+02  0.16992660766E+02  0.31800857780E+02  0.38968828992E+02  0.00000000000E+00 0.  1.
         21    1    1    2  503  501 -0.19690760741E+02  0.45208664269E+01  0.33944477524E+02  0.39501795481E+02  0.00000000000E+00 0. -1.
          1    1    1    2  501    0 -0.75692594808E+02 -0.67884756294E+02  0.77658161427E+03  0.78320923939E+03  0.00000000000E+00 0. -1.
<scales pt_clust_5="13000.00000" pt_clust_6="13000.00000" pt_clust_7="13000.00000" pt_clust_8="13000.00000" pt_clust_9="20.20308" pt_clust_10="13000.00000"></scales>
<clustering>
<clus scale="   20.203">  2  9  1 -1</clus>
<clus scale="   78.043">  5  6 -1 -1</clus>
<clus scale="   88.705">  1  5  2 -1</clus>
<clus scale="   90.181">  7  8 -1 -1</clus>
<clus scale="   86.885">  7 10 -1 -1</clus>
<clus scale="   20.203">  2  5  1 -1</clus>
</clustering>
</event>
<event>
10    4  0.2866397E-005  0.1356943E+03  0.7546771E-02  0.1244119E+00
          4   -1    0    0  503    0 -0.00000000000E+00  0.00000000000E+00  0.20372471275E+03  0.20372471275E+03  0.00000000000E+00 0. -1.
         21   -1    0    0  501  502  0.00000000000E+00 -0.00000000000E+00 -0.76186676876E+02  0.76186676876E+02  0.00000000000E+00 0. -1.
         24    2    1    2    0    0 -0.62019558865E+01 -0.10123004124E+02  0.68456308265E+02  0.10565626238E+03  0.79599247298E+02 0.  0.
         23    2    1    2    0    0  0.71687432064E+01  0.80128968234E+01  0.85968992228E+00  0.85327325530E+02  0.84642873419E+02 0.  0.
        -11    1    3    3    0    0  0.11481514837E+02  0.32191423421E+02  0.23821063014E+02  0.41660004416E+02  0.00000000000E+00 0.  1.
         12    1    3    3    0    0 -0.17683470723E+02 -0.42314427545E+02  0.44635245251E+02  0.63996257968E+02  0.00000000000E+00 0. -1.
        -13    1    4    4    0    0  0.43075369288E+02  0.11797118813E+02  0.14156008161E+02  0.46851382249E+02  0.00000000000E+00 0. -1.
         13    1    4    4    0    0 -0.35906626082E+02 -0.37842219899E+01 -0.13296318239E+02  0.38475943281E+02  0.00000000000E+00 0.  1.
         21    1    1    2  503  502 -0.20959746795E+02 -0.25626216269E+01 -0.56320218418E+01  0.21854008450E+02  0.00000000000E+00 0. -1.
          3    1    1    2  501    0  0.19992959475E+02  0.46727289278E+01  0.63854059533E+02  0.67073793265E+02  0.00000000000E+00 0. -1.
<scales pt_clust_5="13000.00000" pt_clust_6="13000.00000" pt_clust_7="13000.00000" pt_clust_8="13000.00000" pt_clust_9="21.11582" pt_clust_10="13000.00000"></scales>
<clustering>
<clus scale="   21.116">  2  9  1 -1</clus>
<clus scale="   79.599">  5  6 -1 -1</clus>
<clus scale="   81.298">  1  5  2 -1</clus>
<clus scale="   84.643">  7  8 -1 -1</clus>
<clus scale="   12.619">  7 10 -1 -1</clus>
<clus scale="   21.116">  2  5  1 -1</clus>
</clustering>
</event>
<event>
10    4  0.2866397E-005  0.3332796E+03  0.7546771E-02  0.1097261E+00
         21   -1    0    0  503  502  0.00000000000E+00  0.00000000000E+00  0.69009379794E+02  0.69009379794E+02  0.00000000000E+00 0.  1.
          2   -1    0    0  502    0 -0.00000000000E+00 -0.00000000000E+00 -0.12590615232E+04  0.12590615232E+04  0.00000000000E+00 0. -1.
         24    2    1    2    0    0 -0.71826804358E+02  0.10553472372E+03 -0.24463663153E+03  0.28770154733E+03  0.81415177417E+02 0.  0.
         23    2    1    2    0    0  0.13305939799E+03 -0.44506531779E+02 -0.22587546681E+03  0.27851182360E+03  0.82846089891E+02 0.  0.
        -11    1    3    3    0    0 -0.21078407110E+01  0.68784800323E+02 -0.82566571400E+02  0.10748502436E+03  0.00000000000E+00 0.  1.
         12    1    3    3    0    0 -0.69718963647E+02  0.36749923393E+02 -0.16207006013E+03  0.18021652297E+03  0.00000000000E+00 0. -1.
        -13    1    4    4    0    0  0.76596167310E+02  0.16910012176E+02 -0.93569282262E+02  0.12209886134E+03  0.00000000000E+00 0.  1.
         13    1    4    4    0    0  0.56463230681E+02 -0.61416543954E+02 -0.13230618455E+03  0.15641296225E+03  0.00000000000E+00 0. -1.
         21    1    1    2  503  501 -0.15130574322E+02  0.16209497531E+02  0.11723635186E+02  0.25082378506E+02  0.00000000000E+00 0.  1.
          1    1    1    2  501    0 -0.46102019311E+02 -0.77237689469E+02 -0.73126368021E+03  0.73677515353E+03  0.00000000000E+00 0. -1.
<scales pt_clust_5="13000.00000" pt_clust_6="13000.00000" pt_clust_7="13000.00000" pt_clust_8="13000.00000" pt_clust_9="22.17391" pt_clust_10="13000.00000"></scales>
<clustering>
<clus scale="   22.174">  1  9  2 -1</clus>
<clus scale="   81.415">  5  6 -1 -1</clus>
<clus scale="   82.846">  7  8 -1 -1</clus>
<clus scale="   89.622">  7 10 -1 -1</clus>
<clus scale="  159.357">  2  5  1 -1</clus>
<clus scale="   22.174">  1  5  2 -1</clus>
</clustering>
</event>
<event>
10    4  0.2866397E-005  0.6379274E+03  0.7546771E-02  0.1023727E+00
          2   -1    0    0  503    0 -0.00000000000E+00  0.00000000000E+00  0.11016550774E+04  0.11016550774E+04  0.00000000000E+00 0. -1.
         21   -1    0    0  501  502  0.00000000000E+00 -0.00000000000E+00 -0.45440202660E+03  0.45440202660E+03  0.00000000000E+00 0. -1.
         24    2    1    2    0    0  0.13729573658E+03 -0.80689956700E+02  0.64332749628E+03  0.66784439934E+03  0.82370418578E+02 0.  0.
         23    2    1    2    0    0 -0.27791561173E+02  0.67795039405E+02 -0.20695726909E+03  0.23706789193E+03  0.89450186761E+02 0.  0.
        -11    1    3    3    0    0  0.88343541544E+02 -0.55135466743E+01  0.28314719872E+03  0.29666027148E+03  0.00000000000E+00 0.  1.
         12    1    3    3    0    0  0.48952195039E+02 -0.75176410026E+02  0.36018029756E+03  0.37118412786E+03  0.00000000000E+00 0. -1.
        -13    1    4    4    0    0  0.20918098071E+02  0.49758543848E+02 -0.57607958126E+02  0.78944007703E+02  0.00000000000E+00 0. -1.
         13    1    4    4    0    0 -0.48709659244E+02  0.18036495557E+02 -0.14934931097E+03  0.15812388422E+03  0.00000000000E+00 0.  1.
         21    1    1    2  503  502 -0.39248838374E+02 -0.11406702071E+02 -0.21498573176E+03  0.21883658064E+03  0.00000000000E+00 0. -1.
          1    1    1    2  501    0 -0.70255337036E+02  0.24301619366E+02  0.42586855538E+03  0.43230823210E+03  0.00000000000E+00 0. -1.
<scales pt_clust_5="13000.00000" pt_clust_6="13000.00000" pt_clust_7="13000.00000" pt_clust_8="13000.00000" pt_clust_9="40.87278" pt_clust_10="13000.00000"></scales>
<clustering>
<clus scale="   40.873">  2  9  1 -1</clus>
<clus scale="   82.370">  5  6 -1 -1</clus>
<clus scale="   89.450">  7  8 -1 -1</clus>
<clus scale="   74.793">  7 10 -1 -1</clus>
<clus scale="  178.014">  1  5  2 -1</clus>
<clus scale="   40.873">  2  5  1 -1</clus>
</clustering>
</event>
<event>
10    4  0.2866397E-005  0.2123780E+03  0.7546771E-02  0.1180896E+00
         -1   -1    0    0    0  501 -0.00000000000E+00  0.00000000000E+00  0.13220746199E+03  0.13220746199E+03  0.00000000000E+00 0.  1.
         21   -1    0    0  501  502  0.00000000000E+00 -0.00000000000E+00 -0.24431441043E+03  0.24431441043E+03  0.00000000000E+00 0. -1.
         24    2    1    2    0    0 -0.21227527788E+02 -0.44899473230E+01 -0.10740639068E+03  0.13468694496E+03  0.78317768221E+02 0.  0.
         23    2    1    2    0    0 -0.48137876742E+02 -0.41274837580E+02 -0.42429695253E+02  0.12085272973E+03  0.93724254328E+02 0.  0.
        -13    1    3    3    0    0  0.24648275101E+02 -0.54451744225E+00 -0.93680868772E+01  0.26374135368E+02  0.00000000000E+00 0.  1.
         14    1    3    3    0    0 -0.45875802889E+02 -0.39454298808E+01 -0.98038303806E+02  0.10831280959E+03  0.00000000000E+00 0. -1.
        -11    1    4    4    0    0 -0.10400268424E+02  0.22796560549E+02 -0.39074036781E+02  0.46417982577E+02  0.00000000000E+00 0.  1.
         11    1    4    4    0    0 -0.37737608318E+02 -0.64071398130E+02 -0.33556584720E+01  0.74434747153E+02  0.00000000000E+00 0. -1.
         21    1    1    2  503  502  0.36910869380E+00  0.21312616282E+02 -0.18857161011E+02  0.28459732525E+02  0.00000000000E+00 0.  1.
         -2    1    1    2    0  503  0.68996295836E+02  0.24452168621E+02  0.56586298506E+02  0.92522465207E+02  0.00000000000E+00 0.  1.
<scales pt_clust_5="13000.00000" pt_clust_6="13000.00000" pt_clust_7="13000.00000" pt_clust_8="13000.00000" pt_clust_9="21.31581" pt_clust_10="13000.00000"></scales>
<clustering>
<clus scale="   21.316">  2  9  1 -1</clus>
<clus scale="   78.318">  5  6 -1 -1</clus>
<clus scale="   81.410">  1  5  2 -1</clus>
<clus scale="   93.724">  7  8 -1 -1</clus>
<clus scale="   63.253">  7 10 -1 -1</clus>
<clus scale="   21.316">  2  5  1 -1</clus>
</clustering>
</event>
<event>
10    4  0.2866397E-005  0.4819472E+03  0.7546771E-02  0.1047045E+00
          2   -1    0    0  502    0 -0.00000000000E+00  0.00000000000E+00  0.23874493749E+04  0.23874493749E+04  0.00000000000E+00 0. -1.
         21   -1    0    0  503  502  0.00000000000E+00 -0.00000000000E+00 -0.14539774596E+03  0.14539774596E+03  0.00000000000E+00 0. -1.
         24    2    1    2    0    0  0.65159265958E+02 -0.17540878177E+03  0.80159585044E+03  0.82703747765E+03  0.80131837223E+02 0.  0.
         23    2    1    2    0    0 -0.33432619295E+00 -0.13095441308E+03  0.42998542526E+03  0.45862196761E+03  0.91090466868E+02 0.  0.
        -11    1    3    3    0    0  0.57020544162E+02 -0.10958643484E+03  0.36273855030E+03  0.38319679674E+03  0.00000000000E+00 0.  1.
         12    1    3    3    0    0  0.81387217963E+01 -0.65822346936E+02  0.43885730014E+03  0.44384068091E+03  0.00000000000E+00 0. -1.
        -11    1    4    4    0    0 -0.26787216780E+02 -0.10388457493E+03  0.21444536987E+03  0.23978402063E+03  0.00000000000E+00 0.  1.
         11    1    4    4    0    0  0.26452890587E+02 -0.27069838149E+02  0.21554005540E+03  0.21883794698E+03  0.00000000000E+00 0. -1.
         21    1    1    2  503  501  0.53215975079E+02  0.57907158368E-01 -0.86829173285E+02  0.10183932782E+03  0.00000000000E+00 0. -1.
          1    1    1    2  501    0 -0.11804091484E+03  0.30630528769E+03  0.10972995265E+04  0.11453483478E+04  0.00000000000E+00 0. -1.
<scales pt_clust_5="13000.00000" pt_clust_6="13000.00000" pt_clust_7="13000.00000" pt_clust_8="13000.00000" pt_clust_9="53.21601" pt_clust_10="13000.00000"></scales>
<clustering>
<clus scale="   53.216">  2  9  1 -1</clus>
<clus scale="   80.132">  5  6 -1 -1</clus>
<clus scale="   91.090">  7  8 -1 -1</clus>
<clus scale="  208.167">  1  5  2 -1</clus>
<clus scale="  187.423">  7 10 -1 -1</clus>
<clus scale="   53.216">  2  5  1 -1</clus>
</clustering>
</event>
<event>
10    4  0.2866397E-005  0.4621418E+03  0.7546771E-02  0.1066399E+00
         21   -1    0    0  503  502  0.00000000000E+00  0.00000000000E+00  0.12447297064E+03  0.12447297064E+03  0.00000000000E+00 0. -1.
          2   -1    0    0  502    0 -0.00000000000E+00 -0.00000000000E+00 -0.15868968604E+04  0.15868968604E+04  0.00000000000E+00 0. -1.
         24    2    1    2    0    0  0.54674325698E+02  0.97820945158E+02 -0.47723597770E+03  0.49647898646E+03  0.78606528876E+02 0.  0.
         23    2    1    2    0    0  0.91608470500E+02  0.12428754863E+03 -0.19322259202E+03  0.26419485987E+03  0.92867902459E+02 0.  0.
        -11    1    3    3    0    0 -0.12859063339E+02  0.55894671965E+02 -0.20594336390E+03  0.21378082000E+03  0.00000000000E+00 0.  1.
         12    1    3    3    0    0  0.67533389037E+02  0.41926273193E+02 -0.27129261380E+03  0.28269816646E+03  0.00000000000E+00 0. -1.
        -11    1    4    4    0    0  0.69533690266E+02  0.10327479036E+03 -0.19745158802E+03  0.23342610397E+03  0.00000000000E+00 0.  1.
         11    1    4    4    0    0  0.22074780233E+02  0.21012758271E+02  0.42289960016E+01  0.30768755901E+02  0.00000000000E+00 0. -1.
         21    1    1    2  503  501  0.88845767228E+02 -0.20141956310E+03 -0.14914179168E+03  0.26590728605E+03  0.00000000000E+00 0. -1.
          1    1    1    2  501    0 -0.23512856343E+03 -0.20688930690E+02 -0.64282352839E+03  0.68478869868E+03  0.00000000000E+00 0. -1.
<scales pt_clust_5="13000.00000" pt_clust_6="13000.00000" pt_clust_7="13000.00000" pt_clust_8="13000.00000" pt_clust_9="208.10838" pt_clust_10="13000.00000"></scales>
<clustering>
<clus scale="   78.607">  5  6 -1 -1</clus>
<clus scale="   92.868">  7  8 -1 -1</clus>
<clus scale="  136.884">  2  5  1 -1</clus>
<clus scale="  205.740">  7 10 -1 -1</clus>
<clus scale="  208.108">  1  9  2 -1</clus>
<clus scale="  208.108">  1  5  2 -1</clus>
</clustering>
</event>
<event>
10    4  0.2866397E-005  0.4928198E+03  0.7546771E-02  0.1069356E+00
         21   -1    0    0  501  502  0.00000000000E+00  0.00000000000E+00  0.25094040527E+03  0.25094040527E+03  0.00000000000E+00 0. -1.
          2   -1    0    0  503    0 -0.00000000000E+00 -0.00000000000E+00 -0.56412548867E+03  0.56412548867E+03  0.00000000000E+00 0. -1.
         24    2    1    2    0    0  0.52020534931E+02  0.45570430304E+02 -0.15345086871E+03  0.18644620121E+03  0.80201101393E+02 0.  0.
         23    2    1    2    0    0  0.95683770363E+02  0.11188432100E+03 -0.30014924037E+03  0.34785536317E+03  0.96126489556E+02 0.  0.
        -11    1    3    3    0    0 -0.66572078094E+01  0.43954209536E+02 -0.45775032775E+02  0.63809439562E+02  0.00000000000E+00 0.  1.
         12    1    3    3    0    0  0.58677742741E+02  0.16162207690E+01 -0.10767583594E+03  0.12263676165E+03  0.00000000000E+00 0. -1.
        -13    1    4    4    0    0  0.62253007959E+02  0.79545588997E+01 -0.14642524195E+03  0.15930807728E+03  0.00000000000E+00 0.  1.
         13    1    4    4    0    0  0.33430762404E+02  0.10392976210E+03 -0.15372399841E+03  0.18854728588E+03  0.00000000000E+00 0. -1.
         21    1    1    2  503  502 -0.24804027476E+02 -0.16708001902E+02  0.78365038118E+02  0.83877746190E+02  0.00000000000E+00 0.  1.
          1    1    1    2  501    0 -0.12290027782E+03 -0.14074674940E+03  0.62049987561E+02  0.19688658337E+03  0.00000000000E+00 0. -1.
<scales pt_clust_5="13000.00000" pt_clust_6="13000.00000" pt_clust_7="13000.00000" pt_clust_8="13000.00000" pt_clust_9="29.90647" pt_clust_10="13000.00000"></scales>
<clustering>
<clus scale="   29.906">  1  9  2 -1</clus>
<clus scale="   80.201">  5  6 -1 -1</clus>
<clus scale="   96.126">  7  8 -1 -1</clus>
<clus scale="  104.042">  2  5  1 -1</clus>
<clus scale="  194.613">  7 10 -1 -1</clus>
<clus scale="   29.906">  1  5  2 -1</clus>
</clustering>
</event>
<event>
10    4  0.2866397E-005  0.6547636E+03  0.7546771E-02  0.1025812E+00
         21   -1    0    0  501  502  0.00000000000E+00  0.00000000000E+00  0.31542765756E+03  0.31542765756E+03  0.00000000000E+00 0.  1.
         -1   -1    0    0    0  501 -0.00000000000E+00 -0.00000000000E+00 -0.86448334703E+03  0.86448334703E+03  0.00000000000E+00 0.  1.
         24    2    1    2    0    0 -0.12791519898E+03 -0.34995797421E+02 -0.45834169544E+03  0.48396495463E+03  0.80981254388E+02 0.  0.
         23    2    1    2    0    0  0.48012533148E+01 -0.98897689968E+02  0.23449796014E+03  0.27037787743E+03  0.91165224637E+02 0.  0.
        -11    1    3    3    0    0 -0.13350074139E+03 -0.24754872125E+02 -0.44881760345E+03  0.46890563316E+03  0.00000000000E+00 0.  1.
         12    1    3    3    0    0  0.55855424035E+01 -0.10240925296E+02 -0.95240919949E+01  0.15059321471E+02  0.00000000000E+00 0. -1.
        -11    1    4    4    0    0  0.13800734834E+02  0.14665672211E+02  0.27245489883E+02  0.33880067035E+02  0.00000000000E+00 0. -1.
         11    1    4    4    0    0 -0.89994815194E+01 -0.11356336218E+03  0.20725247025E+03  0.23649781040E+03  0.00000000000E+00 0.  1.
         21    1    1    2  503  502  0.21232342976E+02 -0.54193548661E+01  0.26142685954E+02  0.34111901505E+02  0.00000000000E+00 0.  1.
         -2    1    1    2    0  503  0.10188160269E+03  0.13931284225E+03 -0.35135464012E+03  0.39145627102E+03  0.00000000000E+00 0.  1.
<scales pt_clust_5="13000.00000" pt_clust_6="13000.00000" pt_clust_7="13000.00000" pt_clust_8="13000.00000" pt_clust_9="21.91305" pt_clust_10="13000.00000"></scales>
<clustering>
<clus scale="   21.913">  1  9  2 -1</clus>
<clus scale="   80.981">  5  6 -1 -1</clus>
<clus scale="   91.165">  7  8 -1 -1</clus>
<clus scale="  154.658">  2  5  1 -1</clus>
<clus scale="  106.986">  7 10 -1 -1</clus>
<clus scale="   21.913">  1  5  2 -1</clus>
</clustering>
</event>
<event>
10    4  0.2866397E-005  0.2365088E+03  0.7546771E-02  0.1150853E+00
         -1   -1    0    0    0  501 -0.00000000000E+00  0.00000000000E+00  0.43705650684E+03  0.43705650684E+03  0.00000000000E+00 0.  1.
         21   -1    0    0  503  502  0.00000000000E+00 -0.00000000000E+00 -0.11535157315E+03  0.11535157315E+03  0.00000000000E+00 0.  1.
         24    2    1    2    0    0  0.61465417029E+02  0.92943108258E+02  0.68320597764E+02  0.15448146439E+03  0.82343183685E+02 0.  0.
         23    2    1    2    0    0  0.35083289158E+02  0.37811992046E+02  0.65208754727E+02  0.12389893412E+03  0.91859568154E+02 0.  0.
        -11    1    3    3    0    0  0.47018104954E+02  0.89762782760E+02  0.84946553920E+02  0.13222698811E+03  0.00000000000E+00 0.  1.
         12    1    3    3    0    0  0.14447312075E+02  0.31803254982E+01 -0.16625956157E+02  0.22254476282E+02  0.00000000000E+00 0. -1.
        -13    1    4    4    0    0 -0.17887980722E+02  0.26907653610E+02 -0.76087014123E+01  0.33194788963E+02  0.00000000000E+00 0.  1.
         13    1    4    4    0    0  0.52971269880E+02  0.10904338436E+02  0.72817456139E+02  0.90704145153E+02  0.00000000000E+00 0. -1.
         21    1    1    2  503  501 -0.34420401962E+02 -0.42846134681E+02 -0.25519223323E+01  0.55018793479E+02  0.00000000000E+00 0.  1.
         -2    1    1    2    0  502 -0.62128304225E+02 -0.87908965624E+02  0.19072750352E+03  0.21900888800E+03  0.00000000000E+00 0.  1.
<scales pt_clust_5="13000.00000" pt_clust_6="13000.00000" pt_clust_7="13000.00000" pt_clust_8="13000.00000" pt_clust_9="54.95958" pt_clust_10="13000.00000"></scales>
<clustering>
<clus scale="   54.960">  2  9  1 -1</clus>
<clus scale="   82.343">  5  6 -1 -1</clus>
<clus scale="   91.860">  7  8 -1 -1</clus>
<clus scale="  116.609">  7 10 -1 -1</clus>
<clus scale="  117.795">  1  5  2 -1</clus>
<clus scale="   54.960">  2  5  1 -1</clus>
</clustering>
</event>
<event>
10    4  0.2866397E-005  0.4246359E+03  0.7546771E-02  0.1066738E+00
         21   -1    0    0  503  502  0.00000000000E+00  0.00000000000E+00  0.36968702468E+03  0.36968702468E+03  0.00000000000E+00 0.  1.
          2   -1    0    0  502    0 -0.00000000000E+00 -0.00000000000E+00 -0.55105771619E+03  0.55105771619E+03  0.00000000000E+00 0. -1.
         24    2    1    2    0    0 -0.12018513308E+03 -0.30429003825E+01  0.22144296315E+03  0.26359571711E+03  0.77407949822E+02 0.  0.
         23    2    1    2    0    0 -0.50330662858E+02 -0.89548570863E+02 -0.30488844385E+02  0.14273542383E+03  0.94295861074E+02 0.  0.
        -11    1    3    3    0    0 -0.96365259871E+02 -0.29984241800E+02  0.12493468038E+03  0.16060508220E+03  0.00000000000E+00 0.  1.
         12    1    3    3    0    0 -0.23819873209E+02  0.26941341417E+02  0.96508282768E+02  0.10299063491E+03  0.00000000000E+00 0. -1.
        -13    1    4    4    0    0 -0.24574162589E+02 -0.95751458830E+02  0.43706970982E+01  0.98951171434E+02  0.00000000000E+00 0. -1.
         13    1    4    4    0    0 -0.25756500269E+02  0.62028879663E+01 -0.34859541483E+02  0.43784252393E+02  0.00000000000E+00 0.  1.
         21    1    1    2  503  501 -0.49981068194E+02 -0.33259265023E+01  0.20266935408E+02  0.54036262229E+02  0.00000000000E+00 0. -1.
          1    1    1    2  501    0  0.22049686413E+03  0.95917397748E+02 -0.39259174569E+03  0.46037733769E+03  0.00000000000E+00 0. -1.
<scales pt_clust_5="13000.00000" pt_clust_6="13000.00000" pt_clust_7="13000.00000" pt_clust_8="13000.00000" pt_clust_9="50.09161" pt_clust_10="13000.00000"></scales>
<clustering>
<clus scale="   50.092">  1  9  2 -1</clus>
<clus scale="   77.408">  5  6 -1 -1</clus>
<clus scale="   94.296">  7  8 -1 -1</clus>
<clus scale="  174.805">  2  5  1 -1</clus>
<clus scale="  126.843">  7 10 -1 -1</clus>
<clus scale="   50.092">  1  5  2 -1</clus>
</clustering>
</event>
<event>
10    4  0.2866397E-005  0.2361711E+03  0.7546771E-02  0.1164859E+00
         21   -1    0    0  501  502  0.00000000000E+00  0.00000000000E+00  0.16971697893E+03  0.16971697893E+03  0.00000000000E+00 0. -1.
          2   -1    0    0  503    0 -0.00000000000E+00 -0.00000000000E+00 -0.56561859624E+03  0.56561859624E+03  0.00000000000E+00 0. -1.
         24    2    1    2    0    0  0.23588741732E+02  0.19519019064E+02 -0.40130125503E+03  0.41039130413E+03  0.80255245176E+02 0.  0.
         23    2    1    2    0    0  0.24837174605E+02  0.11399646963E+03 -0.25289603242E+02  0.14969674711E+03  0.90318723051E+02 0.  0.
        -11    1    3    3    0    0 -0.15954273831E+02  0.21433211507E+02 -0.48476809743E+02  0.55352709887E+02  0.00000000000E+00 0.  1.
         12    1    3    3    0    0  0.39543015564E+02 -0.19141924432E+01 -0.35282444529E+03  0.35503859424E+03  0.00000000000E+00 0. -1.
        -13    1    4    4    0    0  0.58087915686E+02  0.55967690019E+02 -0.13486161776E+02  0.81783035125E+02  0.00000000000E+00 0.  1.
         13    1    4    4    0    0 -0.33250741081E+02  0.58028779606E+02 -0.11803441466E+02  0.67913711984E+02  0.00000000000E+00 0. -1.
         21    1    1    2  503  502 -0.67832865233E+01 -0.54401814110E+02  0.59892004855E+02  0.81194966593E+02  0.00000000000E+00 0. -1.
          1    1    1    2  501    0 -0.41642629814E+02 -0.79113674579E+02 -0.29202763892E+02  0.94052557340E+02  0.00000000000E+00 0. -1.
<scales pt_clust_5="13000.00000" pt_clust_6="13000.00000" pt_clust_7="13000.00000" pt_clust_8="13000.00000" pt_clust_9="54.82308" pt_clust_10="13000.00000"></scales>
<clustering>
<clus scale="   54.823">  1  9  2 -1</clus>
<clus scale="   80.255">  5  6 -1 -1</clus>
<clus scale="   85.280">  2  5  1 -1</clus>
<clus scale="   90.319">  7  8 -1 -1</clus>
<clus scale="   92.688">  7 10 -1 -1</clus>
<clus scale="   54.823">  1  5  2 -1</clus>
</clustering>
</event>
<event>
10    4  0.2866397E-005  0.2714213E+03  0.7546771E-02  0.1144382E+00
         21   -1    0    0  503  502  0.00000000000E+00  0.00000000000E+00  0.91258988366E+02  0.91258988366E+02  0.00000000000E+00 0.  1.
          2   -1    0    0  502    0 -0.00000000000E+00 -0.00000000000E+00 -0.16239041577E+04  0.16239041577E+04  0.00000000000E+00 0. -1.
         24    2    1    2    0    0 -0.34102188720E+02  0.99332064909E+01 -0.44832329359E+03  0.45638390196E+03  0.77658628149E+02 0.  0.
         23    2    1    2    0    0 -0.47907479743E+02  0.52386635700E+02 -0.37300648304E+03  0.39040442600E+03  0.90787076378E+02 0.  0.
        -11    1    3    3    0    0 -0.15790624764E+02 -0.20357206731E+02 -0.47811588319E+02  0.54311211309E+02  0.00000000000E+00 0.  1.
         12    1    3    3    0    0 -0.18311563956E+02  0.30290413222E+02 -0.40051170527E+03  0.40207269065E+03  0.00000000000E+00 0. -1.
        -13    1    4    4    0    0  0.86958542188E+01  0.43504112269E+02 -0.76677098050E+02  0.88586697817E+02  0.00000000000E+00 0.  1.
         13    1    4    4    0    0 -0.56603333962E+02  0.88825234309E+01 -0.29632938499E+03  0.30181772818E+03  0.00000000000E+00 0. -1.
         21    1    1    2  503  501 -0.57325696467E+02  0.27101703291E+02  0.55269253681E+02  0.84115564547E+02  0.00000000000E+00 0.  1.
          1    1    1    2  501    0  0.13933536493E+03 -0.89421545482E+02 -0.76658464637E+03  0.78425925354E+03  0.00000000000E+00 0. -1.
<scales pt_clust_5="13000.00000" pt_clust_6="13000.00000" pt_clust_7="13000.00000" pt_clust_8="13000.00000" pt_clust_9="63.40929" pt_clust_10="13000.00000"></scales>
<clustering>
<clus scale="   63.409">  1  9  2 -1</clus>
<clus scale="   77.659">  5  6 -1 -1</clus>
<clus scale="   90.787">  7  8 -1 -1</clus>
<clus scale="   90.908">  2  5  1 -1</clus>
<clus scale="  116.366">  7 10 -1 -1</clus>
<clus scale="   63.409">  1  5  2 -1</clus>
</clustering>
</event>
<event>
10    4  0.2866397E-005  0.1542145E+03  0.7546771E-02  0.1215565E+00
          2   -1    0    0  503    0 -0.00000000000E+00  0.00000000000E+00  0.18266802959E+03  0.18266802959E+03  0.00000000000E+00 0. -1.
         21   -1    0    0  501  502  0.00000000000E+00 -0.00000000000E+00 -0.22803011859E+03  0.22803011859E+03  0.00000000000E+00 0. -1.
         24    2    1    2    0    0 -0.64357356415E+02 -0.40209243625E+02  0.48832899638E+02  0.12228073745E+03  0.82518325642E+02 0.  0.
         23    2    1    2    0    0 -0.17311161347E+02 -0.14771956702E+02  0.25589672416E+02  0.10123468678E+03  0.95266696494E+02 0.  0.
        -11    1    3    3    0    0 -0.75607122766E+02 -0.20634935212E+02  0.12295792261E+02  0.79331104061E+02  0.00000000000E+00 0.  1.
         12    1    3    3    0    0  0.11249766351E+02 -0.19574308413E+02  0.36537107377E+02  0.42949633390E+02  0.00000000000E+00 0. -1.
        -11    1    4    4    0    0  0.23575926238E+02 -0.41020705212E+02  0.23396577848E+01  0.47370840742E+02  0.00000000000E+00 0.  1.
         11    1    4    4    0    0 -0.40887087584E+02  0.26248748511E+02  0.23250014632E+02  0.53863846037E+02  0.00000000000E+00 0. -1.
         21    1    1    2  503  502  0.36533983433E+02  0.38147507250E+02 -0.12785844699E+03  0.13833924505E+03  0.00000000000E+00 0. -1.
          1    1    1    2  501    0  0.45134534329E+02  0.16833693077E+02  0.80737859390E+01  0.48843478900E+02  0.00000000000E+00 0. -1.
<scales pt_clust_5="13000.00000" pt_clust_6="13000.00000" pt_clust_7="13000.00000" pt_clust_8="13000.00000" pt_clust_9="52.82011" pt_clust_10="13000.00000"></scales>
<clustering>
<clus scale="   52.820">  2  9  1 -1</clus>
<clus scale="   82.518">  5  6 -1 -1</clus>
<clus scale="   95.267">  7  8 -1 -1</clus>
<clus scale="   58.593">  7 10 -1 -1</clus>
<clus scale="   99.898">  1  5  2 -1</clus>
<clus scale="   52.820">  2  5  1 -1</clus>
</clustering>
</event>
<event>
10    4  0.2866397E-005  0.1657873E+03  0.7546771E-02  0.1205786E+00
          4   -1    0    0  502    0 -0.00000000000E+00  0.00000000000E+00  0.82528556843E+03  0.82528556843E+03  0.00000000000E+00 0. -1.
         21   -1    0    0  503  502  0.00000000000E+00 -0.00000000000E+00 -0.38880825668E+02  0.38880825668E+02  0.00000000000E+00 0. -1.
         24    2    1    2    0    0  0.10410636225E+02  0.42729662795E+02  0.42567304653E+03  0.43615547441E+03  0.84260606951E+02 0.  0.
         23    2    1    2    0    0  0.26466852710E+02 -0.33758519025E+02  0.16200304881E+03  0.19318514544E+03  0.96100888100E+02 0.  0.
        -13    1    3    3    0    0  0.28998718981E+01 -0.25593454001E+02  0.96158324934E+02  0.99548267684E+02  0.00000000000E+00 0.  1.
         14    1    3    3    0    0  0.75107643264E+01  0.68323116795E+02  0.32951472160E+03  0.33660720673E+03  0.00000000000E+00 0. -1.
        -13    1    4    4    0    0 -0.10081847320E+01  0.21859145535E+02  0.11024195756E+03  0.11239273947E+03  0.00000000000E+00 0.  1.
         13    1    4    4    0    0  0.27475037442E+02 -0.55617664560E+02  0.51761091255E+02  0.80792405965E+02  0.00000000000E+00 0. -1.
         21    1    1    2  503  501  0.17046049644E+02  0.42728238482E+02  0.47346543370E+02  0.66014887270E+02  0.00000000000E+00 0. -1.
          3    1    1    2  501    0 -0.53923538579E+02 -0.51699382251E+02  0.15138210405E+03  0.16881088698E+03  0.00000000000E+00 0. -1.
<scales pt_clust_5="13000.00000" pt_clust_6="13000.00000" pt_clust_7="13000.00000" pt_clust_8="13000.00000" pt_clust_9="46.00294" pt_clust_10="13000.00000"></scales>
<clustering>
<clus scale="   46.003">  2  9  1 -1</clus>
<clus scale="   84.261">  5  6 -1 -1</clus>
<clus scale="   96.101">  7  8 -1 -1</clus>
<clus scale="   62.605">  7 10 -1 -1</clus>
<clus scale="   99.052">  1  5  2 -1</clus>
<clus scale="   46.003">  2  5  1 -1</clus>
</clustering>
</event>
<event>
10    4  0.2866397E-005  0.4666292E+03  0.7546771E-02  0.1063491E+00
          2   -1    0    0  503    0 -0.00000000000E+00  0.00000000000E+00  0.71681371820E+03  0.71681371820E+03  0.00000000000E+00 0. -1.
         21   -1    0    0  501  502  0.00000000000E+00 -0.00000000000E+00 -0.19576520728E+03  0.19576520728E+03  0.00000000000E+00 0.  1.
         24    2    1    2    0    0  0.52695505367E+02 -0.10644293771E+03  0.34093568952E+03  0.37021220892E+03  0.81933021252E+02 0.  0.
         23    2    1    2    0    0 -0.21346053528E+03  0.85691938256E+02  0.18477211317E+02  0.24865890742E+03  0.92635503436E+02 0.  0.
        -11    1    3    3    0    0  0.55611424619E+02 -0.27962592108E+02  0.11136678495E+03  0.12758173026E+03  0.00000000000E+00 0.  1.
         12    1    3    3    0    0 -0.29159192516E+01 -0.78480345599E+02  0.22956890457E+03  0.24263047866E+03  0.00000000000E+00 0. -1.
        -11    1    4    4    0    0 -0.19712392162E+03  0.51082365735E+02  0.35613970049E+02  0.20672591378E+03  0.00000000000E+00 0.  1.
         11    1    4    4    0    0 -0.16336613658E+02  0.34609572521E+02 -0.17136758732E+02  0.41932993642E+02  0.00000000000E+00 0. -1.
         21    1    1    2  503  502 -0.19415747522E+02 -0.70177569541E+01 -0.25258548941E+02  0.32622300028E+02  0.00000000000E+00 0. -1.
          1    1    1    2  501    0  0.18018077744E+03  0.27768756405E+02  0.18689415902E+03  0.26108550911E+03  0.00000000000E+00 0. -1.
<scales pt_clust_5="13000.00000" pt_clust_6="13000.00000" pt_clust_7="13000.00000" pt_clust_8="13000.00000" pt_clust_9="20.64510" pt_clust_10="13000.00000"></scales>
<clustering>
<clus scale="   20.645">  2  9  1 -1</clus>
<clus scale="   81.933">  5  6 -1 -1</clus>
<clus scale="   92.636">  7  8 -1 -1</clus>
<clus scale="  144.135">  1  5  2 -1</clus>
<clus scale="  209.464">  7 10 -1 -1</clus>
<clus scale="   20.645">  2  5  1 -1</clus>
</clustering>
</event>
<event>
10    4  0.2866397E-005  0.2066079E+03  0.7546771E-02  0.1182696E+00
          2   -1    0    0  503    0 -0.00000000000E+00  0.00000000000E+00  0.68839376321E+03  0.68839376321E+03  0.00000000000E+00 0. -1.
         21   -1    0    0  501  502  0.00000000000E+00 -0.00000000000E+00 -0.30086769995E+03  0.30086769995E+03  0.00000000000E+00 0. -1.
         24    2    1    2    0    0  0.22755912317E+02  0.21409735525E+02  0.52954578291E+03  0.53635840507E+03  0.79280477864E+02 0.  0.
         23    2    1    2    0    0 -0.38283590712E+02  0.27057364085E+02  0.10915188577E+03  0.14914115306E+03  0.90173250464E+02 0.  0.
        -13    1    3    3    0    0 -0.11142558819E+02 -0.19162937378E+02  0.62206760779E+02  0.66038290958E+02  0.00000000000E+00 0.  1.
         14    1    3    3    0    0  0.33898471136E+02  0.40572672903E+02  0.46733902213E+03  0.47032011411E+03  0.00000000000E+00 0. -1.
        -11    1    4    4    0    0 -0.26512593614E+02 -0.31884198060E+02  0.42077496096E+02  0.59076521426E+02  0.00000000000E+00 0.  1.
         11    1    4    4    0    0 -0.11770997098E+02  0.58941562146E+02  0.67074389679E+02  0.90064631635E+02  0.00000000000E+00 0. -1.
         21    1    1    2  503  502 -0.29245644177E+02  0.57931021141E+01 -0.22763797464E+03  0.22958204467E+03  0.00000000000E+00 0. -1.
          1    1    1    2  501    0  0.44773322572E+02 -0.54260201725E+02 -0.23533630783E+02  0.74179860361E+02  0.00000000000E+00 0. -1.
<scales pt_clust_5="13000.00000" pt_clust_6="13000.00000" pt_clust_7="13000.00000" pt_clust_8="13000.00000" pt_clust_9="29.81388" pt_clust_10="13000.00000"></scales>
<clustering>
<clus scale="   29.814">  2  9  1 -1</clus>
<clus scale="   79.280">  5  6 -1 -1</clus>
<clus scale="   84.927">  1  5  2 -1</clus>
<clus scale="   90.173">  7  8 -1 -1</clus>
<clus scale="   55.139">  7 10 -1 -1</clus>
<clus scale="   29.814">  2  5  1 -1</clus>
</clustering>
</event>
<event>
10    4  0.2866397E-005  0.4722488E+03  0.7546771E-02  0.1049299E+00
         21   -1    0    0  503  502  0.00000000000E+00  0.00000000000E+00  0.53424419767E+03  0.53424419767E+03  0.00000000000E+00 0. -1.
          2   -1    0    0  502    0 -0.00000000000E+00 -0.00000000000E+00 -0.16178862852E+04  0.16178862852E+04  0.00000000000E+00 0. -1.
         24    2    1    2    0    0 -0.86634664132E+02  0.17094100668E+03 -0.71754741851E+01  0.20755365164E+03  0.79376558782E+02 0.  0.
         23    2    1    2    0    0 -0.17223135933E+02 -0.19458791903E+02 -0.95520414686E+02  0.13438565666E+03  0.90884949800E+02 0.  0.
        -11    1    3    3    0    0  0.79831034484E+01  0.63622563582E+02 -0.67955759704E+01  0.64480542726E+02  0.00000000000E+00 0.  1.
         12    1    3    3    0    0 -0.94617767581E+02  0.10731844310E+03 -0.37989821470E+00  0.14307310891E+03  0.00000000000E+00 0. -1.
        -11    1    4    4    0    0 -0.39114449970E+02  0.21728315009E+02 -0.64001659795E+02  0.78091435677E+02  0.00000000000E+00 0.  1.
         11    1    4    4    0    0  0.21891314037E+02 -0.41187106912E+02 -0.31518754891E+02  0.56294220982E+02  0.00000000000E+00 0. -1.
         21    1    1    2  503  501 -0.19470103592E+03  0.22992424314E+03  0.30944359240E+03  0.43189001823E+03  0.00000000000E+00 0. -1.
          1    1    1    2  501    0  0.29855883599E+03 -0.38140645791E+03 -0.12903897911E+04  0.13783011564E+04  0.00000000000E+00 0. -1.
<scales pt_clust_5="13000.00000" pt_clust_6="13000.00000" pt_clust_7="13000.00000" pt_clust_8="13000.00000" pt_clust_9="308.84845" pt_clust_10="13000.00000"></scales>
<clustering>
<clus scale="   79.377">  5  6 -1 -1</clus>
<clus scale="   90.885">  7  8 -1 -1</clus>
<clus scale="  207.430">  2  5  1 -1</clus>
<clus scale="  308.848">  1  9  2 -1</clus>
<clus scale="   89.696">  7 10 -1 -1</clus>
<clus scale="  308.848">  1  5  2 -1</clus>
</clustering>
</event>
<event>
10    4  0.2866397E-005  0.4583840E+03  0.7546771E-02  0.1061601E+00
         -3   -1    0    0    0  501 -0.00000000000E+00  0.00000000000E+00  0.22917631044E+04  0.22917631044E+04  0.00000000000E+00 0.  1.
         21   -1    0    0  501  502  0.00000000000E+00 -0.00000000000E+00 -0.60749058825E+02  0.60749058825E+02  0.00000000000E+00 0. -1.
         24    2    1    2    0    0 -0.54445566553E+02 -0.12216495524E+03  0.50681970652E+03  0.53005345338E+03  0.78751841327E+02 0.  0.
         23    2    1    2    0    0  0.17291179997E+03  0.24291678110E+03  0.10726650136E+04  0.11169684262E+04  0.90006558931E+02 0.  0.
        -11    1    3    3    0    0 -0.65663139532E+02 -0.51199450007E+02  0.28150423201E+03  0.29356032465E+03  0.00000000000E+00 0.  1.
         12    1    3    3    0    0  0.11217572979E+02 -0.70965505237E+02  0.22531547452E+03  0.23649312873E+03  0.00000000000E+00 0. -1.
        -11    1    4    4    0    0  0.33028910634E+02  0.11407186337E+02  0.67026972085E+02  0.75588675241E+02  0.00000000000E+00 0.  1.
         11    1    4    4    0    0  0.13988288933E+03  0.23150959477E+03  0.10056380415E+04  0.10413797510E+04  0.00000000000E+00 0. -1.
         21    1    1    2  503  502 -0.10898280475E+02 -0.18248487181E+02 -0.12756701065E+02  0.24789377236E+02  0.00000000000E+00 0. -1.
         -4    1    1    2    0  503 -0.10756795294E+03 -0.10250333868E+03  0.66428602647E+03  0.68070090635E+03  0.00000000000E+00 0.  1.
<scales pt_clust_5="13000.00000" pt_clust_6="13000.00000" pt_clust_7="13000.00000" pt_clust_8="13000.00000" pt_clust_9="21.25511" pt_clust_10="13000.00000"></scales>
<clustering>
<clus scale="   21.255">  2  9  1 -1</clus>
<clus scale="   78.752">  5  6 -1 -1</clus>
<clus scale="   90.007">  7  8 -1 -1</clus>
<clus scale="  152.594">  7 10 -1 -1</clus>
<clus scale="  160.273">  1  5  2 -1</clus>
<clus scale="   21.255">  2  5  1 -1</clus>
</clustering>
</event>
<event>
10    4  0.2866397E-005  0.2288501E+03  0.7546771E-02  0.1155249E+00
         21   -1    0    0  501  502  0.00000000000E+00  0.00000000000E+00  0.67605485166E+02  0.67605485166E+02  0.00000000000E+00 0.  1.
          2   -1    0    0  503    0 -0.00000000000E+00 -0.00000000000E+00 -0.11238558470E+04  0.11238558470E+04  0.00000000000E+00 0. -1.
         24    2    1    2    0    0 -0.74357743654E+02 -0.42129759286E+02 -0.22187393142E+03  0.25093748493E+03  0.80234588781E+02 0.  0.
         23    2    1    2    0    0 -0.49182934683E+02 -0.13428572235E+03 -0.43112230490E+03  0.46323546627E+03  0.90934257227E+02 0.  0.
        -11    1    3    3    0    0 -0.79977913321E+02 -0.80365471351E+01 -0.13074157643E+03  0.15347446861E+03  0.00000000000E+00 0.  1.
         12    1    3    3    0    0  0.56201696667E+01 -0.34093212150E+02 -0.91132354998E+02  0.97463016316E+02  0.00000000000E+00 0. -1.
        -11    1    4    4    0    0 -0.38289194598E+02 -0.58526889370E+02 -0.32471004246E+03  0.33215669627E+03  0.00000000000E+00 0. -1.
         11    1    4    4    0    0 -0.10893740086E+02 -0.75758832979E+02 -0.10641226244E+03  0.13107877000E+03  0.00000000000E+00 0.  1.
         21    1    1    2  503  502  0.10577758786E+03  0.19946053918E+03 -0.34758721481E+03  0.41447590603E+03  0.00000000000E+00 0. -1.
          1    1    1    2  501    0  0.17763090477E+02 -0.23045057541E+02 -0.55666910665E+02  0.62812474902E+02  0.00000000000E+00 0. -1.
<scales pt_clust_5="13000.00000" pt_clust_6="13000.00000" pt_clust_7="13000.00000" pt_clust_8="13000.00000" pt_clust_9="195.83114" pt_clust_10="13000.00000"></scales>
<clustering>
<clus scale="   80.235">  5  6 -1 -1</clus>
<clus scale="   90.934">  7  8 -1 -1</clus>
<clus scale="   29.096">  7 10 -1 -1</clus>
<clus scale="  117.225">  2  5  1 -1</clus>
<clus scale="  195.831">  1  9  2 -1</clus>
<clus scale="  195.831">  1  5  2 -1</clus>
</clustering>
</event>
<event>
10    4  0.2866397E-005  0.5175466E+03  0.7546771E-02  0.1070458E+00
          4   -1    0    0  503    0 -0.00000000000E+00  0.00000000000E+00  0.25724985301E+03  0.25724985301E+03  0.00000000000E+00 0. -1.
         21   -1    0    0  501  502  0.00000000000E+00 -0.00000000000E+00 -0.42961224890E+03  0.42961224890E+03  0.00000000000E+00 0.  1.
         24    2    1    2    0    0 -0.14010251101E+02  0.52714082044E+01 -0.15383553963E+02  0.88080862801E+02  0.85425463293E+02 0.  0.
         23    2    1    2    0    0 -0.59520214786E+02 -0.18415138437E+03 -0.19174422681E+03  0.28761724899E+03  0.92214126177E+02 0.  0.
        -13    1    3    3    0    0 -0.38570338987E+02  0.29541224172E+02 -0.21302631808E+02  0.53048629549E+02  0.00000000000E+00 0.  1.
         14    1    3    3    0    0  0.24560087886E+02 -0.24269815967E+02  0.59190778443E+01  0.35032233252E+02  0.00000000000E+00 0. -1.
        -13    1    4    4    0    0  0.17050801363E+02 -0.68668585345E+02 -0.36791975485E+02  0.79748065183E+02  0.00000000000E+00 0. -1.
         13    1    4    4    0    0 -0.76571016150E+02 -0.11548279903E+03 -0.15495225132E+03  0.20786918380E+03  0.00000000000E+00 0.  1.
         21    1    1    2  503  502 -0.20588268968E+02 -0.14418633493E+02 -0.68273423835E+02  0.72753241942E+02  0.00000000000E+00 0.  1.
          3    1    1    2  501    0  0.94118734855E+02  0.19329860966E+03  0.10303880872E+03  0.23841074818E+03  0.00000000000E+00 0. -1.
<scales pt_clust_5="13000.00000" pt_clust_6="13000.00000" pt_clust_7="13000.00000" pt_clust_8="13000.00000" pt_clust_9="25.13511" pt_clust_10="13000.00000"></scales>
<clustering>
<clus scale="   25.135">  2  9  1 -1</clus>
<clus scale="   85.425">  5  6 -1 -1</clus>
<clus scale="   87.154">  1  5  2 -1</clus>
<clus scale="   92.214">  7  8 -1 -1</clus>
<clus scale="  207.966">  7 10 -1 -1</clus>
<clus scale="   25.135">  2  5  1 -1</clus>
</clustering>
</event>
<event>
10    4  0.2866397E-005  0.2476020E+03  0.7546771E-02  0.1133037E+00
          2   -1    0    0  503    0 -0.00000000000E+00  0.00000000000E+00  0.19652563067E+04  0.19652563067E+04  0.00000000000E+00 0. -1.
         21   -1    0    0  501  502  0.00000000000E+00 -0.00000000000E+00 -0.47702844331E+02  0.47702844331E+02  0.00000000000E+00 0. -1.
         24    2    1    2    0    0  0.29371102287E+02 -0.12843976463E+03  0.11180114754E+04  0.11286172965E+04  0.80423305273E+02 0.  0.
         23    2    1    2    0    0 -0.61536406542E+02  0.17003463241E+03  0.33137795356E+03  0.38861577231E+03  0.92262477895E+02 0.  0.
        -13    1    3    3    0    0  0.34356706697E+02 -0.63958276320E+02  0.32682555410E+03  0.33479245394E+03  0.00000000000E+00 0.  1.
         14    1    3    3    0    0 -0.49856044109E+01 -0.64481488306E+02  0.79118592130E+03  0.79382484255E+03  0.00000000000E+00 0. -1.
        -13    1    4    4    0    0 -0.16669750202E+02  0.10064434608E+03  0.26045377227E+03  0.27972009663E+03  0.00000000000E+00 0.  1.
         13    1    4    4    0    0 -0.44866656340E+02  0.69390286335E+02  0.70924181294E+02  0.10889567568E+03  0.00000000000E+00 0. -1.
         21    1    1    2  503  502  0.90814840561E+02 -0.50917811182E+01  0.31148258912E+03  0.32449139407E+03  0.00000000000E+00 0. -1.
          1    1    1    2  501    0 -0.58649536306E+02 -0.36503086669E+02  0.15668144426E+03  0.17123468814E+03  0.00000000000E+00 0. -1.
<scales pt_clust_5="13000.00000" pt_clust_6="13000.00000" pt_clust_7="13000.00000" pt_clust_8="13000.00000" pt_clust_9="90.95752" pt_clust_10="13000.00000"></scales>
<clustering>
<clus scale="   80.423">  5  6 -1 -1</clus>
<clus scale="   90.958">  2  9  1 -1</clus>
<clus scale="   92.262">  7  8 -1 -1</clus>
<clus scale="   56.697">  7 10 -1 -1</clus>
<clus scale="  157.542">  1  5  2 -1</clus>
<clus scale="   90.958">  2  5  1 -1</clus>
</clustering>
</event>
<event>
10    4  0.2866397E-005  0.1822240E+03  0.7546771E-02  0.1179189E+00
          2   -1    0    0  503    0 -0.00000000000E+00  0.00000000000E+00  0.97213946411E+03  0.97213946411E+03  0.00000000000E+00 0. -1.
         21   -1    0    0  501  502  0.00000000000E+00 -0.00000000000E+00 -0.41118281003E+02  0.41118281003E+02  0.00000000000E+00 0. -1.
         24    2    1    2    0    0 -0.10607764058E+03 -0.97073130872E+01  0.54926903163E+03  0.56561287771E+03  0.82914175924E+02 0.  0.
         23    2    1    2    0    0  0.31785613697E+02 -0.40270500392E+02  0.25643505498E+03  0.27696054941E+03  0.91193037373E+02 0.  0.
        -11    1    3    3    0    0  0.16819352360E+01  0.20710022893E+02  0.54363181915E+02  0.58198707050E+02  0.00000000000E+00 0.  1.
         12    1    3    3    0    0 -0.10775957582E+03 -0.30417335980E+02  0.49490584971E+03  0.50741417066E+03  0.00000000000E+00 0. -1.
        -13    1    4    4    0    0  0.32815678504E+02 -0.66755002481E+02  0.15214530397E+03  0.16935552141E+03  0.00000000000E+00 0. -1.
         13    1    4    4    0    0 -0.10300648068E+01  0.26484502090E+02  0.10428975101E+03  0.10760502800E+03  0.00000000000E+00 0.  1.
         21    1    1    2  503  502  0.32693390145E+01  0.28213663913E+02  0.43547407809E+01  0.28734355331E+02  0.00000000000E+00 0.  1.
          1    1    1    2  501    0  0.71022687872E+02  0.21764149566E+02  0.12096235571E+03  0.14194996266E+03  0.00000000000E+00 0. -1.
<scales pt_clust_5="13000.00000" pt_clust_6="13000.00000" pt_clust_7="13000.00000" pt_clust_8="13000.00000" pt_clust_9="28.40245" pt_clust_10="13000.00000"></scales>
<clustering>
<clus scale="   28.402">  2  9  1 -1</clus>
<clus scale="   82.914">  5  6 -1 -1</clus>
<clus scale="   91.193">  7  8 -1 -1</clus>
<clus scale="   78.981">  7 10 -1 -1</clus>
<clus scale="  133.922">  1  5  2 -1</clus>
<clus scale="   28.402">  2  5  1 -1</clus>
</clustering>
</event>
<event>
10    4  0.2866397E-005  0.2866112E+03  0.7546771E-02  0.1105311E+00
         21   -1    0    0  503  502  0.00000000000E+00  0.00000000000E+00  0.60313048201E+03  0.60313048201E+03  0.00000000000E+00 0. -1.
          2   -1    0    0  502    0 -0.00000000000E+00 -0.00000000000E+00 -0.13970225496E+03  0.13970225496E+03  0.00000000000E+00 0. -1.
         24    2    1    2    0    0  0.12589437746E+03  0.13431901843E+03  0.53880258774E+02  0.20764767955E+03  0.79520334181E+02 0.  0.
         23    2    1    2    0    0 -0.15378739650E+03 -0.15370515060E+03  0.29676395735E+03  0.37904849261E+03  0.91285687415E+02 0.  0.
        -13    1    3    3    0    0  0.21546830675E+02  0.27035379249E+02 -0.20844861715E+02  0.40369368378E+02  0.00000000000E+00 0.  1.
         14    1    3    3    0    0  0.10434754679E+03  0.10728363918E+03  0.74725120490E+02  0.16727831117E+03  0.00000000000E+00 0. -1.
        -11    1    4    4    0    0  0.92695191129E+01 -0.29198617414E+02  0.36773217131E+02  0.47861808801E+02  0.00000000000E+00 0.  1.
         11    1    4    4    0    0 -0.16305691561E+03 -0.12450653319E+03  0.25999074022E+03  0.33118668381E+03  0.00000000000E+00 0. -1.
         21    1    1    2  503  501  0.20061403488E+02 -0.33791690451E+01  0.12670424884E+03  0.12832710302E+03  0.00000000000E+00 0.  1.
          1    1    1    2  501    0  0.78316155494E+01  0.22765301219E+02 -0.13920237917E+02  0.27809461795E+02  0.00000000000E+00 0. -1.
<scales pt_clust_5="13000.00000" pt_clust_6="13000.00000" pt_clust_7="13000.00000" pt_clust_8="13000.00000" pt_clust_9="20.34401" pt_clust_10="13000.00000"></scales>
<clustering>
<clus scale="   20.344">  1  9  2 -1</clus>
<clus scale="   79.520">  5  6 -1 -1</clus>
<clus scale="   91.286">  7  8 -1 -1</clus>
<clus scale="   24.125">  7 10 -1 -1</clus>
<clus scale="  203.433">  2  5  1 -1</clus>
<clus scale="   20.344">  1  5  2 -1</clus>
</clustering>
</event>
<event>
10    4  0.2866397E-005  0.2372840E+03  0.7546771E-02  0.1155917E+00
         21   -1    0    0  503  502  0.00000000000E+00  0.00000000000E+00  0.25067424468E+03  0.25067424468E+03  0.00000000000E+00 0. -1.
          2   -1    0    0  502    0 -0.00000000000E+00 -0.00000000000E+00 -0.69260930886E+03  0.69260930886E+03  0.00000000000E+00 0. -1.
         24    2    1    2    0    0  0.39271791318E+02  0.67610552327E+02 -0.99231953825E+02  0.14960192921E+03  0.80126750749E+02 0.  0.
         23    2    1    2    0    0 -0.40920079779E+02 -0.12244500335E+03 -0.35494395902E+03  0.38838807862E+03  0.90514384448E+02 0.  0.
        -11    1    3    3    0    0  0.39405192222E+01  0.33511401808E+02 -0.94415530101E+02  0.10026382232E+03  0.00000000000E+00 0.  1.
         12    1    3    3    0    0  0.35331272096E+02  0.34099150519E+02 -0.48164237238E+01  0.49338106890E+02  0.00000000000E+00 0. -1.
        -11    1    4    4    0    0 -0.68884779755E+02 -0.79008648744E+02 -0.21444084828E+03  0.23868882854E+03  0.00000000000E+00 0. -1.
         11    1    4    4    0    0  0.27964699975E+02 -0.43436354608E+02 -0.14050311074E+03  0.14969925008E+03  0.00000000000E+00 0.  1.
         21    1    1    2  503  501 -0.15738039670E+02 -0.19552786671E+02  0.20053155201E+03  0.20209626595E+03  0.00000000000E+00 0. -1.
          1    1    1    2  501    0  0.17386328131E+02  0.74387237695E+02 -0.18829070334E+03  0.20319727976E+03  0.00000000000E+00 0. -1.
<scales pt_clust_5="13000.00000" pt_clust_6="13000.00000" pt_clust_7="13000.00000" pt_clust_8="13000.00000" pt_clust_9="25.09975" pt_clust_10="13000.00000"></scales>
<clustering>
<clus scale="   25.100">  1  9  2 -1</clus>
<clus scale="   80.127">  5  6 -1 -1</clus>
<clus scale="   90.514">  7  8 -1 -1</clus>
<clus scale="   72.995">  7 10 -1 -1</clus>
<clus scale="  103.528">  2  5  1 -1</clus>
<clus scale="   25.100">  1  5  2 -1</clus>
</clustering>
</event>
<event>
10    4  0.2866397E-005  0.1225591E+03  0.7546771E-02  0.1254510E+00
         21   -1    0    0  503  502  0.00000000000E+00  0.00000000000E+00  0.25581602224E+02  0.25581602224E+02  0.00000000000E+00 0.  1.
          2   -1    0    0  502    0 -0.00000000000E+00 -0.00000000000E+00 -0.83532848694E+03  0.83532848694E+03  0.00000000000E+00 0. -1.
         24    2    1    2    0    0 -0.18733148303E+02  0.48338519620E+02 -0.43054030998E+03  0.44104279289E+03  0.80412954887E+02 0.  0.
         23    2    1    2    0    0  0.88152903198E+01  0.79777095885E+01 -0.24550434027E+03  0.26269453006E+03  0.92707506918E+02 0.  0.
        -13    1    3    3    0    0  0.22253011858E+02 -0.91051620793E+01 -0.83085811244E+02  0.86494812233E+02  0.00000000000E+00 0.  1.
         14    1    3    3    0    0 -0.40986160162E+02  0.57443681699E+02 -0.34745449874E+03  0.35454798066E+03  0.00000000000E+00 0. -1.
        -13    1    4    4    0    0 -0.33286822089E+02 -0.12905708517E+02 -0.48867263096E+02  0.60519246853E+02  0.00000000000E+00 0.  1.
         13    1    4    4    0    0  0.42102112409E+02  0.20883418106E+02 -0.19663707717E+03  0.20217528321E+03  0.00000000000E+00 0. -1.
         21    1    1    2  503  501 -0.18300659860E+01 -0.39023510024E+02 -0.24780494373E+02  0.46262904983E+02  0.00000000000E+00 0.  1.
          1    1    1    2  501    0  0.11747923970E+02 -0.17292719185E+02 -0.10892174009E+03  0.11090986123E+03  0.00000000000E+00 0. -1.
<scales pt_clust_5="13000.00000" pt_clust_6="13000.00000" pt_clust_7="13000.00000" pt_clust_8="13000.00000" pt_clust_9="39.06640" pt_clust_10="13000.00000"></scales>
<clustering>
<clus scale="   39.066">  1  9  2 -1</clus>
<clus scale="   80.413">  5  6 -1 -1</clus>
<clus scale="   89.634">  2  5  1 -1</clus>
<clus scale="   92.708">  7  8 -1 -1</clus>
<clus scale="   10.592">  7 10 -1 -1</clus>
<clus scale="   39.066">  1  5  2 -1</clus>
</clustering>
</event>
<event>
10    4  0.2866397E-005  0.4123017E+03  0.7546771E-02  0.1081994E+00
         21   -1    0    0  503  502  0.00000000000E+00  0.00000000000E+00  0.26376699409E+03  0.26376699409E+03  0.00000000000E+00 0. -1.
          2   -1    0    0  502    0 -0.00000000000E+00 -0.00000000000E+00 -0.70427500099E+03  0.70427500099E+03  0.00000000000E+00 0. -1.
         24    2    1    2    0    0 -0.10081036587E+03 -0.28859077630E+02 -0.14780125953E+03  0.19766151818E+03  0.78925833679E+02 0.  0.
         23    2    1    2    0    0 -0.37294026413E+02 -0.13835932931E+03 -0.31331560540E+03  0.35716111466E+03  0.94144807741E+02 0.  0.
        -11    1    3    3    0    0 -0.22502713924E+02  0.14957844309E+02 -0.82141323528E+02  0.86471418811E+02  0.00000000000E+00 0.  1.
         12    1    3    3    0    0 -0.78307651950E+02 -0.43816921939E+02 -0.65659936000E+02  0.11119009937E+03  0.00000000000E+00 0. -1.
        -11    1    4    4    0    0 -0.36572586807E+02 -0.77974179778E+02 -0.85046559324E+02  0.12103901879E+03  0.00000000000E+00 0.  1.
         11    1    4    4    0    0 -0.72143960552E+00 -0.60385149528E+02 -0.22826904608E+03  0.23612209587E+03  0.00000000000E+00 0. -1.
         21    1    1    2  503  501  0.33430954869E+02 -0.14978162477E+02  0.15798260338E+03  0.16217421825E+03  0.00000000000E+00 0. -1.
          1    1    1    2  501    0  0.10467343742E+03  0.18219656941E+03 -0.13737374535E+03  0.25104514398E+03  0.00000000000E+00 0. -1.
<scales pt_clust_5="13000.00000" pt_clust_6="13000.00000" pt_clust_7="13000.00000" pt_clust_8="13000.00000" pt_clust_9="36.63296" pt_clust_10="13000.00000"></scales>
<clustering>
<clus scale="   36.633">  1  9  2 -1</clus>
<clus scale="   78.926">  5  6 -1 -1</clus>
<clus scale="   94.145">  7  8 -1 -1</clus>
<clus scale="  126.054">  2  5  1 -1</clus>
<clus scale="  184.548">  7 10 -1 -1</clus>
<clus scale="   36.633">  1  5  2 -1</clus>
</clustering>
</event>
<event>
10    4  0.2866397E-005  0.4014066E+03  0.7546771E-02  0.1096259E+00
          2   -1    0    0  502    0 -0.00000000000E+00  0.00000000000E+00  0.41243547138E+03  0.41243547138E+03  0.00000000000E+00 0. -1.
         21   -1    0    0  503  502  0.00000000000E+00 -0.00000000000E+00 -0.21042809042E+03  0.21042809042E+03  0.00000000000E+00 0. -1.
         24    2    1    2    0    0 -0.36231129846E+01 -0.41738209438E+02  0.37195747849E+02  0.96515261850E+02  0.78590502208E+02 0.  0.
         23    2    1    2    0    0 -0.31307263618E+02 -0.10135988045E+03  0.22621524538E+03  0.26592849432E+03  0.91053043480E+02 0.  0.
        -11    1    3    3    0    0  0.36729884181E+02 -0.26181369208E+02  0.25046119125E+02  0.51593183356E+02  0.00000000000E+00 0.  1.
         12    1    3    3    0    0 -0.40352997165E+02 -0.15556840230E+02  0.12149628723E+02  0.44922078495E+02  0.00000000000E+00 0. -1.
        -11    1    4    4    0    0 -0.23450756600E+01 -0.10857657657E+03  0.16096357213E+03  0.19417426171E+03  0.00000000000E+00 0. -1.
         11    1    4    4    0    0 -0.28962187958E+02  0.72166961229E+01  0.65251673250E+02  0.71754232601E+02  0.00000000000E+00 0.  1.
         21    1    1    2  503  501 -0.41388654107E+01 -0.46326430208E+02 -0.47546080115E+02  0.66512390402E+02  0.00000000000E+00 0. -1.
          1    1    1    2  501    0  0.39069242013E+02  0.18942452009E+03 -0.13857532158E+02  0.19390741523E+03  0.00000000000E+00 0. -1.
<scales pt_clust_5="13000.00000" pt_clust_6="13000.00000" pt_clust_7="13000.00000" pt_clust_8="13000.00000" pt_clust_9="46.51095" pt_clust_10="13000.00000"></scales>
<clustering>
<clus scale="   46.511">  2  9  1 -1</clus>
<clus scale="   78.591">  5  6 -1 -1</clus>
<clus scale="   91.053">  7  8 -1 -1</clus>
<clus scale="   93.627">  1  5  2 -1</clus>
<clus scale="  151.498">  7 10 -1 -1</clus>
<clus scale="   46.511">  2  5  1 -1</clus>
</clustering>
</event>
<event>
10    4  0.2866397E-005  0.2902718E+03  0.7546771E-02  0.1119299E+00
          2   -1    0    0  503    0 -0.00000000000E+00  0.00000000000E+00  0.12851519511E+04  0.12851519511E+04  0.00000000000E+00 0. -1.
         21   -1    0    0  501  502  0.00000000000E+00 -0.00000000000E+00 -0.50138786427E+02  0.50138786427E+02  0.00000000000E+00 0.  1.
         24    2    1    2    0    0  0.92129414806E+02 -0.78653972219E+02  0.37902046956E+03  0.40538524953E+03  0.77501017875E+02 0.  0.
         23    2    1    2    0    0 -0.62511843358E+02  0.15494582356E+03  0.50008367628E+03  0.53498110988E+03  0.90582370537E+02 0.  0.
        -13    1    3    3    0    0  0.67422962048E+02 -0.83894428369E+01  0.20899318670E+03  0.21975984767E+03  0.00000000000E+00 0.  1.
         14    1    3    3    0    0  0.24706452758E+02 -0.70264529382E+02  0.17002728286E+03  0.18562540185E+03  0.00000000000E+00 0. -1.
        -11    1    4    4    0    0  0.92334470663E+01  0.69974048463E+02  0.12269191092E+03  0.14154479505E+03  0.00000000000E+00 0.  1.
         11    1    4    4    0    0 -0.71745290425E+02  0.84971775096E+02  0.37739176537E+03  0.39343631483E+03  0.00000000000E+00 0. -1.
         21    1    1    2  503  502 -0.16846729011E+02  0.13041765906E+02 -0.58388045403E+01  0.22090531337E+02  0.00000000000E+00 0.  1.
          1    1    1    2  501    0 -0.12770842437E+02 -0.89333617246E+02  0.36174782335E+03  0.37283384675E+03  0.00000000000E+00 0. -1.
<scales pt_clust_5="13000.00000" pt_clust_6="13000.00000" pt_clust_7="13000.00000" pt_clust_8="13000.00000" pt_clust_9="21.30493" pt_clust_10="13000.00000"></scales>
<clustering>
<clus scale="   21.305">  2  9  1 -1</clus>
<clus scale="   77.501">  5  6 -1 -1</clus>
<clus scale="   90.582">  7  8 -1 -1</clus>
<clus scale="   88.674">  7 10 -1 -1</clus>
<clus scale="  137.340">  1  5  2 -1</clus>
<clus scale="   21.305">  2  5  1 -1</clus>
</clustering>
</event>
<event>
10    4  0.2866397E-005  0.1243542E+03  0.7546771E-02  0.1251275E+00
         21   -1    0    0  501  502  0.00000000000E+00  0.00000000000E+00  0.25468839137E+03  0.25468839137E+03  0.00000000000E+00 0.  1.
          2   -1    0    0  503    0 -0.00000000000E+00 -0.00000000000E+00 -0.88416125034E+02  0.88416125034E+02  0.00000000000E+00 0. -1.
         24    2    1    2    0    0  0.30208455284E+02 -0.21451276328E+02  0.28437779119E+02  0.92233294302E+02  0.79533422344E+02 0.  0.
         23    2    1    2    0    0 -0.81717126767E+01  0.42672221026E+02  0.25073418792E+02  0.10245311699E+03  0.89332354248E+02 0.  0.
        -13    1    3    3    0    0  0.56626084300E+02 -0.86125359870E+01  0.11813550340E+02  0.58482896396E+02  0.00000000000E+00 0.  1.
         14    1    3    3    0    0 -0.26417629015E+02 -0.12838740341E+02  0.16624228778E+02  0.33750397906E+02  0.00000000000E+00 0. -1.
        -11    1    4    4    0    0  0.21541069925E+02 -0.19212583382E+02  0.16564732328E+02  0.33279594511E+02  0.00000000000E+00 0. -1.
         11    1    4    4    0    0 -0.29712782602E+02  0.61884804408E+02  0.85086864633E+01  0.69173522477E+02  0.00000000000E+00 0.  1.
         21    1    1    2  503  502  0.52038034918E+01 -0.22440383026E+02  0.11836046600E+03  0.12058130151E+03  0.00000000000E+00 0.  1.
          1    1    1    2  501    0 -0.27240546099E+02  0.12194383281E+01 -0.55993975789E+01  0.27836803604E+02  0.00000000000E+00 0. -1.
<scales pt_clust_5="13000.00000" pt_clust_6="13000.00000" pt_clust_7="13000.00000" pt_clust_8="13000.00000" pt_clust_9="23.03585" pt_clust_10="13000.00000"></scales>
<clustering>
<clus scale="   23.036">  1  9  2 -1</clus>
<clus scale="   79.533">  5  6 -1 -1</clus>
<clus scale="   89.332">  7  8 -1 -1</clus>
<clus scale="   26.820">  7 10 -1 -1</clus>
<clus scale="   91.509">  2  5  1 -1</clus>
<clus scale="   23.036">  1  5  2 -1</clus>
</clustering>
</event>
<event>
10    4  0.2866397E-005  0.4775777E+03  0.7546771E-02  0.1076010E+00
         21   -1    0    0  503  502  0.00000000000E+00  0.00000000000E+00  0.14641769064E+03  0.14641769064E+03  0.00000000000E+00 0.  1.
          2   -1    0    0  502    0 -0.00000000000E+00 -0.00000000000E+00 -0.68398048989E+03  0.68398048989E+03  0.00000000000E+00 0. -1.
         24    2    1    2    0    0 -0.31745318310E+02  0.42363916957E+02 -0.37472337230E+02  0.10332837841E+03  0.80437000390E+02 0.  0.
         23    2    1    2    0    0 -0.21138677670E+03  0.46051117569E+02 -0.29942000037E+03  0.38013585960E+03  0.89698719839E+02 0.  0.
        -11    1    3    3    0    0  0.40898172948E+01  0.48969155472E+02  0.25463069435E+01  0.49205573589E+02  0.00000000000E+00 0.  1.
         12    1    3    3    0    0 -0.35835135605E+02 -0.66052385152E+01 -0.40018644174E+02  0.54122804816E+02  0.00000000000E+00 0. -1.
        -11    1    4    4    0    0 -0.13801689815E+03  0.55898550332E+02 -0.14008405438E+03  0.20444279004E+03  0.00000000000E+00 0.  1.
         11    1    4    4    0    0 -0.73369878546E+02 -0.98474327631E+01 -0.15933594599E+03  0.17569306957E+03  0.00000000000E+00 0. -1.
         21    1    1    2  503  501  0.24244123080E+02  0.77458743286E+01  0.10896292959E+02  0.27685831634E+02  0.00000000000E+00 0. -1.
          1    1    1    2  501    0  0.21888797193E+03 -0.96160908855E+02 -0.21156675460E+03  0.31924811088E+03  0.00000000000E+00 0. -1.
<scales pt_clust_5="13000.00000" pt_clust_6="13000.00000" pt_clust_7="13000.00000" pt_clust_8="13000.00000" pt_clust_9="25.45145" pt_clust_10="13000.00000"></scales>
<clustering>
<clus scale="   25.451">  1  9  2 -1</clus>
<clus scale="   80.437">  5  6 -1 -1</clus>
<clus scale="   89.699">  7  8 -1 -1</clus>
<clus scale="   95.328">  2  5  1 -1</clus>
<clus scale="  228.845">  7 10 -1 -1</clus>
<clus scale="   25.451">  1  5  2 -1</clus>
</clustering>
</event>
<event>
10    4  0.2866397E-005  0.2633714E+03  0.7546771E-02  0.1120363E+00
         -3   -1    0    0    0  501 -0.00000000000E+00  0.00000000000E+00  0.99656691001E+03  0.99656691001E+03  0.00000000000E+00 0.  1.
         21   -1    0    0  503  502  0.00000000000E+00 -0.00000000000E+00 -0.56187807435E+03  0.56187807435E+03  0.00000000000E+00 0.  1.
         24    2    1    2    0    0 -0.14875912095E+03 -0.27130940137E+03  0.19106434342E+03  0.37286381313E+03  0.82363659947E+02 0.  0.
         23    2    1    2    0    0  0.81366655015E+00 -0.49132963451E+00  0.15001896931E+03  0.17787397801E+03  0.95564415144E+02 0.  0.
        -11    1    3    3    0    0 -0.14589020850E+03 -0.25072256691E+03  0.14937499143E+03  0.32628001250E+03  0.00000000000E+00 0.  1.
         12    1    3    3    0    0 -0.28689124493E+01 -0.20586834460E+02  0.41689351990E+02  0.46583800630E+02  0.00000000000E+00 0. -1.
        -11    1    4    4    0    0 -0.36873522488E+02  0.27285104022E+02  0.52617243226E+02  0.69804783840E+02  0.00000000000E+00 0.  1.
         11    1    4    4    0    0  0.37687189038E+02 -0.27776433657E+02  0.97401726085E+02  0.10806919417E+03  0.00000000000E+00 0. -1.
         21    1    1    2  503  501  0.17808511309E+03  0.14045368373E+03 -0.41966922154E+03  0.47703647690E+03  0.00000000000E+00 0.  1.
         -4    1    1    2    0  502 -0.30139658685E+02  0.13134704727E+03  0.51327474448E+03  0.53067071633E+03  0.00000000000E+00 0.  1.
<scales pt_clust_5="13000.00000" pt_clust_6="13000.00000" pt_clust_7="13000.00000" pt_clust_8="13000.00000" pt_clust_9="226.80729" pt_clust_10="13000.00000"></scales>
<clustering>
<clus scale="   82.364">  5  6 -1 -1</clus>
<clus scale="   95.564">  7  8 -1 -1</clus>
<clus scale="  134.761">  7 10 -1 -1</clus>
<clus scale="  226.807">  2  9  1 -1</clus>
<clus scale="  179.038">  1  5  2 -1</clus>
<clus scale="  226.807">  2  5  1 -1</clus>
</clustering>
</event>
<event>
10    4  0.2866397E-005  0.3454870E+03  0.7546771E-02  0.1118890E+00
          2   -1    0    0  502    0 -0.00000000000E+00  0.00000000000E+00  0.90881756042E+03  0.90881756042E+03  0.00000000000E+00 0. -1.
         21   -1    0    0  503  502  0.00000000000E+00 -0.00000000000E+00 -0.21758894169E+03  0.21758894169E+03  0.00000000000E+00 0.  1.
         24    2    1    2    0    0  0.23339974101E+02 -0.50572855984E+01  0.12628876673E+03  0.15073582863E+03  0.78753456435E+02 0.  0.
         23    2    1    2    0    0 -0.12925640552E+02  0.54343931343E+01  0.19659843690E+03  0.21726208331E+03  0.91407125777E+02 0.  0.
        -11    1    3    3    0    0  0.88299570822E+01 -0.31703239886E+02  0.11285270030E+03  0.11755337310E+03  0.00000000000E+00 0.  1.
         12    1    3    3    0    0  0.14510017019E+02  0.26645954288E+02  0.13436066432E+02  0.33182455530E+02  0.00000000000E+00 0. -1.
        -11    1    4    4    0    0  0.12279301863E+02  0.26505066071E+02  0.15231621273E+02  0.32943923085E+02  0.00000000000E+00 0.  1.
         11    1    4    4    0    0 -0.25204942415E+02 -0.21070672936E+02  0.18136681563E+03  0.18431816023E+03  0.00000000000E+00 0. -1.
         21    1    1    2  503  501 -0.20512545631E+03 -0.14519732359E+03 -0.66922121169E+02  0.26007169378E+03  0.00000000000E+00 0.  1.
          1    1    1    2  501    0  0.19471112276E+03  0.14482021606E+03  0.43526353626E+03  0.49833689639E+03  0.00000000000E+00 0. -1.
<scales pt_clust_5="13000.00000" pt_clust_6="13000.00000" pt_clust_7="13000.00000" pt_clust_8="13000.00000" pt_clust_9="249.30169" pt_clust_10="13000.00000"></scales>
<clustering>
<clus scale="   78.753">  5  6 -1 -1</clus>
<clus scale="   82.295">  1  5  2 -1</clus>
<clus scale="   91.407">  7  8 -1 -1</clus>
<clus scale="  249.302">  2  9  1 -1</clus>
<clus scale="   78.538">  7 10 -1 -1</clus>
<clus scale="  249.302">  2  5  1 -1</clus>
</clustering>
</event>
<event>
10    4  0.2866397E-005  0.2151658E+03  0.7546771E-02  0.1153287E+00
         21   -1    0    0  501  502  0.00000000000E+00  0.00000000000E+00  0.98433795917E+02  0.98433795917E+02  0.00000000000E+00 0. -1.
          2   -1    0    0  503    0 -0.00000000000E+00 -0.00000000000E+00 -0.63917589854E+03  0.63917589854E+03  0.00000000000E+00 0. -1.
         24    2    1    2    0    0  0.71917017987E+02 -0.10765803103E+03 -0.21893099535E+03  0.26649741633E+03  0.79547363655E+02 0.  0.
         23    2    1    2    0    0 -0.59743409507E+02  0.10984236281E+03 -0.24166588325E+03  0.28699730654E+03  0.91271217730E+02 0.  0.
        -11    1    3    3    0    0  0.49001765325E+02 -0.26083016519E+02 -0.14037511596E+03  0.15095254200E+03  0.00000000000E+00 0.  1.
         12    1    3    3    0    0  0.22915252662E+02 -0.81575014507E+02 -0.78555879382E+02  0.11554487432E+03  0.00000000000E+00 0. -1.
        -11    1    4    4    0    0 -0.34758233268E+01  0.25760835104E+02 -0.14416750640E+03  0.14649222462E+03  0.00000000000E+00 0.  1.
         11    1    4    4    0    0 -0.56267586180E+02  0.84081527710E+02 -0.97498376855E+02  0.14050508192E+03  0.00000000000E+00 0. -1.
         21    1    1    2  503  502 -0.72411396076E+02 -0.23011730881E+02  0.68298039024E+01  0.76286278329E+02  0.00000000000E+00 0. -1.
          1    1    1    2  501    0  0.60237787597E+02  0.20827399094E+02 -0.86975027929E+02  0.10782869326E+03  0.00000000000E+00 0. -1.
<scales pt_clust_5="13000.00000" pt_clust_6="13000.00000" pt_clust_7="13000.00000" pt_clust_8="13000.00000" pt_clust_9="75.97993" pt_clust_10="13000.00000"></scales>
<clustering>
<clus scale="   75.980">  1  9  2 -1</clus>
<clus scale="   79.547">  5  6 -1 -1</clus>
<clus scale="   91.271">  7  8 -1 -1</clus>
<clus scale="   49.813">  7 10 -1 -1</clus>
<clus scale="  147.703">  2  5  1 -1</clus>
<clus scale="   75.980">  1  5  2 -1</clus>
</clustering>
</event>
<event>
10    4  0.2866397E-005  0.2839815E+03  0.7546771E-02  0.1135372E+00
         21   -1    0    0  501  502  0.00000000000E+00  0.00000000000E+00  0.13190187713E+03  0.13190187713E+03  0.00000000000E+00 0. -1.
          2   -1    0    0  503    0 -0.00000000000E+00 -0.00000000000E+00 -0.54188052572E+03  0.54188052572E+03  0.00000000000E+00 0. -1.
         24    2    1    2    0    0  0.17690040082E+02  0.56480561810E+02 -0.10161403338E+03  0.14241183953E+03  0.80328879474E+02 0.  0.
         23    2    1    2    0    0 -0.26450503749E+02  0.97281316301E+02 -0.23884581554E+03  0.27473400870E+03  0.90929468746E+02 0.  0.
        -13    1    3    3    0    0 -0.27926717789E+02  0.10700967308E+02 -0.12698912403E+02  0.32491147164E+02  0.00000000000E+00 0.  1.
         14    1    3    3    0    0  0.45616757871E+02  0.45779594503E+02 -0.88915120976E+02  0.10992069236E+03  0.00000000000E+00 0. -1.
        -13    1    4    4    0    0  0.24088031816E+02 -0.38381232931E+00 -0.28023078553E+02  0.36955020231E+02  0.00000000000E+00 0.  1.
         13    1    4    4    0    0 -0.50538535565E+02  0.97665128630E+02 -0.21082273699E+03  0.23777898847E+03  0.00000000000E+00 0. -1.
         21    1    1    2  503  502  0.20287389014E+02 -0.14712438294E+02  0.60771302972E+02  0.65735722849E+02  0.00000000000E+00 0. -1.
          1    1    1    2  501    0 -0.11526925347E+02 -0.13904943982E+03 -0.13029010264E+03  0.19090083176E+03  0.00000000000E+00 0. -1.
<scales pt_clust_5="13000.00000" pt_clust_6="13000.00000" pt_clust_7="13000.00000" pt_clust_8="13000.00000" pt_clust_9="25.06061" pt_clust_10="13000.00000"></scales>
<clustering>
<clus scale="   25.061">  1  9  2 -1</clus>
<clus scale="   80.329">  5  6 -1 -1</clus>
<clus scale="   90.929">  7  8 -1 -1</clus>
<clus scale="   98.644">  2  5  1 -1</clus>
<clus scale="  123.942">  7 10 -1 -1</clus>
<clus scale="   25.061">  1  5  2 -1</clus>
</clustering>
</event>
<event>
10    4  0.2866397E-005  0.9762275E+03  0.7546771E-02  0.9646167E-01
         -1   -1    0    0    0  501 -0.00000000000E+00  0.00000000000E+00  0.26202434975E+04  0.26202434975E+04  0.00000000000E+00 0.  1.
         21   -1    0    0  503  502  0.00000000000E+00 -0.00000000000E+00 -0.17594564088E+03  0.17594564088E+03  0.00000000000E+00 0. -1.
         24    2    1    2    0    0  0.17934586653E+03  0.25219684250E+03  0.71048705210E+03  0.77930132950E+03  0.82161570982E+02 0.  0.
         23    2    1    2    0    0  0.21654657114E+02 -0.11549732857E+03 -0.81073018290E+02  0.16775031866E+03  0.88083926090E+02 0.  0.
        -13    1    3    3    0    0  0.23896490398E+02  0.93902024232E+01  0.25836312674E+02  0.36424349101E+02  0.00000000000E+00 0.  1.
         14    1    3    3    0    0  0.15544937613E+03  0.24280664008E+03  0.68465073943E+03  0.74287698040E+03  0.00000000000E+00 0. -1.
        -13    1    4    4    0    0  0.43323756000E+02 -0.94130104793E+02 -0.88673718679E+02  0.13638347718E+03  0.00000000000E+00 0. -1.
         13    1    4    4    0    0 -0.21669098886E+02 -0.21367223773E+02  0.76007003890E+01  0.31366841485E+02  0.00000000000E+00 0.  1.
         21    1    1    2  503  501  0.37780153393E+02  0.21024437337E+02  0.81193726057E+02  0.91987978055E+02  0.00000000000E+00 0. -1.
         -2    1    1    2    0  502 -0.23878067703E+03 -0.15772395128E+03  0.17336900967E+04  0.17571495121E+04  0.00000000000E+00 0.  1.
<scales pt_clust_5="13000.00000" pt_clust_6="13000.00000" pt_clust_7="13000.00000" pt_clust_8="13000.00000" pt_clust_9="43.23620" pt_clust_10="13000.00000"></scales>
<clustering>
<clus scale="   43.236">  2  9  1 -1</clus>
<clus scale="   82.162">  5  6 -1 -1</clus>
<clus scale="   88.084">  7  8 -1 -1</clus>
<clus scale="  283.205">  7 10 -1 -1</clus>
<clus scale="  327.823">  1  5  2 -1</clus>
<clus scale="   43.236">  2  5  1 -1</clus>
</clustering>
</event>
<event>
10    4  0.2866397E-005  0.4270100E+03  0.7546771E-02  0.1054357E+00
          2   -1    0    0  502    0 -0.00000000000E+00  0.00000000000E+00  0.10633800754E+04  0.10633800754E+04  0.00000000000E+00 0. -1.
         21   -1    0    0  503  502  0.00000000000E+00 -0.00000000000E+00 -0.16513313842E+03  0.16513313842E+03  0.00000000000E+00 0.  1.
         24    2    1    2    0    0  0.21836426582E+03  0.67821120488E+02  0.44741247098E+03  0.50856947328E+03  0.78627813119E+02 0.  0.
         23    2    1    2    0    0 -0.59568286707E+02  0.11379683206E+03  0.35001101333E+03  0.38393581060E+03  0.91656409730E+02 0.  0.
        -11    1    3    3    0    0  0.12149946524E+03  0.38569986850E+02  0.32888947763E+03  0.35272943233E+03  0.00000000000E+00 0.  1.
         12    1    3    3    0    0  0.96864800579E+02  0.29251133639E+02  0.11852299335E+03  0.15584004095E+03  0.00000000000E+00 0. -1.
        -13    1    4    4    0    0 -0.57064455764E+02  0.53447787151E+02  0.10112373608E+03  0.12782420765E+03  0.00000000000E+00 0.  1.
         13    1    4    4    0    0 -0.25038309426E+01  0.60349044912E+02  0.24888727725E+03  0.25611160295E+03  0.00000000000E+00 0. -1.
         21    1    1    2  503  501  0.12394948770E+02 -0.26031841875E+02 -0.51507179070E+02  0.59027798893E+02  0.00000000000E+00 0.  1.
          1    1    1    2  501    0 -0.17119092788E+03 -0.15558611068E+03  0.15233063177E+03  0.27698013105E+03  0.00000000000E+00 0. -1.
<scales pt_clust_5="13000.00000" pt_clust_6="13000.00000" pt_clust_7="13000.00000" pt_clust_8="13000.00000" pt_clust_9="28.83213" pt_clust_10="13000.00000"></scales>
<clustering>
<clus scale="   28.832">  2  9  1 -1</clus>
<clus scale="   78.628">  5  6 -1 -1</clus>
<clus scale="   91.656">  7  8 -1 -1</clus>
<clus scale="  236.577">  7 10 -1 -1</clus>
<clus scale="  243.009">  1  5  2 -1</clus>
<clus scale="   28.832">  2  5  1 -1</clus>
</clustering>
</event>
<event>
10    4  0.2866397E-005  0.7083347E+03  0.7546771E-02  0.1016450E+00
         21   -1    0    0  503  502  0.00000000000E+00  0.00000000000E+00  0.90010530570E+03  0.90010530570E+03  0.00000000000E+00 0. -1.
          2   -1    0    0  502    0 -0.00000000000E+00 -0.00000000000E+00 -0.28168239618E+03  0.28168239618E+03  0.00000000000E+00 0. -1.
         24    2    1    2    0    0 -0.14462986850E+03 -0.16326399743E+02 -0.48125641729E+02  0.17130610410E+03  0.76454912996E+02 0.  0.
         23    2    1    2    0    0  0.31106324199E+02  0.36461377021E+03  0.28404466769E+03  0.47217795187E+03  0.91432161507E+02 0.  0.
        -13    1    3    3    0    0 -0.46261279207E+02  0.30133220243E+02 -0.21949964258E+02  0.59413111744E+02  0.00000000000E+00 0.  1.
         14    1    3    3    0    0 -0.98368589289E+02 -0.46459619986E+02 -0.26175677471E+02  0.11189299236E+03  0.00000000000E+00 0. -1.
        -11    1    4    4    0    0  0.50789547629E+02  0.25329523687E+03  0.23396493668E+03  0.34853643535E+03  0.00000000000E+00 0.  1.
         11    1    4    4    0    0 -0.19683223431E+02  0.11131853334E+03  0.50079731006E+02  0.12364151652E+03  0.00000000000E+00 0. -1.
         21    1    1    2  503  501  0.39190920131E+02 -0.32363364847E+02  0.79092889542E+02  0.94015960246E+02  0.00000000000E+00 0. -1.
          1    1    1    2  501    0  0.74332624166E+02 -0.31592400562E+03  0.30341099402E+03  0.44428768566E+03  0.00000000000E+00 0. -1.
<scales pt_clust_5="13000.00000" pt_clust_6="13000.00000" pt_clust_7="13000.00000" pt_clust_8="13000.00000" pt_clust_9="50.82633" pt_clust_10="13000.00000"></scales>
<clustering>
<clus scale="   50.826">  1  9  2 -1</clus>
<clus scale="   76.455">  5  6 -1 -1</clus>
<clus scale="   91.432">  7  8 -1 -1</clus>
<clus scale="  162.069">  2  5  1 -1</clus>
<clus scale="  340.632">  7 10 -1 -1</clus>
<clus scale="   50.826">  1  5  2 -1</clus>
</clustering>
</event>
<event>
10    4  0.2866397E-005  0.2724279E+03  0.7546771E-02  0.1115191E+00
         21   -1    0    0  503  502  0.00000000000E+00  0.00000000000E+00  0.19394327637E+03  0.19394327637E+03  0.00000000000E+00 0. -1.
          2   -1    0    0  502    0 -0.00000000000E+00 -0.00000000000E+00 -0.34219704946E+03  0.34219704946E+03  0.00000000000E+00 0. -1.
         24    2    1    2    0    0 -0.16805606089E+03  0.15094101607E+02 -0.10894708468E+03  0.21637417198E+03  0.80483809146E+02 0.  0.
         23    2    1    2    0    0  0.27122285228E+02  0.50654960114E+02 -0.14207146295E+02  0.10859998425E+03  0.91052568511E+02 0.  0.
        -13    1    3    3    0    0 -0.69977061663E+02  0.32195935425E+02 -0.83524138202E+02  0.11362063668E+03  0.00000000000E+00 0.  1.
         14    1    3    3    0    0 -0.98078999230E+02 -0.17101833818E+02 -0.25422946478E+02  0.10275353530E+03  0.00000000000E+00 0. -1.
        -13    1    4    4    0    0  0.55875164912E+02  0.55119302657E+02 -0.12248394049E+02  0.79436734174E+02  0.00000000000E+00 0. -1.
         13    1    4    4    0    0 -0.28752879685E+02 -0.44643425429E+01 -0.19587522457E+01  0.29163250074E+02  0.00000000000E+00 0.  1.
         21    1    1    2  503  501  0.13500491923E+02  0.34074586686E+02  0.21784496097E+02  0.42636897286E+02  0.00000000000E+00 0. -1.
          1    1    1    2  501    0  0.12743328374E+03 -0.99823648407E+02 -0.46884038218E+02  0.16852927231E+03  0.00000000000E+00 0. -1.
<scales pt_clust_5="13000.00000" pt_clust_6="13000.00000" pt_clust_7="13000.00000" pt_clust_8="13000.00000" pt_clust_9="36.65161" pt_clust_10="13000.00000"></scales>
<clustering>
<clus scale="   36.652">  1  9  2 -1</clus>
<clus scale="   80.484">  5  6 -1 -1</clus>
<clus scale="   91.053">  7  8 -1 -1</clus>
<clus scale="  158.523">  7 10 -1 -1</clus>
<clus scale="  184.204">  2  5  1 -1</clus>
<clus scale="   36.652">  1  5  2 -1</clus>
</clustering>
</event>
<event>
10    4  0.2866397E-005  0.4404553E+03  0.7546771E-02  0.1056242E+00
         21   -1    0    0  501  502  0.00000000000E+00  0.00000000000E+00  0.50135634964E+03  0.50135634964E+03  0.00000000000E+00 0. -1.
          2   -1    0    0  503    0 -0.00000000000E+00 -0.00000000000E+00 -0.56411259000E+03  0.56411259000E+03  0.00000000000E+00 0. -1.
         24    2    1    2    0    0 -0.49642789099E+02  0.20288770039E+03 -0.20878202223E+03  0.30618812855E+03  0.80829522962E+02 0.  0.
         23    2    1    2    0    0  0.16958556721E+02  0.21382084549E+02 -0.24117392104E+03  0.26148924457E+03  0.97298400029E+02 0.  0.
        -13    1    3    3    0    0  0.29287883668E+01  0.50720418401E+02 -0.12486320624E+02  0.52316793162E+02  0.00000000000E+00 0.  1.
         14    1    3    3    0    0 -0.52571577466E+02  0.15216728199E+03 -0.19629570160E+03  0.25387133539E+03  0.00000000000E+00 0. -1.
        -11    1    4    4    0    0  0.48336702346E+02  0.20114384742E+02 -0.69751672786E+02  0.87214225467E+02  0.00000000000E+00 0. -1.
         11    1    4    4    0    0 -0.31378145626E+02  0.12676998067E+01 -0.17142224826E+03  0.17427501910E+03  0.00000000000E+00 0.  1.
         21    1    1    2  503  502  0.29969989616E+02 -0.55394060158E+02  0.30223412977E+03  0.30872669365E+03  0.00000000000E+00 0. -1.
          1    1    1    2  501    0  0.27142427625E+01 -0.16887572478E+03  0.84965573142E+02  0.18906487287E+03  0.00000000000E+00 0. -1.
<scales pt_clust_5="13000.00000" pt_clust_6="13000.00000" pt_clust_7="13000.00000" pt_clust_8="13000.00000" pt_clust_9="62.98176" pt_clust_10="13000.00000"></scales>
<clustering>
<clus scale="   62.982">  1  9  2 -1</clus>
<clus scale="   80.830">  5  6 -1 -1</clus>
<clus scale="   97.298">  7  8 -1 -1</clus>
<clus scale="  208.970">  7 10 -1 -1</clus>
<clus scale="  209.947">  2  5  1 -1</clus>
<clus scale="   62.982">  1  5  2 -1</clus>
</clustering>
</event>
<event>
10    4  0.2866397E-005  0.5245822E+03  0.7546771E-02  0.1019611E+00
         -3   -1    0    0    0  501 -0.00000000000E+00  0.00000000000E+00  0.56433308718E+03  0.56433308718E+03  0.00000000000E+00 0.  1.
         21   -1    0    0  501  502  0.00000000000E+00 -0.00000000000E+00 -0.53659041180E+03  0.53659041180E+03  0.00000000000E+00 0.  1.
         24    2    1    2    0    0 -0.15640509605E+03  0.34329736249E+03  0.22219448478E+03  0.44539607839E+03  0.81802471992E+02 0.  0.
         23    2    1    2    0    0  0.31372255380E+02 -0.60119354127E+02  0.14625709784E+03  0.18537752092E+03  0.91515744254E+02 0.  0.
        -13    1    3    3    0    0 -0.15806112997E+03  0.28192742666E+03  0.20014808658E+03  0.38016529467E+03  0.00000000000E+00 0.  1.
         14    1    3    3    0    0  0.16560339282E+01  0.61369935820E+02  0.22046398203E+02  0.65230783720E+02  0.00000000000E+00 0. -1.
        -13    1    4    4    0    0  0.28030403544E+02 -0.18504247662E+01  0.11654978724E+03  0.11988736589E+03  0.00000000000E+00 0.  1.
         13    1    4    4    0    0  0.33418518353E+01 -0.58268929361E+02  0.29707310595E+02  0.65490155026E+02  0.00000000000E+00 0. -1.
         21    1    1    2  503  502  0.25195325529E+01 -0.91142206728E+02 -0.13696465647E+03  0.16453743347E+03  0.00000000000E+00 0.  1.
         -4    1    1    2    0  503  0.12251330811E+03 -0.19203580163E+03 -0.20374425077E+03  0.30561246619E+03  0.00000000000E+00 0.  1.
<scales pt_clust_5="13000.00000" pt_clust_6="13000.00000" pt_clust_7="13000.00000" pt_clust_8="13000.00000" pt_clust_9="91.17703" pt_clust_10="13000.00000"></scales>
<clustering>
<clus scale="   81.802">  5  6 -1 -1</clus>
<clus scale="   91.177">  2  9  1 -1</clus>
<clus scale="   91.516">  7  8 -1 -1</clus>
<clus scale="  281.109">  7 10 -1 -1</clus>
<clus scale="  362.457">  1  5  2 -1</clus>
<clus scale="   91.177">  2  5  1 -1</clus>
</clustering>
</event>
<event>
10    4  0.2866397E-005  0.4743165E+03  0.7546771E-02  0.1057103E+00
          2   -1    0    0  502    0 -0.00000000000E+00  0.00000000000E+00  0.59869098137E+03  0.59869098137E+03  0.00000000000E+00 0. -1.
         21   -1    0    0  503  502  0.00000000000E+00 -0.00000000000E+00 -0.26592338859E+03  0.26592338859E+03  0.00000000000E+00 0. -1.
         24    2    1    2    0    0 -0.11526489022E+03 -0.78991603605E+02  0.27592035354E+03  0.32088721760E+03  0.85503780977E+02 0.  0.
         23    2    1    2    0    0 -0.84923720904E+01 -0.83484945786E+02  0.21447862155E+03  0.24764936329E+03  0.91034452154E+02 0.  0.
        -13    1    3    3    0    0 -0.90429379671E+02 -0.68096961655E+02  0.27049858690E+03  0.29323054822E+03  0.00000000000E+00 0.  1.
         14    1    3    3    0    0 -0.24835510550E+02 -0.10894641950E+02  0.54217666395E+01  0.27656669376E+02  0.00000000000E+00 0. -1.
        -13    1    4    4    0    0  0.26768587045E+02 -0.14821873649E+02  0.15659268334E+02  0.34372341724E+02  0.00000000000E+00 0.  1.
         13    1    4    4    0    0 -0.35260959135E+02 -0.68663072137E+02  0.19881935322E+03  0.21327702157E+03  0.00000000000E+00 0. -1.
         21    1    1    2  503  501  0.10615785141E+02 -0.20461915099E+02 -0.51067388104E+02  0.56029126278E+02  0.00000000000E+00 0.  1.
          1    1    1    2  501    0  0.11314147717E+03  0.18293846449E+03 -0.10656399421E+03  0.24004866279E+03  0.00000000000E+00 0. -1.
<scales pt_clust_5="13000.00000" pt_clust_6="13000.00000" pt_clust_7="13000.00000" pt_clust_8="13000.00000" pt_clust_9="23.05179" pt_clust_10="13000.00000"></scales>
<clustering>
<clus scale="   23.052">  2  9  1 -1</clus>
<clus scale="   85.504">  5  6 -1 -1</clus>
<clus scale="   91.034">  7  8 -1 -1</clus>
<clus scale="  164.090">  1  5  2 -1</clus>
<clus scale="  178.218">  7 10 -1 -1</clus>
<clus scale="   23.052">  2  5  1 -1</clus>
</clustering>
</event>
<event>
10    4  0.2866397E-005  0.2500411E+03  0.7546771E-02  0.1152714E+00
         21   -1    0    0  501  502  0.00000000000E+00  0.00000000000E+00  0.35147288534E+02  0.35147288534E+02  0.00000000000E+00 0. -1.
          2   -1    0    0  503    0 -0.00000000000E+00 -0.00000000000E+00 -0.12064734419E+04  0.12064734419E+04  0.00000000000E+00 0. -1.
         24    2    1    2    0    0 -0.57327183714E+02  0.22865737859E+02 -0.35609642914E+03  0.37020497626E+03  0.80235962270E+02 0.  0.
         23    2    1    2    0    0 -0.28968976129E+01 -0.11837782749E+03 -0.40817336763E+03  0.43204708808E+03  0.77701262681E+02 0.  0.
        -13    1    3    3    0    0  0.77848749766E+01 -0.20379606941E+02 -0.56095071487E+02  0.60187953135E+02  0.00000000000E+00 0.  1.
         14    1    3    3    0    0 -0.65112058690E+02  0.43245344800E+02 -0.30000135765E+03  0.31001702312E+03  0.00000000000E+00 0. -1.
        -11    1    4    4    0    0 -0.21121686191E+02 -0.78864088607E+02 -0.35002082747E+03  0.35941654075E+03  0.00000000000E+00 0.  1.
         11    1    4    4    0    0  0.18224788578E+02 -0.39513738884E+02 -0.58152540152E+02  0.72630547330E+02  0.00000000000E+00 0. -1.
         21    1    1    2  503  502  0.38247089717E+02 -0.49944536281E+01 -0.30976550264E+02  0.49470507428E+02  0.00000000000E+00 0. -1.
          1    1    1    2  501    0  0.21976991610E+02  0.10050654326E+03 -0.37607980637E+03  0.38989815870E+03  0.00000000000E+00 0. -1.
<scales pt_clust_5="13000.00000" pt_clust_6="13000.00000" pt_clust_7="13000.00000" pt_clust_8="13000.00000" pt_clust_9="38.57181" pt_clust_10="13000.00000"></scales>
<clustering>
<clus scale="   38.572">  1  9  2 -1</clus>
<clus scale="   77.701">  7  8 -1 -1</clus>
<clus scale="   80.236">  5  6 -1 -1</clus>
<clus scale="   95.398">  2  5  1 -1</clus>
<clus scale="  109.785">  7 10 -1 -1</clus>
<clus scale="   38.572">  1  5  2 -1</clus>
</clustering>
</event>
<event>
10    4  0.2866397E-005  0.4937121E+03  0.7546771E-02  0.1050567E+00
         21   -1    0    0  501  502  0.00000000000E+00  0.00000000000E+00  0.19029125132E+03  0.19029125132E+03  0.00000000000E+00 0. -1.
          2   -1    0    0  503    0 -0.00000000000E+00 -0.00000000000E+00 -0.10405868983E+04  0.10405868983E+04  0.00000000000E+00 0. -1.
         24    2    1    2    0    0 -0.15800336886E+03  0.61545223552E+01 -0.55200843968E+03  0.57998441941E+03  0.81643533477E+02 0.  0.
         23    2    1    2    0    0 -0.14353056473E+03 -0.91277019695E+02 -0.21373815847E+03  0.28788925871E+03  0.90904936927E+02 0.  0.
        -11    1    3    3    0    0 -0.79858519258E+02 -0.19569268288E+02 -0.16527674128E+03  0.18459886394E+03  0.00000000000E+00 0.  1.
         12    1    3    3    0    0 -0.78144849601E+02  0.25723790644E+02 -0.38673169840E+03  0.39538555546E+03  0.00000000000E+00 0. -1.
        -13    1    4    4    0    0 -0.61644022166E+02 -0.26724690004E+02 -0.23922336276E+02  0.71319511338E+02  0.00000000000E+00 0.  1.
         13    1    4    4    0    0 -0.81886542569E+02 -0.64552329691E+02 -0.18981582219E+03  0.21656974737E+03  0.00000000000E+00 0. -1.
         21    1    1    2  503  502  0.33019921700E+02  0.13429243672E+02  0.44139549446E+02  0.56735876128E+02  0.00000000000E+00 0. -1.
          1    1    1    2  501    0  0.26851401189E+03  0.71693253667E+02 -0.12868859832E+03  0.30626859542E+03  0.00000000000E+00 0. -1.
<scales pt_clust_5="13000.00000" pt_clust_6="13000.00000" pt_clust_7="13000.00000" pt_clust_8="13000.00000" pt_clust_9="35.64632" pt_clust_10="13000.00000"></scales>
<clustering>
<clus scale="   35.646">  1  9  2 -1</clus>
<clus scale="   81.644">  5  6 -1 -1</clus>
<clus scale="   90.905">  7  8 -1 -1</clus>
<clus scale="  175.083">  2  5  1 -1</clus>
<clus scale="  224.820">  7 10 -1 -1</clus>
<clus scale="   35.646">  1  5  2 -1</clus>
</clustering>
</event>
<event>
10    4  0.2866397E-005  0.5647346E+03  0.7546771E-02  0.1027620E+00
         21   -1    0    0  503  502  0.00000000000E+00  0.00000000000E+00  0.33647836258E+03  0.33647836258E+03  0.00000000000E+00 0.  1.
          2   -1    0    0  502    0 -0.00000000000E+00 -0.00000000000E+00 -0.53355618204E+03  0.53355618204E+03  0.00000000000E+00 0. -1.
         24    2    1    2    0    0 -0.14263753087E+03  0.17082101656E+03 -0.47626394566E+01  0.23670954124E+03  0.80519806696E+02 0.  0.
         23    2    1    2    0    0  0.17427437761E+02  0.17668310512E+03 -0.71308605594E+02  0.21187936163E+03  0.91034671586E+02 0.  0.
        -11    1    3    3    0    0 -0.11202945781E+03  0.15708300852E+03 -0.29290095134E+02  0.19515014900E+03  0.00000000000E+00 0.  1.
         12    1    3    3    0    0 -0.30608073060E+02  0.13738008037E+02  0.24527455678E+02  0.41559392240E+02  0.00000000000E+00 0. -1.
        -13    1    4    4    0    0  0.38441917117E+02  0.17214081844E+03 -0.71645892629E+02  0.19037693215E+03  0.00000000000E+00 0.  1.
         13    1    4    4    0    0 -0.21014479356E+02  0.45422866800E+01  0.33728703442E+00  0.21502429478E+02  0.00000000000E+00 0. -1.
         21    1    1    2  503  501  0.43539029030E+02  0.31388819548E+01 -0.14373954722E+02  0.45957700151E+02  0.00000000000E+00 0. -1.
          1    1    1    2  501    0  0.81671064077E+02 -0.35064300363E+03 -0.10663261968E+03  0.37548794160E+03  0.00000000000E+00 0. -1.
<scales pt_clust_5="13000.00000" pt_clust_6="13000.00000" pt_clust_7="13000.00000" pt_clust_8="13000.00000" pt_clust_9="43.65205" pt_clust_10="13000.00000"></scales>
<clustering>
<clus scale="   43.652">  1  9  2 -1</clus>
<clus scale="   80.520">  5  6 -1 -1</clus>
<clus scale="   91.035">  7  8 -1 -1</clus>
<clus scale="  228.373">  2  5  1 -1</clus>
<clus scale="  243.920">  7 10 -1 -1</clus>
<clus scale="   43.652">  1  5  2 -1</clus>
</clustering>
</event>
<event>
10    4  0.2866397E-005  0.5943453E+03  0.7546771E-02  0.1020753E+00
          2   -1    0    0  502    0 -0.00000000000E+00  0.00000000000E+00  0.52656717931E+03  0.52656717931E+03  0.00000000000E+00 0. -1.
         21   -1    0    0  503  502  0.00000000000E+00 -0.00000000000E+00 -0.77478369847E+03  0.77478369847E+03  0.00000000000E+00 0. -1.
         24    2    1    2    0    0  0.13310606655E+03 -0.16561387090E+03  0.12882416098E+03  0.26212991425E+03  0.83494001632E+02 0.  0.
         23    2    1    2    0    0 -0.29114705748E+02 -0.16745211128E+03  0.41999613122E+02  0.20519323963E+03  0.10701599145E+03 0.  0.
        -13    1    3    3    0    0  0.30943179572E+02 -0.89189879368E+02  0.85563101011E+02  0.12741020053E+03  0.00000000000E+00 0.  1.
         14    1    3    3    0    0  0.10216288698E+03 -0.76423991531E+02  0.43261059968E+02  0.13471971373E+03  0.00000000000E+00 0. -1.
        -11    1    4    4    0    0 -0.38295640846E+02 -0.20169719292E+02 -0.16681174723E+02  0.46385722742E+02  0.00000000000E+00 0.  1.
         11    1    4    4    0    0  0.91809350981E+01 -0.14728239198E+03  0.58680787845E+02  0.15880751689E+03  0.00000000000E+00 0. -1.
         21    1    1    2  503  501  0.49615198650E+02 -0.52178893707E+02 -0.41301559876E+03  0.41924478495E+03  0.00000000000E+00 0. -1.
          1    1    1    2  501    0 -0.15360655945E+03  0.38524487588E+03 -0.60246944962E+01  0.41478293895E+03  0.00000000000E+00 0. -1.
<scales pt_clust_5="13000.00000" pt_clust_6="13000.00000" pt_clust_7="13000.00000" pt_clust_8="13000.00000" pt_clust_9="72.00212" pt_clust_10="13000.00000"></scales>
<clustering>
<clus scale="   72.002">  2  9  1 -1</clus>
<clus scale="   83.494">  5  6 -1 -1</clus>
<clus scale="  107.016">  7  8 -1 -1</clus>
<clus scale="  240.753">  1  5  2 -1</clus>
<clus scale="  261.762">  7 10 -1 -1</clus>
<clus scale="   72.002">  2  5  1 -1</clus>
</clustering>
</event>
<event>
10    4  0.2866397E-005  0.1458236E+03  0.7546771E-02  0.1221219E+00
         21   -1    0    0  501  502  0.00000000000E+00  0.00000000000E+00  0.20952719496E+03  0.20952719496E+03  0.00000000000E+00 0. -1.
         -1   -1    0    0    0  501 -0.00000000000E+00 -0.00000000000E+00 -0.13750105768E+03  0.13750105768E+03  0.00000000000E+00 0.  1.
         24    2    1    2    0    0 -0.24678270307E+02  0.39779728137E+02 -0.66629528680E+02  0.12447736216E+03  0.94147096615E+02 0.  0.
         23    2    1    2    0    0 -0.20211703722E+02 -0.56319402165E+02  0.11723133962E+03  0.15989600451E+03  0.90791834669E+02 0.  0.
        -13    1    3    3    0    0 -0.11141849593E+02 -0.29641232879E+02 -0.81349502742E+01  0.32694356010E+02  0.00000000000E+00 0.  1.
         14    1    3    3    0    0 -0.13536420714E+02  0.69420961017E+02 -0.58494578406E+02  0.91783006146E+02  0.00000000000E+00 0. -1.
        -13    1    4    4    0    0  0.12681756322E+02  0.15581916138E+02  0.57186212549E+02  0.60612589119E+02  0.00000000000E+00 0. -1.
         13    1    4    4    0    0 -0.32893460044E+02 -0.71901318303E+02  0.60045127069E+02  0.99283415393E+02  0.00000000000E+00 0.  1.
         21    1    1    2  503  502  0.24443445541E+02  0.97304424014E+01  0.29603242370E+02  0.39604488357E+02  0.00000000000E+00 0. -1.
         -2    1    1    2    0  503  0.20446528488E+02  0.68092316257E+01 -0.81789160258E+01  0.23050397608E+02  0.00000000000E+00 0.  1.
<scales pt_clust_5="13000.00000" pt_clust_6="13000.00000" pt_clust_7="13000.00000" pt_clust_8="13000.00000" pt_clust_9="26.30900" pt_clust_10="13000.00000"></scales>
<clustering>
<clus scale="   26.309">  1  9  2 -1</clus>
<clus scale="   90.792">  7  8 -1 -1</clus>
<clus scale="   22.667">  7 10 -1 -1</clus>
<clus scale="   94.147">  5  6 -1 -1</clus>
<clus scale="  104.893">  2  5  1 -1</clus>
<clus scale="   26.309">  1  5  2 -1</clus>
</clustering>
</event>
<event>
10    4  0.2866397E-005  0.1752258E+03  0.7546771E-02  0.1202649E+00
          2   -1    0    0  503    0 -0.00000000000E+00  0.00000000000E+00  0.34946569988E+03  0.34946569988E+03  0.00000000000E+00 0. -1.
         21   -1    0    0  501  502  0.00000000000E+00 -0.00000000000E+00 -0.18979910385E+03  0.18979910385E+03  0.00000000000E+00 0. -1.
         24    2    1    2    0    0  0.39289877531E+02  0.11964316192E+02  0.24925026505E+03  0.26536674211E+03  0.81283293787E+02 0.  0.
         23    2    1    2    0    0  0.37700153548E+02  0.22185074101E+02 -0.28768602388E+02  0.10575967102E+03  0.91891220695E+02 0.  0.
        -13    1    3    3    0    0 -0.16996700675E+02 -0.20059222832E+02  0.69484460124E+02  0.74292331052E+02  0.00000000000E+00 0.  1.
         14    1    3    3    0    0  0.56286578207E+02  0.32023539024E+02  0.17976580493E+03  0.19107441105E+03  0.00000000000E+00 0. -1.
        -13    1    4    4    0    0 -0.26374726909E+02  0.16204626884E+02 -0.27480885506E+02  0.41393420011E+02  0.00000000000E+00 0.  1.
         13    1    4    4    0    0  0.64074880456E+02  0.59804472166E+01 -0.12877168817E+01  0.64366251011E+02  0.00000000000E+00 0. -1.
         21    1    1    2  503  502 -0.45405831362E+02  0.21396855540E+02 -0.85902108948E+02  0.99492146777E+02  0.00000000000E+00 0. -1.
          1    1    1    2  501    0 -0.31584199717E+02 -0.55546245833E+02  0.25087042313E+02  0.68646243815E+02  0.00000000000E+00 0. -1.
<scales pt_clust_5="13000.00000" pt_clust_6="13000.00000" pt_clust_7="13000.00000" pt_clust_8="13000.00000" pt_clust_9="50.19477" pt_clust_10="13000.00000"></scales>
<clustering>
<clus scale="   50.195">  2  9  1 -1</clus>
<clus scale="   81.283">  5  6 -1 -1</clus>
<clus scale="   89.764">  1  5  2 -1</clus>
<clus scale="   91.891">  7  8 -1 -1</clus>
<clus scale="   49.315">  7 10 -1 -1</clus>
<clus scale="   50.195">  2  5  1 -1</clus>
</clustering>
</event>
<event>
10    4  0.2866397E-005  0.3154935E+03  0.7546771E-02  0.1089141E+00
          2   -1    0    0  502    0 -0.00000000000E+00  0.00000000000E+00  0.60606940447E+03  0.60606940447E+03  0.00000000000E+00 0. -1.
         21   -1    0    0  503  502  0.00000000000E+00 -0.00000000000E+00 -0.34370869722E+03  0.34370869722E+03  0.00000000000E+00 0. -1.
         24    2    1    2    0    0 -0.13728340874E+03 -0.21629010746E+03  0.20499246795E+03  0.33811893956E+03  0.81696759234E+02 0.  0.
         23    2    1    2    0    0  0.33639138261E+02 -0.30211932449E+02  0.62293965621E+02  0.10493017395E+03  0.71312346533E+02 0.  0.
        -13    1    3    3    0    0 -0.14545026935E+02 -0.95727159680E+02  0.71921642507E+02  0.12061496412E+03  0.00000000000E+00 0.  1.
         14    1    3    3    0    0 -0.12273838181E+03 -0.12056294778E+03  0.13307082544E+03  0.21750397544E+03  0.00000000000E+00 0. -1.
        -13    1    4    4    0    0  0.26749116437E+02 -0.94974571656E+01 -0.94669511246E+01  0.29922233980E+02  0.00000000000E+00 0.  1.
         13    1    4    4    0    0  0.68900218244E+01 -0.20714475283E+02  0.71760916746E+02  0.75007939975E+02  0.00000000000E+00 0. -1.
         21    1    1    2  503  501  0.88191573852E+02  0.38977226567E+02 -0.19966181205E+03  0.22172464247E+03  0.00000000000E+00 0. -1.
          1    1    1    2  501    0  0.15452696632E+02  0.20752481335E+03  0.19473608573E+03  0.28500434571E+03  0.00000000000E+00 0. -1.
<scales pt_clust_5="13000.00000" pt_clust_6="13000.00000" pt_clust_7="13000.00000" pt_clust_8="13000.00000" pt_clust_9="96.42084" pt_clust_10="13000.00000"></scales>
<clustering>
<clus scale="   71.312">  7  8 -1 -1</clus>
<clus scale="   81.697">  5  6 -1 -1</clus>
<clus scale="   96.421">  2  9  1 -1</clus>
<clus scale="  225.366">  7 10 -1 -1</clus>
<clus scale="  232.542">  1  5  2 -1</clus>
<clus scale="   96.421">  2  5  1 -1</clus>
</clustering>
</event>
<event>
10    4  0.2866397E-005  0.6909156E+03  0.7546771E-02  0.1023793E+00
          2   -1    0    0  503    0 -0.00000000000E+00  0.00000000000E+00  0.10654223598E+04  0.10654223598E+04  0.00000000000E+00 0. -1.
         21   -1    0    0  501  502  0.00000000000E+00 -0.00000000000E+00 -0.25426098502E+03  0.25426098502E+03  0.00000000000E+00 0.  1.
         24    2    1    2    0    0  0.13466749314E+02  0.10875045866E+03  0.24804291426E+03  0.28308055784E+03  0.81248380388E+02 0.  0.
         23    2    1    2    0    0 -0.24360431137E+03 -0.15864607268E+03  0.58050513835E+02  0.31012164553E+03  0.91071049030E+02 0.  0.
        -13    1    3    3    0    0  0.61237431283E-01  0.26025447430E+02  0.56805316245E+01  0.26638245127E+02  0.00000000000E+00 0.  1.
         14    1    3    3    0    0  0.13405511883E+02  0.82725011231E+02  0.24236238263E+03  0.25644231271E+03  0.00000000000E+00 0. -1.
        -11    1    4    4    0    0 -0.23558654128E+03 -0.12264460062E+03  0.62831761239E+02  0.27292956365E+03  0.00000000000E+00 0.  1.
         11    1    4    4    0    0 -0.80177700939E+01 -0.36001472057E+02 -0.47812474049E+01  0.37192081876E+02  0.00000000000E+00 0. -1.
         21    1    1    2  503  502 -0.32631034080E+02  0.45291483735E+02 -0.72753023673E+02  0.91701174134E+02  0.00000000000E+00 0.  1.
          1    1    1    2  501    0  0.26276859614E+03  0.46041302844E+01  0.57782097039E+03  0.63477996735E+03  0.00000000000E+00 0. -1.
<scales pt_clust_5="13000.00000" pt_clust_6="13000.00000" pt_clust_7="13000.00000" pt_clust_8="13000.00000" pt_clust_9="55.82206" pt_clust_10="13000.00000"></scales>
<clustering>
<clus scale="   55.822">  2  9  1 -1</clus>
<clus scale="   81.248">  5  6 -1 -1</clus>
<clus scale="   91.071">  7  8 -1 -1</clus>
<clus scale="  139.840">  1  5  2 -1</clus>
<clus scale="  282.032">  7 10 -1 -1</clus>
<clus scale="   55.822">  2  5  1 -1</clus>
</clustering>
</event>
<event>
10    4  0.2866397E-005  0.1879344E+03  0.7546771E-02  0.1182148E+00
         21   -1    0    0  501  502  0.00000000000E+00  0.00000000000E+00  0.82489337529E+02  0.82489337529E+02  0.00000000000E+00 0.  1.
          2   -1    0    0  503    0 -0.00000000000E+00 -0.00000000000E+00 -0.11471076254E+04  0.11471076254E+04  0.00000000000E+00 0. -1.
         24    2    1    2    0    0 -0.79930768120E+02 -0.10504650661E+02 -0.57631272887E+03  0.58752539048E+03  0.80934835642E+02 0.  0.
         23    2    1    2    0    0  0.56167895870E+02  0.85043798940E+02 -0.27283387232E+03  0.30484968839E+03  0.90042936185E+02 0.  0.
        -11    1    3    3    0    0 -0.38167673649E+02  0.30518615948E+02 -0.16555388930E+03  0.17261589583E+03  0.00000000000E+00 0.  1.
         12    1    3    3    0    0 -0.41763094471E+02 -0.41023266608E+02 -0.41075883957E+03  0.41490949465E+03  0.00000000000E+00 0. -1.
        -11    1    4    4    0    0  0.81405309140E+01  0.78417987243E+02 -0.11271029092E+03  0.13754729603E+03  0.00000000000E+00 0.  1.
         11    1    4    4    0    0  0.48027364956E+02  0.66258116979E+01 -0.16012358140E+03  0.16730239235E+03  0.00000000000E+00 0. -1.
         21    1    1    2  503  502  0.47643808319E+02 -0.11466550029E+03 -0.78538938067E+01  0.12441781655E+03  0.00000000000E+00 0.  1.
          1    1    1    2  501    0 -0.23880936069E+02  0.40126352012E+02 -0.20761779287E+03  0.21280406751E+03  0.00000000000E+00 0. -1.
<scales pt_clust_5="13000.00000" pt_clust_6="13000.00000" pt_clust_7="13000.00000" pt_clust_8="13000.00000" pt_clust_9="122.05637" pt_clust_10="13000.00000"></scales>
<clustering>
<clus scale="   80.935">  5  6 -1 -1</clus>
<clus scale="   90.043">  7  8 -1 -1</clus>
<clus scale="   46.695">  7 10 -1 -1</clus>
<clus scale="  114.235">  2  5  1 -1</clus>
<clus scale="  122.056">  1  9  2 -1</clus>
<clus scale="  122.056">  1  5  2 -1</clus>
</clustering>
</event>
<event>
10    4  0.2866397E-005  0.3589513E+03  0.7546771E-02  0.1099232E+00
          2   -1    0    0  502    0 -0.00000000000E+00  0.00000000000E+00  0.22511994927E+04  0.22511994927E+04  0.00000000000E+00 0. -1.
         21   -1    0    0  503  502  0.00000000000E+00 -0.00000000000E+00 -0.22288965389E+03  0.22288965389E+03  0.00000000000E+00 0.  1.
         24    2    1    2    0    0  0.67020283206E+02 -0.57962117713E+02  0.15676817498E+04  0.15722935522E+04  0.81422479219E+02 0.  0.
         23    2    1    2    0    0  0.35063068911E+02  0.65802906835E+02  0.47012452106E+02  0.13343490796E+03  0.10017615814E+03 0.  0.
        -13    1    3    3    0    0  0.20373256439E+02  0.44306431026E+01  0.83321794892E+02  0.85890754335E+02  0.00000000000E+00 0.  1.
         14    1    3    3    0    0  0.46647026766E+02 -0.62392760815E+02  0.14843599549E+04  0.14864027978E+04  0.00000000000E+00 0. -1.
        -13    1    4    4    0    0 -0.33274663215E+02  0.62691535899E+01  0.17520340026E+02  0.38124372958E+02  0.00000000000E+00 0.  1.
         13    1    4    4    0    0  0.68337732126E+02  0.59533753245E+02  0.29492112080E+02  0.95310535003E+02  0.00000000000E+00 0. -1.
         21    1    1    2  503  501  0.15880751065E+02 -0.20366239120E+02 -0.17043700320E+03  0.17238258035E+03  0.00000000000E+00 0.  1.
          1    1    1    2  501    0 -0.11796410318E+03  0.12525449997E+02  0.58405264016E+03  0.59597810615E+03  0.00000000000E+00 0. -1.
<scales pt_clust_5="13000.00000" pt_clust_6="13000.00000" pt_clust_7="13000.00000" pt_clust_8="13000.00000" pt_clust_9="25.82599" pt_clust_10="13000.00000"></scales>
<clustering>
<clus scale="   25.826">  2  9  1 -1</clus>
<clus scale="   81.422">  5  6 -1 -1</clus>
<clus scale="  100.176">  7  8 -1 -1</clus>
<clus scale="  116.569">  7 10 -1 -1</clus>
<clus scale="  121.175">  1  5  2 -1</clus>
<clus scale="   25.826">  2  5  1 -1</clus>
</clustering>
</event>
<event>
10    4  0.2866397E-005  0.2237871E+03  0.7546771E-02  0.1139635E+00
          2   -1    0    0  502    0 -0.00000000000E+00  0.00000000000E+00  0.19920716756E+04  0.19920716756E+04  0.00000000000E+00 0. -1.
         21   -1    0    0  503  502  0.00000000000E+00 -0.00000000000E+00 -0.43697403751E+02  0.43697403751E+02  0.00000000000E+00 0. -1.
         24    2    1    2    0    0 -0.13025765615E+03 -0.19102518631E+03  0.85279371786E+03  0.88700459187E+03  0.77861042883E+02 0.  0.
         23    2    1    2    0    0 -0.35126098111E+02  0.74699061270E+02  0.39086270647E+03  0.41234410700E+03  0.10217736902E+03 0.  0.
        -11    1    3    3    0    0 -0.11630073743E+03 -0.10467386515E+03  0.55324337687E+03  0.57494409609E+03  0.00000000000E+00 0.  1.
         12    1    3    3    0    0 -0.13956918711E+02 -0.86351321157E+02  0.29955034098E+03  0.31206049578E+03  0.00000000000E+00 0. -1.
        -13    1    4    4    0    0  0.29181375947E+02  0.33345280224E+02  0.23008601915E+03  0.23431397019E+03  0.00000000000E+00 0.  1.
         13    1    4    4    0    0 -0.64307474059E+02  0.41353781046E+02  0.16077668732E+03  0.17803013681E+03  0.00000000000E+00 0. -1.
         21    1    1    2  503  501  0.13127851200E+03  0.67033913095E+02  0.41059973140E+03  0.43625649868E+03  0.00000000000E+00 0. -1.
          1    1    1    2  501    0  0.34105242261E+02  0.49292211941E+02  0.29411811612E+03  0.30016388181E+03  0.00000000000E+00 0. -1.
<scales pt_clust_5="13000.00000" pt_clust_6="13000.00000" pt_clust_7="13000.00000" pt_clust_8="13000.00000" pt_clust_9="147.40283" pt_clust_10="13000.00000"></scales>
<clustering>
<clus scale="   77.861">  5  6 -1 -1</clus>
<clus scale="  102.177">  7  8 -1 -1</clus>
<clus scale="   59.941">  7 10 -1 -1</clus>
<clus scale="  147.403">  2  9  1 -1</clus>
<clus scale="  181.794">  1  5  2 -1</clus>
<clus scale="  147.403">  2  5  1 -1</clus>
</clustering>
</event>
<event>
10    4  0.2866397E-005  0.1866383E+03  0.7546771E-02  0.1188192E+00
          2   -1    0    0  503    0 -0.00000000000E+00  0.00000000000E+00  0.69630993013E+03  0.69630993013E+03  0.00000000000E+00 0. -1.
         21   -1    0    0  501  502  0.00000000000E+00 -0.00000000000E+00 -0.41521728684E+02  0.41521728684E+02  0.00000000000E+00 0. -1.
         24    2    1    2    0    0 -0.52424466154E+02  0.16769262223E+02  0.24395688862E+03  0.26327832741E+03  0.82285973089E+02 0.  0.
         23    2    1    2    0    0  0.44640876964E+01 -0.77708116712E+02  0.13763956039E+03  0.18285095709E+03  0.91822352631E+02 0.  0.
        -13    1    3    3    0    0 -0.25524925163E+02  0.10811403331E+02  0.12882827760E+02  0.30567556292E+02  0.00000000000E+00 0.  1.
         14    1    3    3    0    0 -0.26899540992E+02  0.59578588915E+01  0.23107406086E+03  0.23271077111E+03  0.00000000000E+00 0. -1.
        -13    1    4    4    0    0 -0.13600909606E+02 -0.18897284136E+02 -0.81049419878E+01  0.24653238620E+02  0.00000000000E+00 0. -1.
         13    1    4    4    0    0  0.18064997302E+02 -0.58810832576E+02  0.14574450238E+03  0.15819771847E+03  0.00000000000E+00 0.  1.
         21    1    1    2  503  502 -0.23187332863E+01  0.43062243528E+02  0.75633680691E+02  0.87064269345E+02  0.00000000000E+00 0. -1.
          1    1    1    2  501    0  0.50279111744E+02  0.17876610961E+02  0.19755807174E+03  0.20463810497E+03  0.00000000000E+00 0. -1.
<scales pt_clust_5="13000.00000" pt_clust_6="13000.00000" pt_clust_7="13000.00000" pt_clust_8="13000.00000" pt_clust_9="43.12463" pt_clust_10="13000.00000"></scales>
<clustering>
<clus scale="   43.125">  2  9  1 -1</clus>
<clus scale="   82.286">  5  6 -1 -1</clus>
<clus scale="   91.822">  7  8 -1 -1</clus>
<clus scale="   54.726">  7 10 -1 -1</clus>
<clus scale="  101.937">  1  5  2 -1</clus>
<clus scale="   43.125">  2  5  1 -1</clus>
</clustering>
</event>
<event>
10    4  0.2866397E-005  0.3499260E+03  0.7546771E-02  0.1089885E+00
          2   -1    0    0  502    0 -0.00000000000E+00  0.00000000000E+00  0.70478180529E+03  0.70478180529E+03  0.00000000000E+00 0. -1.
         21   -1    0    0  503  502  0.00000000000E+00 -0.00000000000E+00 -0.14548261672E+03  0.14548261672E+03  0.00000000000E+00 0.  1.
         24    2    1    2    0    0  0.41743156662E+02 -0.13906615876E+03  0.38903174548E+03  0.42262296378E+03  0.78629402157E+02 0.  0.
         23    2    1    2    0    0  0.34205404524E+01 -0.95140310556E+01 -0.66564716577E+02  0.11243801623E+03  0.90051258270E+02 0.  0.
        -11    1    3    3    0    0  0.55592843279E+02 -0.10891714605E+03  0.35329458596E+03  0.37385902878E+03  0.00000000000E+00 0.  1.
         12    1    3    3    0    0 -0.13849686617E+02 -0.30149012708E+02  0.35737159517E+02  0.48763935004E+02  0.00000000000E+00 0. -1.
        -13    1    4    4    0    0 -0.23758032684E+02 -0.30182055636E+02 -0.89413788873E+00  0.38421349299E+02  0.00000000000E+00 0. -1.
         13    1    4    4    0    0  0.27178573136E+02  0.20668024580E+02 -0.65670578688E+02  0.74016666927E+02  0.00000000000E+00 0.  1.
         21    1    1    2  503  501  0.30173187078E+02 -0.10060765486E+02  0.28324766485E+02  0.42590287825E+02  0.00000000000E+00 0. -1.
          1    1    1    2  501    0 -0.75336884192E+02  0.15864095530E+03  0.20850739318E+03  0.27261315418E+03  0.00000000000E+00 0. -1.
<scales pt_clust_5="13000.00000" pt_clust_6="13000.00000" pt_clust_7="13000.00000" pt_clust_8="13000.00000" pt_clust_9="31.80631" pt_clust_10="13000.00000"></scales>
<clustering>
<clus scale="   31.806">  2  9  1 -1</clus>
<clus scale="   78.629">  5  6 -1 -1</clus>
<clus scale="   90.051">  7  8 -1 -1</clus>
<clus scale="  167.107">  1  5  2 -1</clus>
<clus scale="   52.301">  7 10 -1 -1</clus>
<clus scale="   31.806">  2  5  1 -1</clus>
</clustering>
</event>
<event>
10    4  0.2866397E-005  0.2145930E+03  0.7546771E-02  0.1176617E+00
          2   -1    0    0  503    0 -0.00000000000E+00  0.00000000000E+00  0.48416269464E+03  0.48416269464E+03  0.00000000000E+00 0. -1.
         21   -1    0    0  501  502  0.00000000000E+00 -0.00000000000E+00 -0.86793125548E+02  0.86793125548E+02  0.00000000000E+00 0.  1.
         24    2    1    2    0    0 -0.13343101468E+02 -0.21984763449E+02  0.30788120594E+03  0.31999222215E+03  0.83323568599E+02 0.  0.
         23    2    1    2    0    0  0.24218111502E+02  0.63606223119E+02 -0.16389055879E+02  0.11536805205E+03  0.91700151235E+02 0.  0.
        -11    1    3    3    0    0  0.16603822552E+02  0.20519383544E+02  0.46317822932E+02  0.53311094019E+02  0.00000000000E+00 0.  1.
         12    1    3    3    0    0 -0.29946924020E+02 -0.42504146993E+02  0.26156338301E+03  0.26668112813E+03  0.00000000000E+00 0. -1.
        -11    1    4    4    0    0 -0.91651520469E+01  0.76477813959E+02 -0.27385206518E+01  0.77073701970E+02  0.00000000000E+00 0.  1.
         11    1    4    4    0    0  0.33383263549E+02 -0.12871590840E+02 -0.13650535227E+02  0.38294350078E+02  0.00000000000E+00 0. -1.
         21    1    1    2  503  502  0.19896529432E+02  0.42193712507E+01  0.55546569007E+01  0.21083860901E+02  0.00000000000E+00 0. -1.
          1    1    1    2  501    0 -0.30771539466E+02 -0.45840830921E+02  0.10032276213E+03  0.11451168509E+03  0.00000000000E+00 0. -1.
<scales pt_clust_5="13000.00000" pt_clust_6="13000.00000" pt_clust_7="13000.00000" pt_clust_8="13000.00000" pt_clust_9="20.33900" pt_clust_10="13000.00000"></scales>
<clustering>
<clus scale="   20.339">  2  9  1 -1</clus>
<clus scale="   83.324">  5  6 -1 -1</clus>
<clus scale="   86.901">  1  5  2 -1</clus>
<clus scale="   91.700">  7  8 -1 -1</clus>
<clus scale="   68.969">  7 10 -1 -1</clus>
<clus scale="   20.339">  2  5  1 -1</clus>
</clustering>
</event>
<event>
10    4  0.2866397E-005  0.2067729E+03  0.7546771E-02  0.1156969E+00
         21   -1    0    0  503  502  0.00000000000E+00  0.00000000000E+00  0.10673765270E+03  0.10673765270E+03  0.00000000000E+00 0. -1.
          2   -1    0    0  502    0 -0.00000000000E+00 -0.00000000000E+00 -0.39418257271E+03  0.39418257271E+03  0.00000000000E+00 0. -1.
         24    2    1    2    0    0 -0.94355893645E+02  0.86303968798E+02 -0.15218503906E+03  0.21444981603E+03  0.80479983773E+02 0.  0.
         23    2    1    2    0    0  0.14773768324E+02 -0.13908665908E+02 -0.63384315573E+02  0.11308066374E+03  0.91421823618E+02 0.  0.
        -11    1    3    3    0    0 -0.47640717032E+02  0.12742407716E+02 -0.10345746254E+03  0.11461000580E+03  0.00000000000E+00 0.  1.
         12    1    3    3    0    0 -0.46715176613E+02  0.73561561083E+02 -0.48727576520E+02  0.99839810238E+02  0.00000000000E+00 0. -1.
        -13    1    4    4    0    0  0.30698041395E+02  0.25861229856E+02 -0.46858795816E+01  0.40412008396E+02  0.00000000000E+00 0.  1.
         13    1    4    4    0    0 -0.15924273071E+02 -0.39769895764E+02 -0.58698435992E+02  0.72668655346E+02  0.00000000000E+00 0. -1.
         21    1    1    2  503  501 -0.27967458581E+02 -0.25562314087E+02 -0.46120939580E+01  0.38169124324E+02  0.00000000000E+00 0. -1.
          1    1    1    2  501    0  0.10754958390E+03 -0.46832988803E+02 -0.67263471423E+02  0.13522062130E+03  0.00000000000E+00 0. -1.
<scales pt_clust_5="13000.00000" pt_clust_6="13000.00000" pt_clust_7="13000.00000" pt_clust_8="13000.00000" pt_clust_9="37.88945" pt_clust_10="13000.00000"></scales>
<clustering>
<clus scale="   37.889">  1  9  2 -1</clus>
<clus scale="   80.480">  5  6 -1 -1</clus>
<clus scale="   91.422">  7  8 -1 -1</clus>
<clus scale="  112.237">  7 10 -1 -1</clus>
<clus scale="  152.643">  2  5  1 -1</clus>
<clus scale="   37.889">  1  5  2 -1</clus>
</clustering>
</event>
<event>
10    4  0.2866397E-005  0.3031752E+03  0.7546771E-02  0.1103262E+00
          2   -1    0    0  502    0 -0.00000000000E+00  0.00000000000E+00  0.77810787596E+03  0.77810787596E+03  0.00000000000E+00 0. -1.
         21   -1    0    0  503  502  0.00000000000E+00 -0.00000000000E+00 -0.88371476586E+02  0.88371476586E+02  0.00000000000E+00 0. -1.
         24    2    1    2    0    0  0.42416861032E+01  0.14727898484E+03  0.16335396425E+03  0.23599439146E+03  0.85438538653E+02 0.  0.
         23    2    1    2    0    0 -0.78272107127E+02 -0.21009772384E+02  0.12964133657E+03  0.17825780605E+03  0.91657165458E+02 0.  0.
        -13    1    3    3    0    0 -0.37736491168E+02  0.64627884048E+02  0.52132809578E+02  0.91206556764E+02  0.00000000000E+00 0.  1.
         14    1    3    3    0    0  0.41978177271E+02  0.82651100797E+02  0.11122115467E+03  0.14478783470E+03  0.00000000000E+00 0. -1.
        -13    1    4    4    0    0 -0.17132598746E+02 -0.24650988132E+02 -0.49131641402E+01  0.30419341504E+02  0.00000000000E+00 0.  1.
         13    1    4    4    0    0 -0.61139508381E+02  0.36412157480E+01  0.13455450071E+03  0.14783846455E+03  0.00000000000E+00 0. -1.
         21    1    1    2  503  501 -0.15180647514E+02  0.27796886671E+02  0.26078938997E+02  0.41027186434E+02  0.00000000000E+00 0.  1.
          1    1    1    2  501    0  0.89211068538E+02 -0.15406609913E+03  0.37066215956E+03  0.41119996860E+03  0.00000000000E+00 0. -1.
<scales pt_clust_5="13000.00000" pt_clust_6="13000.00000" pt_clust_7="13000.00000" pt_clust_8="13000.00000" pt_clust_9="31.67205" pt_clust_10="13000.00000"></scales>
<clustering>
<clus scale="   31.672">  2  9  1 -1</clus>
<clus scale="   85.439">  5  6 -1 -1</clus>
<clus scale="   91.657">  7  8 -1 -1</clus>
<clus scale="  170.098">  7 10 -1 -1</clus>
<clus scale="  181.189">  1  5  2 -1</clus>
<clus scale="   31.672">  2  5  1 -1</clus>
</clustering>
</event>
<event>
10    4  0.2866397E-005  0.4988673E+03  0.7546771E-02  0.1052788E+00
         21   -1    0    0  503  502  0.00000000000E+00  0.00000000000E+00  0.62100791153E+03  0.62100791153E+03  0.00000000000E+00 0.  1.
          2   -1    0    0  502    0 -0.00000000000E+00 -0.00000000000E+00 -0.47254408310E+03  0.47254408310E+03  0.00000000000E+00 0. -1.
         24    2    1    2    0    0  0.75833766605E+02 -0.11296220305E+03  0.67130470256E+02  0.17288983914E+03  0.82904625725E+02 0.  0.
         23    2    1    2    0    0 -0.67058250811E+02 -0.87125994495E+02  0.89115907317E+02  0.15625351174E+03  0.66225124192E+02 0.  0.
        -13    1    3    3    0    0  0.57043237415E+02 -0.12400285715E+03  0.64405303814E+02  0.15092608348E+03  0.00000000000E+00 0.  1.
         14    1    3    3    0    0  0.18790529190E+02  0.11040654107E+02  0.27251664423E+01  0.21963755655E+02  0.00000000000E+00 0. -1.
        -13    1    4    4    0    0 -0.30184746737E+02 -0.84599424176E+02  0.51598323562E+02  0.10358845737E+03  0.00000000000E+00 0. -1.
         13    1    4    4    0    0 -0.36873504074E+02 -0.25265703194E+01  0.37517583755E+02  0.52665054363E+02  0.00000000000E+00 0.  1.
         21    1    1    2  503  501  0.20061620412E+03 -0.50946183863E+02  0.26667134794E+03  0.33757367020E+03  0.00000000000E+00 0.  1.
          1    1    1    2  501    0 -0.20939171991E+03  0.25103438140E+03 -0.27445389709E+03  0.42683497354E+03  0.00000000000E+00 0. -1.
<scales pt_clust_5="13000.00000" pt_clust_6="13000.00000" pt_clust_7="13000.00000" pt_clust_8="13000.00000" pt_clust_9="215.67822" pt_clust_10="13000.00000"></scales>
<clustering>
<clus scale="   66.225">  7  8 -1 -1</clus>
<clus scale="   82.905">  5  6 -1 -1</clus>
<clus scale="  159.325">  2  5  1 -1</clus>
<clus scale="  214.159">  7 10 -1 -1</clus>
<clus scale="  215.678">  1  9  2 -1</clus>
<clus scale="  215.678">  1  5  2 -1</clus>
</clustering>
</event>
<event>
10    4  0.2866397E-005  0.2008434E+03  0.7546771E-02  0.1165076E+00
          2   -1    0    0  503    0 -0.00000000000E+00  0.00000000000E+00  0.41127102655E+03  0.41127102655E+03  0.00000000000E+00 0. -1.
         21   -1    0    0  501  502  0.00000000000E+00 -0.00000000000E+00 -0.31203286570E+03  0.31203286570E+03  0.00000000000E+00 0.  1.
         24    2    1    2    0    0  0.27635746074E+02 -0.10848445391E+03  0.29397095802E+03  0.32473724506E+03  0.80639586883E+02 0.  0.
         23    2    1    2    0    0 -0.53711258724E+02 -0.27137566772E+02  0.18195068958E+02  0.11324407169E+03  0.94190298832E+02 0.  0.
        -13    1    3    3    0    0  0.61594845182E+01 -0.32942923597E+02  0.18480852766E+02  0.38271626352E+02  0.00000000000E+00 0.  1.
         14    1    3    3    0    0  0.21476261556E+02 -0.75541530310E+02  0.27549010525E+03  0.28646561871E+03  0.00000000000E+00 0. -1.
        -11    1    4    4    0    0  0.20312854814E+02  0.14857997971E+02 -0.35164062634E+01  0.25411361384E+02  0.00000000000E+00 0. -1.
         11    1    4    4    0    0 -0.74024113538E+02 -0.41995564742E+02  0.21711475221E+02  0.87832710304E+02  0.00000000000E+00 0.  1.
         21    1    1    2  503  502  0.40945764911E+02  0.15266119642E+03 -0.14785821391E+03  0.21643485850E+03  0.00000000000E+00 0.  1.
          1    1    1    2  501    0 -0.14870252261E+02 -0.17039175738E+02 -0.65069652219E+02  0.68887716990E+02  0.00000000000E+00 0. -1.
<scales pt_clust_5="13000.00000" pt_clust_6="13000.00000" pt_clust_7="13000.00000" pt_clust_8="13000.00000" pt_clust_9="126.56349" pt_clust_10="13000.00000"></scales>
<clustering>
<clus scale="   80.640">  5  6 -1 -1</clus>
<clus scale="   94.190">  7  8 -1 -1</clus>
<clus scale="   22.615">  7 10 -1 -1</clus>
<clus scale="  137.969">  1  5  2 -1</clus>
<clus scale="  126.563">  2  9  1 -1</clus>
<clus scale="  126.563">  2  5  1 -1</clus>
</clustering>
</event>
<event>
10    4  0.2866397E-005  0.2936599E+03  0.7546771E-02  0.1129674E+00
          2   -1    0    0  502    0 -0.00000000000E+00  0.00000000000E+00  0.78795285792E+03  0.78795285792E+03  0.00000000000E+00 0. -1.
         21   -1    0    0  503  502  0.00000000000E+00 -0.00000000000E+00 -0.97025364564E+02  0.97025364564E+02  0.00000000000E+00 0. -1.
         24    2    1    2    0    0 -0.23146243983E+02  0.58063377107E+02  0.48807731635E+03  0.49853712282E+03  0.80079284005E+02 0.  0.
         23    2    1    2    0    0  0.12116215193E+03  0.26885165892E+02  0.15617536839E+03  0.21965747504E+03  0.91954235608E+02 0.  0.
        -11    1    3    3    0    0 -0.24455641071E+02  0.33671483543E+01  0.39116544887E+02  0.46254947326E+02  0.00000000000E+00 0.  1.
         12    1    3    3    0    0  0.13093970879E+01  0.54696228753E+02  0.44896077146E+03  0.45228217550E+03  0.00000000000E+00 0. -1.
        -13    1    4    4    0    0  0.12359711324E+03 -0.38242676447E+01  0.12482548904E+03  0.17570507716E+03  0.00000000000E+00 0.  1.
         13    1    4    4    0    0 -0.24349613147E+01  0.30709433536E+02  0.31349879348E+02  0.43952397885E+02  0.00000000000E+00 0. -1.
         21    1    1    2  503  501 -0.16458748684E+02  0.20656466199E+02  0.41248775486E+01  0.26731902642E+02  0.00000000000E+00 0.  1.
          1    1    1    2  501    0 -0.81557159259E+02 -0.10560500920E+03  0.42549931068E+02  0.14005172197E+03  0.00000000000E+00 0. -1.
<scales pt_clust_5="13000.00000" pt_clust_6="13000.00000" pt_clust_7="13000.00000" pt_clust_8="13000.00000" pt_clust_9="26.41174" pt_clust_10="13000.00000"></scales>
<clustering>
<clus scale="   26.412">  2  9  1 -1</clus>
<clus scale="   80.079">  5  6 -1 -1</clus>
<clus scale="   91.954">  7  8 -1 -1</clus>
<clus scale="  102.544">  1  5  2 -1</clus>
<clus scale="  123.508">  7 10 -1 -1</clus>
<clus scale="   26.412">  2  5  1 -1</clus>
</clustering>
</event>
<event>
10    4  0.2866397E-005  0.5303891E+03  0.7546771E-02  0.1014685E+00
         21   -1    0    0  503  502  0.00000000000E+00  0.00000000000E+00  0.21602226103E+03  0.21602226103E+03  0.00000000000E+00 0. -1.
          2   -1    0    0  502    0 -0.00000000000E+00 -0.00000000000E+00 -0.14268878961E+04  0.14268878961E+04  0.00000000000E+00 0. -1.
         24    2    1    2    0    0  0.37005196346E+03 -0.15082255176E+03 -0.79012604157E+03  0.88893197893E+03  0.78835295446E+02 0.  0.
         23    2    1    2    0    0 -0.88596687412E+01 -0.42334102407E+02 -0.12728580287E+03  0.16263359977E+03  0.91527822030E+02 0.  0.
        -11    1    3    3    0    0  0.23590547299E+03 -0.85230399893E+02 -0.57211727461E+03  0.62468695293E+03  0.00000000000E+00 0.  1.
         12    1    3    3    0    0  0.13414649047E+03 -0.65592151869E+02 -0.21800876696E+03  0.26424502600E+03  0.00000000000E+00 0. -1.
        -11    1    4    4    0    0  0.30030201240E+01 -0.22518289531E+02 -0.13604828158E+03  0.13793196298E+03  0.00000000000E+00 0. -1.
         11    1    4    4    0    0 -0.11862688865E+02 -0.19815812876E+02  0.87624787019E+01  0.24701636789E+02  0.00000000000E+00 0.  1.
         21    1    1    2  503  501 -0.34506604222E+02 -0.79234329676E+02 -0.32516610225E+02  0.92336962667E+02  0.00000000000E+00 0. -1.
          1    1    1    2  501    0 -0.32668569050E+03  0.27239098384E+03 -0.26093718037E+03  0.49900761573E+03  0.00000000000E+00 0. -1.
<scales pt_clust_5="13000.00000" pt_clust_6="13000.00000" pt_clust_7="13000.00000" pt_clust_8="13000.00000" pt_clust_9="86.42213" pt_clust_10="13000.00000"></scales>
<clustering>
<clus scale="   78.835">  5  6 -1 -1</clus>
<clus scale="   86.422">  1  9  2 -1</clus>
<clus scale="   91.528">  7  8 -1 -1</clus>
<clus scale="  407.422">  2  5  1 -1</clus>
<clus scale="  147.932">  7 10 -1 -1</clus>
<clus scale="   86.422">  1  5  2 -1</clus>
</clustering>
</event>
<event>
10    4  0.2866397E-005  0.2327880E+03  0.7546771E-02  0.1166990E+00
         21   -1    0    0  501  502  0.00000000000E+00  0.00000000000E+00  0.25431474514E+03  0.25431474514E+03  0.00000000000E+00 0.  1.
          4   -1    0    0  503    0 -0.00000000000E+00 -0.00000000000E+00 -0.53007659944E+03  0.53007659944E+03  0.00000000000E+00 0. -1.
         24    2    1    2    0    0 -0.10646874956E+02  0.10625174946E+02 -0.83666645886E+01  0.83037489713E+02  0.81234065099E+02 0.  0.
         23    2    1    2    0    0 -0.52433379203E+02 -0.39298782741E+02 -0.96469227647E+02  0.14822857473E+03  0.91497239867E+02 0.  0.
        -11    1    3    3    0    0  0.24254623624E+02  0.29187030417E+02 -0.18514825599E+02  0.42225209042E+02  0.00000000000E+00 0.  1.
         12    1    3    3    0    0 -0.34901498580E+02 -0.18561855471E+02  0.10148161010E+02  0.40812280671E+02  0.00000000000E+00 0. -1.
        -13    1    4    4    0    0  0.61086481523E+01 -0.52192429787E+02 -0.47199710966E+02  0.70634113746E+02  0.00000000000E+00 0.  1.
         13    1    4    4    0    0 -0.58542027356E+02  0.12893647046E+02 -0.49269516680E+02  0.77594460981E+02  0.00000000000E+00 0. -1.
         21    1    1    2  503  502  0.54774075980E+02 -0.44081710326E+02  0.18073067230E+03  0.19392517241E+03  0.00000000000E+00 0.  1.
          3    1    1    2  501    0  0.83061781790E+01  0.72755318121E+02 -0.35165663436E+03  0.35920010774E+03  0.00000000000E+00 0. -1.
<scales pt_clust_5="13000.00000" pt_clust_6="13000.00000" pt_clust_7="13000.00000" pt_clust_8="13000.00000" pt_clust_9="70.30929" pt_clust_10="13000.00000"></scales>
<clustering>
<clus scale="   70.309">  1  9  2 -1</clus>
<clus scale="   81.234">  5  6 -1 -1</clus>
<clus scale="   84.786">  2  5  1 -1</clus>
<clus scale="   91.497">  7  8 -1 -1</clus>
<clus scale="   65.487">  7 10 -1 -1</clus>
<clus scale="   70.309">  1  5  2 -1</clus>
</clustering>
</event>
<event>
10    4  0.2866397E-005  0.5028046E+03  0.7546771E-02  0.1069711E+00
         21   -1    0    0  503  502  0.00000000000E+00  0.00000000000E+00  0.19118240737E+03  0.19118240737E+03  0.00000000000E+00 0. -1.
          2   -1    0    0  502    0 -0.00000000000E+00 -0.00000000000E+00 -0.15183739018E+04  0.15183739018E+04  0.00000000000E+00 0. -1.
         24    2    1    2    0    0  0.10671133147E+02 -0.42619080843E+02 -0.99389417432E+02  0.13565194383E+03  0.81196886835E+02 0.  0.
         23    2    1    2    0    0  0.80034563072E+02 -0.18820592331E+03 -0.54404636528E+03  0.58815215851E+03  0.90052835224E+02 0.  0.
        -11    1    3    3    0    0  0.30119994775E+01 -0.64188994079E+02 -0.90726211174E+02  0.11117798566E+03  0.00000000000E+00 0.  1.
         12    1    3    3    0    0  0.76591336697E+01  0.21569913236E+02 -0.86632062583E+01  0.24473958165E+02  0.00000000000E+00 0. -1.
        -11    1    4    4    0    0  0.93616762979E+01 -0.11312156967E+03 -0.35643104925E+03  0.37406847418E+03  0.00000000000E+00 0.  1.
         11    1    4    4    0    0  0.70672886775E+02 -0.75084353644E+02 -0.18761531603E+03  0.21408368433E+03  0.00000000000E+00 0. -1.
         21    1    1    2  503  501  0.14542529723E+02 -0.29489902975E+02  0.12520321112E+03  0.12944876833E+03  0.00000000000E+00 0. -1.
          1    1    1    2  501    0 -0.10524822594E+03  0.26031490713E+03 -0.80895892284E+03  0.85630343849E+03  0.00000000000E+00 0. -1.
<scales pt_clust_5="13000.00000" pt_clust_6="13000.00000" pt_clust_7="13000.00000" pt_clust_8="13000.00000" pt_clust_9="32.88069" pt_clust_10="13000.00000"></scales>
<clustering>
<clus scale="   32.881">  1  9  2 -1</clus>
<clus scale="   81.197">  5  6 -1 -1</clus>
<clus scale="   90.053">  7  8 -1 -1</clus>
<clus scale="   97.017">  2  5  1 -1</clus>
<clus scale="  239.539">  7 10 -1 -1</clus>
<clus scale="   32.881">  1  5  2 -1</clus>
</clustering>
</event>
<event>
10    4  0.2866397E-005  0.2157160E+03  0.7546771E-02  0.1149004E+00
          4   -1    0    0  503    0 -0.00000000000E+00  0.00000000000E+00  0.44080016371E+03  0.44080016371E+03  0.00000000000E+00 0. -1.
         21   -1    0    0  501  502  0.00000000000E+00 -0.00000000000E+00 -0.16969376000E+03  0.16969376000E+03  0.00000000000E+00 0. -1.
         24    2    1    2    0    0 -0.96557833927E+02  0.94575374581E+02  0.26295023698E+03  0.30672339489E+03  0.81660866263E+02 0.  0.
         23    2    1    2    0    0  0.32566744132E+02 -0.21997768350E+02  0.65901699045E+01  0.99497112650E+02  0.91168801959E+02 0.  0.
        -13    1    3    3    0    0 -0.22062504560E+02 -0.61538517012E+01  0.11143433095E+02  0.25471554711E+02  0.00000000000E+00 0.  1.
         14    1    3    3    0    0 -0.74495329367E+02  0.10072922628E+03  0.25180680388E+03  0.28125184018E+03  0.00000000000E+00 0. -1.
        -13    1    4    4    0    0  0.42983958647E+02  0.14833878031E+02  0.30142535948E+02  0.54554899980E+02  0.00000000000E+00 0.  1.
         13    1    4    4    0    0 -0.10417214515E+02 -0.36831646382E+02 -0.23552366044E+02  0.44942212670E+02  0.00000000000E+00 0. -1.
         21    1    1    2  503  502  0.16086432102E+02  0.53327830780E+02 -0.33596674825E+02  0.65048961504E+02  0.00000000000E+00 0. -1.
          3    1    1    2  501    0  0.47904657693E+02 -0.12590543701E+03  0.35162671661E+02  0.13922445466E+03  0.00000000000E+00 0. -1.
<scales pt_clust_5="13000.00000" pt_clust_6="13000.00000" pt_clust_7="13000.00000" pt_clust_8="13000.00000" pt_clust_9="55.70126" pt_clust_10="13000.00000"></scales>
<clustering>
<clus scale="   55.701">  2  9  1 -1</clus>
<clus scale="   81.661">  5  6 -1 -1</clus>
<clus scale="   91.169">  7  8 -1 -1</clus>
<clus scale="  116.569">  7 10 -1 -1</clus>
<clus scale="  162.198">  1  5  2 -1</clus>
<clus scale="   55.701">  2  5  1 -1</clus>
</clustering>
</event>
<event>
10    4  0.2866397E-005  0.2290660E+03  0.7546771E-02  0.1169628E+00
          2   -1    0    0  503    0 -0.00000000000E+00  0.00000000000E+00  0.66357321496E+03  0.66357321496E+03  0.00000000000E+00 0. -1.
         21   -1    0    0  501  502  0.00000000000E+00 -0.00000000000E+00 -0.25648366073E+03  0.25648366073E+03  0.00000000000E+00 0. -1.
         24    2    1    2    0    0  0.22795369855E+02  0.16780106740E+02  0.20544320258E+03  0.22186223087E+03  0.78833616765E+02 0.  0.
         23    2    1    2    0    0  0.18227900963E+02  0.82989863749E+02  0.26606520354E+03  0.29390388346E+03  0.91483475662E+02 0.  0.
        -11    1    3    3    0    0  0.43090926918E+02  0.27788594917E+02  0.85331495735E+02  0.99551484944E+02  0.00000000000E+00 0.  1.
         12    1    3    3    0    0 -0.20295557063E+02 -0.11008488177E+02  0.12011170685E+03  0.12231074593E+03  0.00000000000E+00 0. -1.
        -13    1    4    4    0    0  0.99918342452E+01 -0.19168600567E+02  0.35136499952E+02  0.41253431714E+02  0.00000000000E+00 0.  1.
         13    1    4    4    0    0  0.82360667176E+01  0.10215846432E+03  0.23092870358E+03  0.25265045174E+03  0.00000000000E+00 0. -1.
         21    1    1    2  503  502 -0.20131531924E+02 -0.18447298597E+03 -0.18063814390E+03  0.25897046195E+03  0.00000000000E+00 0. -1.
          1    1    1    2  501    0 -0.20891738894E+02  0.84703015486E+02  0.11621929201E+03  0.14532029942E+03  0.00000000000E+00 0. -1.
<scales pt_clust_5="13000.00000" pt_clust_6="13000.00000" pt_clust_7="13000.00000" pt_clust_8="13000.00000" pt_clust_9="183.90978" pt_clust_10="13000.00000"></scales>
<clustering>
<clus scale="   78.834">  5  6 -1 -1</clus>
<clus scale="   83.761">  1  5  2 -1</clus>
<clus scale="   91.483">  7  8 -1 -1</clus>
<clus scale="   90.709">  7 10 -1 -1</clus>
<clus scale="  183.910">  2  9  1 -1</clus>
<clus scale="  183.910">  2  5  1 -1</clus>
</clustering>
</event>
<event>
10    4  0.2866397E-005  0.1487526E+03  0.7546771E-02  0.1225639E+00
         21   -1    0    0  503  502  0.00000000000E+00  0.00000000000E+00  0.12969980290E+03  0.12969980290E+03  0.00000000000E+00 0.  1.
          2   -1    0    0  502    0 -0.00000000000E+00 -0.00000000000E+00 -0.18272524306E+03  0.18272524306E+03  0.00000000000E+00 0. -1.
         24    2    1    2    0    0  0.92592330752E+01 -0.37299620482E+02 -0.88797047798E+02  0.12649632187E+03  0.81482566617E+02 0.  0.
         23    2    1    2    0    0  0.39633646068E+02  0.21523778807E+02  0.55047407372E+02  0.11714510463E+03  0.93051918444E+02 0.  0.
        -11    1    3    3    0    0  0.19091450739E+02 -0.42007148094E+02 -0.10044907199E+03  0.11054003821E+03  0.00000000000E+00 0.  1.
         12    1    3    3    0    0 -0.98322176638E+01  0.47075276123E+01  0.11652024194E+02  0.15956283660E+02  0.00000000000E+00 0. -1.
        -11    1    4    4    0    0  0.57963573144E+02  0.43730940723E+02  0.49347552650E+02  0.87791525449E+02  0.00000000000E+00 0. -1.
         11    1    4    4    0    0 -0.18329927076E+02 -0.22207161916E+02  0.56998547221E+01  0.29353579183E+02  0.00000000000E+00 0.  1.
         21    1    1    2  503  501 -0.30463144617E+02 -0.56359228462E+01  0.51892934731E+01  0.31411710762E+02  0.00000000000E+00 0.  1.
          1    1    1    2  501    0 -0.18429734526E+02  0.21411764521E+02 -0.24465093210E+02  0.37371908707E+02  0.00000000000E+00 0. -1.
<scales pt_clust_5="13000.00000" pt_clust_6="13000.00000" pt_clust_7="13000.00000" pt_clust_8="13000.00000" pt_clust_9="30.98010" pt_clust_10="13000.00000"></scales>
<clustering>
<clus scale="   30.980">  1  9  2 -1</clus>
<clus scale="   81.483">  5  6 -1 -1</clus>
<clus scale="   90.109">  2  5  1 -1</clus>
<clus scale="   93.052">  7  8 -1 -1</clus>
<clus scale="   18.577">  7 10 -1 -1</clus>
<clus scale="   30.980">  1  5  2 -1</clus>
</clustering>
</event>
<event>
10    4  0.2866397E-005  0.1738541E+03  0.7546771E-02  0.1213875E+00
          2   -1    0    0  503    0 -0.00000000000E+00  0.00000000000E+00  0.48780583359E+03  0.48780583359E+03  0.00000000000E+00 0. -1.
         21   -1    0    0  501  502  0.00000000000E+00 -0.00000000000E+00 -0.20418442009E+03  0.20418442009E+03  0.00000000000E+00 0. -1.
         24    2    1    2    0    0  0.35528540921E+02  0.62934992107E+01  0.13216728137E+03  0.15362024088E+03  0.69491746208E+02 0.  0.
         23    2    1    2    0    0 -0.29771391071E+02 -0.13087457687E+02  0.28023069396E+03  0.29656833696E+03  0.91465399881E+02 0.  0.
        -13    1    3    3    0    0  0.37701332189E+02  0.33368017051E+02  0.95862744997E+02  0.10827964208E+03  0.00000000000E+00 0.  1.
         14    1    3    3    0    0 -0.21727912687E+01 -0.27074517841E+02  0.36304536370E+02  0.45340598797E+02  0.00000000000E+00 0. -1.
        -13    1    4    4    0    0 -0.10512693773E+02  0.28962452533E+02  0.33397047408E+02  0.45439004860E+02  0.00000000000E+00 0.  1.
         13    1    4    4    0    0 -0.19258697298E+02 -0.42049910220E+02  0.24683364655E+03  0.25112933210E+03  0.00000000000E+00 0. -1.
         21    1    1    2  503  502 -0.59632678187E+02  0.15060797732E+02 -0.16517840863E+03  0.17625773916E+03  0.00000000000E+00 0. -1.
          1    1    1    2  501    0  0.53875528337E+02 -0.82668392558E+01  0.36401846811E+02  0.65543936685E+02  0.00000000000E+00 0. -1.
<scales pt_clust_5="13000.00000" pt_clust_6="13000.00000" pt_clust_7="13000.00000" pt_clust_8="13000.00000" pt_clust_9="61.50515" pt_clust_10="13000.00000"></scales>
<clustering>
<clus scale="   61.505">  2  9  1 -1</clus>
<clus scale="   69.492">  5  6 -1 -1</clus>
<clus scale="   72.265">  1  5  2 -1</clus>
<clus scale="   91.465">  7  8 -1 -1</clus>
<clus scale="   29.254">  7 10 -1 -1</clus>
<clus scale="   61.505">  2  5  1 -1</clus>
</clustering>
</event>
<event>
10    4  0.2866397E-005  0.3686415E+03  0.7546771E-02  0.1103392E+00
         21   -1    0    0  503  502  0.00000000000E+00  0.00000000000E+00  0.78497751000E+02  0.78497751000E+02  0.00000000000E+00 0. -1.
          2   -1    0    0  502    0 -0.00000000000E+00 -0.00000000000E+00 -0.83102094995E+03  0.83102094995E+03  0.00000000000E+00 0. -1.
         24    2    1    2    0    0 -0.46547462478E+02  0.36316637886E+02 -0.14508122445E+03  0.17592619865E+03  0.80099321063E+02 0.  0.
         23    2    1    2    0    0  0.69338390266E+02 -0.18877527516E+03 -0.22213433177E+03  0.31180906594E+03  0.86239871156E+02 0.  0.
        -13    1    3    3    0    0  0.15126787873E+02  0.23905487247E+02 -0.16423741809E+02  0.32711333309E+02  0.00000000000E+00 0.  1.
         14    1    3    3    0    0 -0.61674250351E+02  0.12411150639E+02 -0.12865748264E+03  0.14321486535E+03  0.00000000000E+00 0. -1.
        -11    1    4    4    0    0  0.28802079909E+02 -0.15591482130E+03 -0.12637652499E+03  0.20275605386E+03  0.00000000000E+00 0. -1.
         11    1    4    4    0    0  0.40536310357E+02 -0.32860453860E+02 -0.95757806779E+02  0.10905301208E+03  0.00000000000E+00 0.  1.
         21    1    1    2  503  501  0.20806161318E+02  0.34030443988E+02 -0.53090954658E+02  0.66404946603E+02  0.00000000000E+00 0. -1.
          1    1    1    2  501    0 -0.43597089106E+02  0.11842819328E+03 -0.33221668808E+03  0.35537848976E+03  0.00000000000E+00 0. -1.
<scales pt_clust_5="13000.00000" pt_clust_6="13000.00000" pt_clust_7="13000.00000" pt_clust_8="13000.00000" pt_clust_9="39.88693" pt_clust_10="13000.00000"></scales>
<clustering>
<clus scale="   39.887">  1  9  2 -1</clus>
<clus scale="   80.099">  5  6 -1 -1</clus>
<clus scale="   86.240">  7  8 -1 -1</clus>
<clus scale="  100.447">  2  5  1 -1</clus>
<clus scale="  163.000">  7 10 -1 -1</clus>
<clus scale="   39.887">  1  5  2 -1</clus>
</clustering>
</event>
<event>
10    4  0.2866397E-005  0.3174588E+03  0.7546771E-02  0.1124384E+00
         21   -1    0    0  503  502  0.00000000000E+00  0.00000000000E+00  0.74890083755E+02  0.74890083755E+02  0.00000000000E+00 0. -1.
          2   -1    0    0  502    0 -0.00000000000E+00 -0.00000000000E+00 -0.13820375694E+04  0.13820375694E+04  0.00000000000E+00 0. -1.
         24    2    1    2    0    0  0.54823667401E+02  0.48713266960E+01 -0.40886898128E+03  0.42088013796E+03  0.83287948402E+02 0.  0.
         23    2    1    2    0    0 -0.32714992662E+02 -0.12352137001E+03 -0.45753755961E+03  0.48454049752E+03  0.95451954853E+02 0.  0.
        -11    1    3    3    0    0  0.50846966855E+02 -0.32249259180E+02 -0.29380213793E+03  0.29990852774E+03  0.00000000000E+00 0.  1.
         12    1    3    3    0    0  0.39767005467E+01  0.37120585876E+02 -0.11506684335E+03  0.12097161023E+03  0.00000000000E+00 0. -1.
        -13    1    4    4    0    0 -0.15407323044E+02 -0.45954919509E+02 -0.51196758997E+02  0.70500697601E+02  0.00000000000E+00 0.  1.
         13    1    4    4    0    0 -0.17307669618E+02 -0.77566450504E+02 -0.40634080061E+03  0.41403979992E+03  0.00000000000E+00 0. -1.
         21    1    1    2  503  501 -0.80622442489E+02 -0.27284579298E+02 -0.16666118328E+01  0.85130512129E+02  0.00000000000E+00 0. -1.
          1    1    1    2  501    0  0.58513767749E+02  0.14593462262E+03 -0.43907433294E+03  0.46637650557E+03  0.00000000000E+00 0. -1.
<scales pt_clust_5="13000.00000" pt_clust_6="13000.00000" pt_clust_7="13000.00000" pt_clust_8="13000.00000" pt_clust_9="85.11420" pt_clust_10="13000.00000"></scales>
<clustering>
<clus scale="   83.288">  5  6 -1 -1</clus>
<clus scale="   85.114">  1  9  2 -1</clus>
<clus scale="   92.491">  2  5  1 -1</clus>
<clus scale="   95.452">  7  8 -1 -1</clus>
<clus scale="  140.706">  7 10 -1 -1</clus>
<clus scale="   85.114">  1  5  2 -1</clus>
</clustering>
</event>
<event>
10    4  0.2866397E-005  0.1816942E+03  0.7546771E-02  0.1186505E+00
          2   -1    0    0  502    0 -0.00000000000E+00  0.00000000000E+00  0.59805428499E+03  0.59805428499E+03  0.00000000000E+00 0. -1.
         21   -1    0    0  503  502  0.00000000000E+00 -0.00000000000E+00 -0.82949788524E+02  0.82949788524E+02  0.00000000000E+00 0.  1.
         24    2    1    2    0    0  0.93039708736E+01  0.73191577914E+02  0.96974504441E+02  0.14567144501E+03  0.79828218241E+02 0.  0.
         23    2    1    2    0    0  0.31191590810E+02 -0.49405483712E+02  0.19748752526E+03  0.22496622862E+03  0.90524384726E+02 0.  0.
        -13    1    3    3    0    0  0.34802070404E+02  0.27899037275E+02  0.12218744821E+02  0.46247574102E+02  0.00000000000E+00 0.  1.
         14    1    3    3    0    0 -0.25498099531E+02  0.45292540639E+02  0.84755759620E+02  0.99423870906E+02  0.00000000000E+00 0. -1.
        -11    1    4    4    0    0  0.16585671352E+02  0.22739491343E+02  0.25868490143E+02  0.38227578304E+02  0.00000000000E+00 0.  1.
         11    1    4    4    0    0  0.14605919458E+02 -0.72144975055E+02  0.17161903511E+03  0.18673865032E+03  0.00000000000E+00 0. -1.
         21    1    1    2  503  501  0.16080371675E+02  0.12283166698E+02 -0.38060003688E+02  0.43104737768E+02  0.00000000000E+00 0.  1.
          1    1    1    2  501    0 -0.56575933359E+02 -0.36069260900E+02  0.25870247045E+03  0.26726166212E+03  0.00000000000E+00 0. -1.
<scales pt_clust_5="13000.00000" pt_clust_6="13000.00000" pt_clust_7="13000.00000" pt_clust_8="13000.00000" pt_clust_9="20.23498" pt_clust_10="13000.00000"></scales>
<clustering>
<clus scale="   20.235">  2  9  1 -1</clus>
<clus scale="   79.828">  5  6 -1 -1</clus>
<clus scale="   90.524">  7  8 -1 -1</clus>
<clus scale="   65.059">  7 10 -1 -1</clus>
<clus scale="  114.702">  1  5  2 -1</clus>
<clus scale="   20.235">  2  5  1 -1</clus>
</clustering>
</event>
<event>
10    4  0.2866397E-005  0.4318472E+03  0.7546771E-02  0.1084907E+00
         21   -1    0    0  503  502  0.00000000000E+00  0.00000000000E+00  0.14662223731E+03  0.14662223731E+03  0.00000000000E+00 0. -1.
          2   -1    0    0  502    0 -0.00000000000E+00 -0.00000000000E+00 -0.66445143405E+03  0.66445143405E+03  0.00000000000E+00 0. -1.
         24    2    1    2    0    0  0.55813031149E+02  0.20174400755E+02 -0.22819142808E+03  0.24941499117E+03  0.81329017452E+02 0.  0.
         23    2    1    2    0    0  0.80694541718E+02  0.15769795067E+03 -0.20521774861E+03  0.28475609810E+03  0.87128975378E+02 0.  0.
        -11    1    3    3    0    0  0.24044422580E+02  0.50233894597E+02 -0.14694832532E+03  0.15714766539E+03  0.00000000000E+00 0.  1.
         12    1    3    3    0    0  0.31768608569E+02 -0.30059493842E+02 -0.81243102758E+02  0.92267325778E+02  0.00000000000E+00 0. -1.
        -11    1    4    4    0    0  0.31665129467E+02  0.14196913815E+03 -0.14275185327E+03  0.20380384742E+03  0.00000000000E+00 0. -1.
         11    1    4    4    0    0  0.49029412251E+02  0.15728812520E+02 -0.62465895347E+02  0.80952250682E+02  0.00000000000E+00 0.  1.
         21    1    1    2  503  501  0.23585025533E+02 -0.20572401879E+02  0.10789117932E+02  0.33104111741E+02  0.00000000000E+00 0. -1.
          1    1    1    2  501    0 -0.16009259840E+03 -0.15729994955E+03 -0.95209137983E+02  0.24379847035E+03  0.00000000000E+00 0. -1.
<scales pt_clust_5="13000.00000" pt_clust_6="13000.00000" pt_clust_7="13000.00000" pt_clust_8="13000.00000" pt_clust_9="31.29660" pt_clust_10="13000.00000"></scales>
<clustering>
<clus scale="   31.297">  1  9  2 -1</clus>
<clus scale="   81.329">  5  6 -1 -1</clus>
<clus scale="   87.129">  7  8 -1 -1</clus>
<clus scale="  101.474">  2  5  1 -1</clus>
<clus scale="  202.703">  7 10 -1 -1</clus>
<clus scale="   31.297">  1  5  2 -1</clus>
</clustering>
</event>
<event>
10    4  0.2866397E-005  0.3573512E+03  0.7546771E-02  0.1113835E+00
         21   -1    0    0  501  502  0.00000000000E+00  0.00000000000E+00  0.82896330701E+02  0.82896330701E+02  0.00000000000E+00 0.  1.
          2   -1    0    0  503    0 -0.00000000000E+00 -0.00000000000E+00 -0.75141771791E+03  0.75141771791E+03  0.00000000000E+00 0. -1.
         24    2    1    2    0    0  0.78774478467E+01  0.22032561030E+02 -0.84123636284E+02  0.11959094211E+03  0.81717313490E+02 0.  0.
         23    2    1    2    0    0 -0.20070303806E+02 -0.16592576833E+03 -0.24700260353E+03  0.31160355898E+03  0.90290166315E+02 0.  0.
        -13    1    3    3    0    0  0.18994517373E+02  0.12106261652E+02  0.97481411719E+01  0.24543421068E+02  0.00000000000E+00 0.  1.
         14    1    3    3    0    0 -0.11117069527E+02  0.99262993781E+01 -0.93871777456E+02  0.95047521045E+02  0.00000000000E+00 0. -1.
        -13    1    4    4    0    0 -0.35650073239E+01 -0.35888277336E+02 -0.13325904880E+03  0.13805307608E+03  0.00000000000E+00 0. -1.
         13    1    4    4    0    0 -0.16505296482E+02 -0.13003749099E+03 -0.11374355472E+03  0.17355048290E+03  0.00000000000E+00 0.  1.
         21    1    1    2  503  502  0.13203628354E+02 -0.15026835942E+02  0.90551500042E+01  0.21957626050E+02  0.00000000000E+00 0. -1.
          1    1    1    2  501    0 -0.10107723947E+01  0.15892004324E+03 -0.34645029740E+03  0.38116192146E+03  0.00000000000E+00 0. -1.
<scales pt_clust_5="13000.00000" pt_clust_6="13000.00000" pt_clust_7="13000.00000" pt_clust_8="13000.00000" pt_clust_9="20.00354" pt_clust_10="13000.00000"></scales>
<clustering>
<clus scale="   20.004">  1  9  2 -1</clus>
<clus scale="   81.717">  5  6 -1 -1</clus>
<clus scale="   84.460">  2  5  1 -1</clus>
<clus scale="   90.290">  7  8 -1 -1</clus>
<clus scale="  164.985">  7 10 -1 -1</clus>
<clus scale="   20.004">  1  5  2 -1</clus>
</clustering>
</event>
<event>
10    4  0.2866397E-005  0.1869241E+03  0.7546771E-02  0.1174314E+00
         21   -1    0    0  501  502  0.00000000000E+00  0.00000000000E+00  0.55423826323E+03  0.55423826323E+03  0.00000000000E+00 0. -1.
          4   -1    0    0  503    0 -0.00000000000E+00 -0.00000000000E+00 -0.21513233518E+03  0.21513233518E+03  0.00000000000E+00 0. -1.
         24    2    1    2    0    0  0.97443714317E+02  0.53620577551E+02 -0.14288822202E+03  0.19772224349E+03  0.79414090589E+02 0.  0.
         23    2    1    2    0    0 -0.77278245495E+02 -0.30851841415E+02  0.11948077028E+03  0.17352936419E+03  0.94408804804E+02 0.  0.
        -13    1    3    3    0    0  0.47919906582E+02  0.60843907809E+01 -0.11764800486E+02  0.49716675155E+02  0.00000000000E+00 0.  1.
         14    1    3    3    0    0  0.49523807735E+02  0.47536186770E+02 -0.13112342153E+03  0.14800556834E+03  0.00000000000E+00 0. -1.
        -11    1    4    4    0    0 -0.87784398913E+02  0.21230594602E+01  0.10253114695E+03  0.13499349676E+03  0.00000000000E+00 0.  1.
         11    1    4    4    0    0  0.10506153418E+02 -0.32974900875E+02  0.16949623334E+02  0.38535867430E+02  0.00000000000E+00 0. -1.
         21    1    1    2  503  502 -0.53045371938E+01  0.55666017563E+02  0.27086930673E+03  0.27658095552E+03  0.00000000000E+00 0. -1.
          3    1    1    2  501    0 -0.14860931627E+02 -0.78434753699E+02  0.91644073052E+02  0.12153803521E+03  0.00000000000E+00 0. -1.
<scales pt_clust_5="13000.00000" pt_clust_6="13000.00000" pt_clust_7="13000.00000" pt_clust_8="13000.00000" pt_clust_9="55.91819" pt_clust_10="13000.00000"></scales>
<clustering>
<clus scale="   55.918">  1  9  2 -1</clus>
<clus scale="   79.414">  5  6 -1 -1</clus>
<clus scale="   94.409">  7  8 -1 -1</clus>
<clus scale="   59.717">  7 10 -1 -1</clus>
<clus scale="  138.526">  2  5  1 -1</clus>
<clus scale="   55.918">  1  5  2 -1</clus>
</clustering>
</event>
<event>
10    4  0.2866397E-005  0.1897978E+03  0.7546771E-02  0.1190680E+00
          2   -1    0    0  503    0 -0.00000000000E+00  0.00000000000E+00  0.84138759197E+02  0.84138759197E+02  0.00000000000E+00 0. -1.
         21   -1    0    0  501  502  0.00000000000E+00 -0.00000000000E+00 -0.68353489056E+03  0.68353489056E+03  0.00000000000E+00 0.  1.
         24    2    1    2    0    0  0.57382907531E+02  0.48802872533E+02 -0.17011067612E+03  0.20159722265E+03  0.77648435963E+02 0.  0.
         23    2    1    2    0    0 -0.49513956904E+02  0.33124007207E+02 -0.53830188058E+02  0.12270814397E+03  0.92794222172E+02 0.  0.
        -13    1    3    3    0    0  0.74313373005E+02  0.48067269697E+02 -0.12300530665E+03  0.15153628373E+03  0.00000000000E+00 0.  1.
         14    1    3    3    0    0 -0.16930465475E+02  0.73560283640E+00 -0.47105369469E+02  0.50060938920E+02  0.00000000000E+00 0. -1.
        -13    1    4    4    0    0 -0.53687422789E+02 -0.17084282191E+02 -0.43740506131E+02  0.71326320110E+02  0.00000000000E+00 0.  1.
         13    1    4    4    0    0  0.41734658859E+01  0.50208289398E+02 -0.10089681927E+02  0.51381823860E+02  0.00000000000E+00 0. -1.
         21    1    1    2  503  502 -0.44985852448E+02 -0.18614649536E+02 -0.36617094506E+03  0.36939327701E+03  0.00000000000E+00 0.  1.
          1    1    1    2  501    0  0.37116901821E+02 -0.63312230205E+02 -0.92843221365E+01  0.73975006129E+02  0.00000000000E+00 0. -1.
<scales pt_clust_5="13000.00000" pt_clust_6="13000.00000" pt_clust_7="13000.00000" pt_clust_8="13000.00000" pt_clust_9="48.68503" pt_clust_10="13000.00000"></scales>
<clustering>
<clus scale="   48.685">  2  9  1 -1</clus>
<clus scale="   77.648">  5  6 -1 -1</clus>
<clus scale="   91.742">  1  5  2 -1</clus>
<clus scale="   92.794">  7  8 -1 -1</clus>
<clus scale="   66.359">  7 10 -1 -1</clus>
<clus scale="   48.685">  2  5  1 -1</clus>
</clustering>
</event>
<event>
10    4  0.2866397E-005  0.4086795E+03  0.7546771E-02  0.1081789E+00
         21   -1    0    0  501  502  0.00000000000E+00  0.00000000000E+00  0.63359137617E+03  0.63359137617E+03  0.00000000000E+00 0. -1.
          2   -1    0    0  503    0 -0.00000000000E+00 -0.00000000000E+00 -0.41676407952E+03  0.41676407952E+03  0.00000000000E+00 0. -1.
         24    2    1    2    0    0 -0.10353411247E+03  0.37814485042E+02 -0.17262057322E+03  0.21981724340E+03  0.79828005577E+02 0.  0.
         23    2    1    2    0    0  0.99332364042E+02  0.12361434236E+03  0.66249878687E+02  0.19201029307E+03  0.85624073916E+02 0.  0.
        -11    1    3    3    0    0 -0.39333989066E+02  0.91567566625E+01 -0.84982906707E+01  0.41270205146E+02  0.00000000000E+00 0.  1.
         12    1    3    3    0    0 -0.64200123400E+02  0.28657728380E+02 -0.16412228255E+03  0.17854703826E+03  0.00000000000E+00 0. -1.
        -13    1    4    4    0    0 -0.53018011450E+01  0.53556787176E+02  0.13500456911E+02  0.55486042252E+02  0.00000000000E+00 0.  1.
         13    1    4    4    0    0  0.10463416519E+03  0.70057555188E+02  0.52749421776E+02  0.13652425082E+03  0.00000000000E+00 0. -1.
         21    1    1    2  503  502  0.73092808100E+02  0.83453901377E+01  0.42336908828E+03  0.42971338011E+03  0.00000000000E+00 0. -1.
          1    1    1    2  501    0 -0.68891059676E+02 -0.16977421754E+03 -0.10017109710E+03  0.20881453910E+03  0.00000000000E+00 0. -1.
<scales pt_clust_5="13000.00000" pt_clust_6="13000.00000" pt_clust_7="13000.00000" pt_clust_8="13000.00000" pt_clust_9="73.56768" pt_clust_10="13000.00000"></scales>
<clustering>
<clus scale="   73.568">  1  9  2 -1</clus>
<clus scale="   79.828">  5  6 -1 -1</clus>
<clus scale="   85.624">  7  8 -1 -1</clus>
<clus scale="  130.150">  2  5  1 -1</clus>
<clus scale="  179.774">  7 10 -1 -1</clus>
<clus scale="   73.568">  1  5  2 -1</clus>
</clustering>
</event>
<event>
10    4  0.2866397E-005  0.2715748E+03  0.7546771E-02  0.1147742E+00
         21   -1    0    0  503  502  0.00000000000E+00  0.00000000000E+00  0.45222011320E+02  0.45222011320E+02  0.00000000000E+00 0.  1.
          2   -1    0    0  502    0 -0.00000000000E+00 -0.00000000000E+00 -0.96442131119E+03  0.96442131119E+03  0.00000000000E+00 0. -1.
         24    2    1    2    0    0  0.28145252357E+02 -0.14733093750E+01 -0.73453086222E+02  0.11116321677E+03  0.78533935441E+02 0.  0.
         23    2    1    2    0    0 -0.10782154401E+03  0.24720471746E+02 -0.28467960864E+03  0.32079618365E+03  0.98138294216E+02 0.  0.
        -11    1    3    3    0    0 -0.12218298185E+02  0.29730342809E+02 -0.32849309105E+02  0.45959299416E+02  0.00000000000E+00 0.  1.
         12    1    3    3    0    0  0.40363550542E+02 -0.31203652184E+02 -0.40603777116E+02  0.65203917352E+02  0.00000000000E+00 0. -1.
        -13    1    4    4    0    0 -0.61987313037E+02 -0.74495450391E+01 -0.24326277338E+03  0.25114676907E+03  0.00000000000E+00 0. -1.
         13    1    4    4    0    0 -0.45834230971E+02  0.32170016786E+02 -0.41416835257E+02  0.69649414580E+02  0.00000000000E+00 0.  1.
         21    1    1    2  503  501 -0.23984592247E+01  0.26901833207E+02 -0.43104057251E+02  0.50866698223E+02  0.00000000000E+00 0. -1.
          1    1    1    2  501    0  0.82074750876E+02 -0.50148995579E+02 -0.51796254776E+03  0.52681722388E+03  0.00000000000E+00 0. -1.
<scales pt_clust_5="13000.00000" pt_clust_6="13000.00000" pt_clust_7="13000.00000" pt_clust_8="13000.00000" pt_clust_9="27.00854" pt_clust_10="13000.00000"></scales>
<clustering>
<clus scale="   27.009">  1  9  2 -1</clus>
<clus scale="   78.534">  5  6 -1 -1</clus>
<clus scale="   83.761">  2  5  1 -1</clus>
<clus scale="   98.138">  7  8 -1 -1</clus>
<clus scale="  106.257">  7 10 -1 -1</clus>
<clus scale="   27.009">  1  5  2 -1</clus>
</clustering>
</event>
<event>
10    4  0.2866397E-005  0.5158725E+03  0.7546771E-02  0.1067174E+00
          2   -1    0    0  502    0 -0.00000000000E+00  0.00000000000E+00  0.31642520956E+03  0.31642520956E+03  0.00000000000E+00 0. -1.
         21   -1    0    0  503  502  0.00000000000E+00 -0.00000000000E+00 -0.40152587939E+03  0.40152587939E+03  0.00000000000E+00 0. -1.
         24    2    1    2    0    0 -0.53395696816E+02 -0.13330989909E+02  0.67927961207E+02  0.11905214400E+03  0.80810824443E+02 0.  0.
         23    2    1    2    0    0  0.24165803656E+03 -0.55543162756E+02 -0.36921721445E+02  0.26429463676E+03  0.83694635076E+02 0.  0.
        -13    1    3    3    0    0 -0.51365561320E+02 -0.43011503199E+01  0.10698112931E+01  0.51556428115E+02  0.00000000000E+00 0.  1.
         14    1    3    3    0    0 -0.20301354968E+01 -0.90298395894E+01  0.66858149914E+02  0.67495715887E+02  0.00000000000E+00 0. -1.
        -11    1    4    4    0    0  0.15326139605E+03 -0.91757964520E+01 -0.54534602251E+02  0.16293334098E+03  0.00000000000E+00 0.  1.
         11    1    4    4    0    0  0.88396640509E+02 -0.46367366304E+02  0.17612880806E+02  0.10136129578E+03  0.00000000000E+00 0. -1.
         21    1    1    2  503  501  0.44216567275E+02 -0.29790706058E+02 -0.51038405218E+02  0.73807247586E+02  0.00000000000E+00 0. -1.
          1    1    1    2  501    0 -0.23247890702E+03  0.98664858723E+02 -0.65068504372E+02  0.26079706060E+03  0.00000000000E+00 0. -1.
<scales pt_clust_5="13000.00000" pt_clust_6="13000.00000" pt_clust_7="13000.00000" pt_clust_8="13000.00000" pt_clust_9="53.31595" pt_clust_10="13000.00000"></scales>
<clustering>
<clus scale="   53.316">  2  9  1 -1</clus>
<clus scale="   80.811">  5  6 -1 -1</clus>
<clus scale="   83.695">  7  8 -1 -1</clus>
<clus scale="   96.329">  1  5  2 -1</clus>
<clus scale="  243.513">  7 10 -1 -1</clus>
<clus scale="   53.316">  2  5  1 -1</clus>
</clustering>
</event>
<event>
10    4  0.2866397E-005  0.2527762E+03  0.7546771E-02  0.1158396E+00
         -1   -1    0    0    0  501 -0.00000000000E+00  0.00000000000E+00  0.54336201414E+03  0.54336201414E+03  0.00000000000E+00 0.  1.
         21   -1    0    0  501  502  0.00000000000E+00 -0.00000000000E+00 -0.21040888241E+03  0.21040888241E+03  0.00000000000E+00 0. -1.
         24    2    1    2    0    0 -0.10069490684E+02 -0.10616183636E+02  0.17773219616E+03  0.19553936956E+03  0.80204822181E+02 0.  0.
         23    2    1    2    0    0 -0.25473123875E+02 -0.55671795490E+02  0.33423547467E+03  0.35134244429E+03  0.89330463864E+02 0.  0.
        -13    1    3    3    0    0 -0.24691257149E+02 -0.27746783249E+02  0.34978674219E+02  0.51020092222E+02  0.00000000000E+00 0.  1.
         14    1    3    3    0    0  0.14621766465E+02  0.17130599612E+02  0.14275352194E+03  0.14451927734E+03  0.00000000000E+00 0. -1.
        -11    1    4    4    0    0  0.22140296158E+02  0.10303563200E+02  0.11329939956E+03  0.11590129451E+03  0.00000000000E+00 0. -1.
         11    1    4    4    0    0 -0.47613420032E+02 -0.65975358690E+02  0.22093607512E+03  0.23544114978E+03  0.00000000000E+00 0.  1.
         21    1    1    2  503  502  0.10616715643E+02  0.32317949641E+02 -0.15437727819E+03  0.15808070262E+03  0.00000000000E+00 0. -1.
         -2    1    1    2    0  503  0.24925898915E+02  0.33970029486E+02 -0.24637260913E+02  0.48808380072E+02  0.00000000000E+00 0.  1.
<scales pt_clust_5="13000.00000" pt_clust_6="13000.00000" pt_clust_7="13000.00000" pt_clust_8="13000.00000" pt_clust_9="34.01712" pt_clust_10="13000.00000"></scales>
<clustering>
<clus scale="   34.017">  2  9  1 -1</clus>
<clus scale="   80.205">  5  6 -1 -1</clus>
<clus scale="   80.810">  1  5  2 -1</clus>
<clus scale="   89.330">  7  8 -1 -1</clus>
<clus scale="   63.646">  7 10 -1 -1</clus>
<clus scale="   34.017">  2  5  1 -1</clus>
</clustering>
</event>
<event>
10    4  0.2866397E-005  0.1501622E+03  0.7546771E-02  0.1210574E+00
          2   -1    0    0  502    0 -0.00000000000E+00  0.00000000000E+00  0.10136483765E+04  0.10136483765E+04  0.00000000000E+00 0. -1.
         21   -1    0    0  503  502  0.00000000000E+00 -0.00000000000E+00 -0.60098732795E+02  0.60098732795E+02  0.00000000000E+00 0.  1.
         24    2    1    2    0    0  0.15548284519E+02  0.99266134505E+02  0.40167980810E+03  0.42166296288E+03  0.79733753318E+02 0.  0.
         23    2    1    2    0    0  0.20468074184E+02 -0.56859615577E+02  0.38854681615E+03  0.40375485159E+03  0.91637295356E+02 0.  0.
        -13    1    3    3    0    0 -0.21855715915E+02  0.14309794285E+02  0.36598440253E+02  0.44965412926E+02  0.00000000000E+00 0.  1.
         14    1    3    3    0    0  0.37404000434E+02  0.84956340220E+02  0.36508136784E+03  0.37669754995E+03  0.00000000000E+00 0. -1.
        -13    1    4    4    0    0  0.29073919194E+02 -0.79195747045E+02  0.27230755635E+03  0.28507659387E+03  0.00000000000E+00 0.  1.
         13    1    4    4    0    0 -0.86058450108E+01  0.22336131468E+02  0.11623925980E+03  0.11867825772E+03  0.00000000000E+00 0. -1.
         21    1    1    2  503  501 -0.16904022170E+02 -0.17712835439E+02 -0.37668465307E+02  0.44926648923E+02  0.00000000000E+00 0.  1.
          1    1    1    2  501    0 -0.19112336533E+02 -0.24693683488E+02  0.20099148473E+03  0.20340264587E+03  0.00000000000E+00 0. -1.
<scales pt_clust_5="13000.00000" pt_clust_6="13000.00000" pt_clust_7="13000.00000" pt_clust_8="13000.00000" pt_clust_9="24.48450" pt_clust_10="13000.00000"></scales>
<clustering>
<clus scale="   24.484">  2  9  1 -1</clus>
<clus scale="   79.734">  5  6 -1 -1</clus>
<clus scale="   91.637">  7  8 -1 -1</clus>
<clus scale="   32.788">  7 10 -1 -1</clus>
<clus scale="  120.308">  1  5  2 -1</clus>
<clus scale="   24.484">  2  5  1 -1</clus>
</clustering>
</event>
<event>
10    4  0.2866397E-005  0.4680215E+03  0.7546771E-02  0.1028913E+00
         21   -1    0    0  503  502  0.00000000000E+00  0.00000000000E+00  0.17633637046E+03  0.17633637046E+03  0.00000000000E+00 0. -1.
          2   -1    0    0  502    0 -0.00000000000E+00 -0.00000000000E+00 -0.26510378585E+04  0.26510378585E+04  0.00000000000E+00 0. -1.
         24    2    1    2    0    0  0.38556077948E+03  0.11464874709E+03 -0.19672765947E+04  0.20096171327E+04  0.81131805451E+02 0.  0.
         23    2    1    2    0    0 -0.21694541130E+03  0.89244334833E+02 -0.30751656888E+03  0.39754795744E+03  0.91913413311E+02 0.  0.
        -13    1    3    3    0    0  0.16442604674E+03  0.75184136049E+02 -0.10340407436E+04  0.10497279832E+04  0.00000000000E+00 0.  1.
         14    1    3    3    0    0  0.22113473273E+03  0.39464611038E+02 -0.93323585111E+03  0.95988914951E+03  0.00000000000E+00 0. -1.
        -13    1    4    4    0    0 -0.15880371362E+03  0.89413337588E+02 -0.27782052039E+03  0.33226135187E+03  0.00000000000E+00 0.  1.
         13    1    4    4    0    0 -0.58141697677E+02 -0.16900275577E+00 -0.29696048491E+02  0.65286605568E+02  0.00000000000E+00 0. -1.
         21    1    1    2  503  501 -0.86787659686E+02 -0.72437440796E+02  0.52066628449E+02  0.12445969027E+03  0.00000000000E+00 0. -1.
          1    1    1    2  501    0 -0.81827708498E+02 -0.13145564112E+03 -0.25197495289E+03  0.29574944860E+03  0.00000000000E+00 0. -1.
<scales pt_clust_5="13000.00000" pt_clust_6="13000.00000" pt_clust_7="13000.00000" pt_clust_8="13000.00000" pt_clust_9="113.04548" pt_clust_10="13000.00000"></scales>
<clustering>
<clus scale="   81.132">  5  6 -1 -1</clus>
<clus scale="   91.913">  7  8 -1 -1</clus>
<clus scale="  113.045">  1  9  2 -1</clus>
<clus scale="  181.736">  7 10 -1 -1</clus>
<clus scale="  386.061">  2  5  1 -1</clus>
<clus scale="  113.045">  1  5  2 -1</clus>
</clustering>
</event>
<event>
10    4  0.2866397E-005  0.1157179E+03  0.7546771E-02  0.1267760E+00
          2   -1    0    0  503    0 -0.00000000000E+00  0.00000000000E+00  0.26203790760E+03  0.26203790760E+03  0.00000000000E+00 0. -1.
         21   -1    0    0  501  502  0.00000000000E+00 -0.00000000000E+00 -0.66673331308E+02  0.66673331308E+02  0.00000000000E+00 0.  1.
         24    2    1    2    0    0 -0.13167759514E+02  0.11553731945E+01  0.37147494017E+02  0.89318231499E+02  0.80144153801E+02 0.  0.
         23    2    1    2    0    0 -0.20615711252E+01  0.74182651540E+01  0.15384751767E+03  0.18048251193E+03  0.94051037661E+02 0.  0.
        -11    1    3    3    0    0 -0.23768270630E+02 -0.15098231994E+02 -0.16245387046E+02  0.32508458874E+02  0.00000000000E+00 0.  1.
         12    1    3    3    0    0  0.10600511116E+02  0.16253605188E+02  0.53392881063E+02  0.56809772625E+02  0.00000000000E+00 0. -1.
        -11    1    4    4    0    0 -0.10604184846E+02  0.48117963186E+02  0.10724669509E+03  0.11802389895E+03  0.00000000000E+00 0.  1.
         11    1    4    4    0    0  0.85426137203E+01 -0.40699698032E+02  0.46600822581E+02  0.62458612971E+02  0.00000000000E+00 0. -1.
         21    1    1    2  503  502  0.60293398833E+01 -0.27521225225E+02 -0.13543711990E+02  0.31260244909E+02  0.00000000000E+00 0.  1.
          1    1    1    2  501    0  0.91999907560E+01  0.18947586877E+02  0.17913276601E+02  0.27650250576E+02  0.00000000000E+00 0. -1.
<scales pt_clust_5="13000.00000" pt_clust_6="13000.00000" pt_clust_7="13000.00000" pt_clust_8="13000.00000" pt_clust_9="28.17394" pt_clust_10="13000.00000"></scales>
<clustering>
<clus scale="   28.174">  2  9  1 -1</clus>
<clus scale="   80.144">  5  6 -1 -1</clus>
<clus scale="   82.112">  1  5  2 -1</clus>
<clus scale="   94.051">  7  8 -1 -1</clus>
<clus scale="   16.915">  7 10 -1 -1</clus>
<clus scale="   28.174">  2  5  1 -1</clus>
</clustering>
</event>
<event>
10    4  0.2866397E-005  0.1716415E+03  0.7546771E-02  0.1210086E+00
          2   -1    0    0  503    0 -0.00000000000E+00  0.00000000000E+00  0.38934987003E+03  0.38934987003E+03  0.00000000000E+00 0. -1.
         21   -1    0    0  501  502  0.00000000000E+00 -0.00000000000E+00 -0.35352082461E+03  0.35352082461E+03  0.00000000000E+00 0.  1.
         24    2    1    2    0    0  0.36297837961E+01 -0.12455902770E+02  0.35697350466E+03  0.36612617382E+03  0.80311688294E+02 0.  0.
         23    2    1    2    0    0 -0.61440727064E+02  0.18037408651E+02 -0.17362283205E+03  0.20973329327E+03  0.98705903801E+02 0.  0.
        -11    1    3    3    0    0 -0.20211537787E+02  0.41918026803E+01  0.23060300180E+02  0.30949231231E+02  0.00000000000E+00 0.  1.
         12    1    3    3    0    0  0.23841321583E+02 -0.16647705450E+02  0.33391320448E+03  0.33517694258E+03  0.00000000000E+00 0. -1.
        -11    1    4    4    0    0 -0.30699396076E+02  0.47953328731E+02 -0.15069943061E+03  0.16109715405E+03  0.00000000000E+00 0.  1.
         11    1    4    4    0    0 -0.30741330988E+02 -0.29915920079E+02 -0.22923401436E+02  0.48636139223E+02  0.00000000000E+00 0. -1.
         21    1    1    2  503  502  0.55472190942E+01 -0.20876803083E+02 -0.25700438272E+02  0.33572683449E+02  0.00000000000E+00 0.  1.
          1    1    1    2  501    0  0.52263724174E+02  0.15295297201E+02 -0.12182118892E+03  0.13343854410E+03  0.00000000000E+00 0. -1.
<scales pt_clust_5="13000.00000" pt_clust_6="13000.00000" pt_clust_7="13000.00000" pt_clust_8="13000.00000" pt_clust_9="21.60122" pt_clust_10="13000.00000"></scales>
<clustering>
<clus scale="   21.601">  2  9  1 -1</clus>
<clus scale="   80.312">  5  6 -1 -1</clus>
<clus scale="   81.402">  1  5  2 -1</clus>
<clus scale="   98.706">  7  8 -1 -1</clus>
<clus scale="   55.597">  7 10 -1 -1</clus>
<clus scale="   21.601">  2  5  1 -1</clus>
</clustering>
</event>
<event>
10    4  0.2866397E-005  0.1752529E+03  0.7546771E-02  0.1203594E+00
          2   -1    0    0  503    0 -0.00000000000E+00  0.00000000000E+00  0.25284998605E+03  0.25284998605E+03  0.00000000000E+00 0. -1.
         21   -1    0    0  501  502  0.00000000000E+00 -0.00000000000E+00 -0.30509353417E+03  0.30509353417E+03  0.00000000000E+00 0.  1.
         24    2    1    2    0    0  0.30947593407E+02  0.23714884604E+02  0.17068334191E+03  0.19139759300E+03  0.77331016495E+02 0.  0.
         23    2    1    2    0    0 -0.10442404020E+02 -0.17357772954E+02  0.25487378722E+02  0.95927043414E+02  0.90233336968E+02 0.  0.
        -11    1    3    3    0    0  0.22397928626E+02  0.51752704657E+02  0.12481922923E+03  0.13696660042E+03  0.00000000000E+00 0.  1.
         12    1    3    3    0    0  0.85496647817E+01 -0.28037820053E+02  0.45864112684E+02  0.54430992582E+02  0.00000000000E+00 0. -1.
        -11    1    4    4    0    0 -0.29196966898E+02 -0.39978027871E+02  0.39538807729E+02  0.63356317011E+02  0.00000000000E+00 0. -1.
         11    1    4    4    0    0  0.18754562878E+02  0.22620254918E+02 -0.14051429007E+02  0.32570726403E+02  0.00000000000E+00 0.  1.
         21    1    1    2  503  502  0.24158501472E+02  0.28760294574E+02 -0.16806586483E+03  0.17221185400E+03  0.00000000000E+00 0.  1.
          1    1    1    2  501    0 -0.44663690859E+02 -0.35117406224E+02 -0.80348403925E+02  0.98407029802E+02  0.00000000000E+00 0. -1.
<scales pt_clust_5="13000.00000" pt_clust_6="13000.00000" pt_clust_7="13000.00000" pt_clust_8="13000.00000" pt_clust_9="37.56045" pt_clust_10="13000.00000"></scales>
<clustering>
<clus scale="   37.560">  2  9  1 -1</clus>
<clus scale="   77.331">  5  6 -1 -1</clus>
<clus scale="   87.909">  1  5  2 -1</clus>
<clus scale="   90.233">  7  8 -1 -1</clus>
<clus scale="   29.232">  7 10 -1 -1</clus>
<clus scale="   37.560">  2  5  1 -1</clus>
</clustering>
</event>
<event>
10    4  0.2866397E-005  0.1531590E+03  0.7546771E-02  0.1226198E+00
         21   -1    0    0  503  502  0.00000000000E+00  0.00000000000E+00  0.20364389420E+03  0.20364389420E+03  0.00000000000E+00 0.  1.
         -1   -1    0    0    0  501 -0.00000000000E+00 -0.00000000000E+00 -0.16440151578E+03  0.16440151578E+03  0.00000000000E+00 0.  1.
         24    2    1    2    0    0 -0.11991945977E+02  0.13590543604E+02 -0.18664739924E+02  0.84462921520E+02  0.80356100897E+02 0.  0.
         23    2    1    2    0    0 -0.43941293587E+01  0.38241378090E+02 -0.25573038752E+02  0.10053079794E+03  0.89279054953E+02 0.  0.
        -13    1    3    3    0    0  0.14698132743E+01 -0.30341038692E+02  0.79019578738E+01  0.31387575858E+02  0.00000000000E+00 0.  1.
         14    1    3    3    0    0 -0.13461759252E+02  0.43931582296E+02 -0.26566697798E+02  0.53075345662E+02  0.00000000000E+00 0. -1.
        -13    1    4    4    0    0  0.64965564752E+01  0.63893861843E+02 -0.23694323172E+01  0.64266982477E+02  0.00000000000E+00 0.  1.
         13    1    4    4    0    0 -0.10890685834E+02 -0.25652483753E+02 -0.23203606435E+02  0.36263815467E+02  0.00000000000E+00 0. -1.
         21    1    1    2  503  501  0.46801261975E+02 -0.98422682716E+00  0.10893346308E+03  0.11856570416E+03  0.00000000000E+00 0.  1.
         -2    1    1    2    0  502 -0.30415186639E+02 -0.50847694866E+02 -0.25453305984E+02  0.64485986362E+02  0.00000000000E+00 0.  1.
<scales pt_clust_5="13000.00000" pt_clust_6="13000.00000" pt_clust_7="13000.00000" pt_clust_8="13000.00000" pt_clust_9="46.81161" pt_clust_10="13000.00000"></scales>
<clustering>
<clus scale="   46.812">  1  9  2 -1</clus>
<clus scale="   80.356">  5  6 -1 -1</clus>
<clus scale="   81.600">  2  5  1 -1</clus>
<clus scale="   89.279">  7  8 -1 -1</clus>
<clus scale="   49.681">  7 10 -1 -1</clus>
<clus scale="   46.812">  1  5  2 -1</clus>
</clustering>
</event>
<event>
10    4  0.2866397E-005  0.4049497E+03  0.7546771E-02  0.1067022E+00
         21   -1    0    0  501  502  0.00000000000E+00  0.00000000000E+00  0.13863210766E+03  0.13863210766E+03  0.00000000000E+00 0.  1.
         -1   -1    0    0    0  501 -0.00000000000E+00 -0.00000000000E+00 -0.75896691200E+03  0.75896691200E+03  0.00000000000E+00 0.  1.
         24    2    1    2    0    0  0.14931626605E+03  0.12732833227E+03 -0.20456440925E+03  0.29445644983E+03  0.79687839784E+02 0.  0.
         23    2    1    2    0    0  0.99898698449E+02  0.82975985165E+01 -0.20263769642E+03  0.24370495335E+03  0.91002572401E+02 0.  0.
        -13    1    3    3    0    0  0.80126720382E+02  0.17701608032E+02 -0.74834979435E+02  0.11105814870E+03  0.00000000000E+00 0.  1.
         14    1    3    3    0    0  0.69189545664E+02  0.10962672423E+03 -0.12972942982E+03  0.18339830113E+03  0.00000000000E+00 0. -1.
        -13    1    4    4    0    0  0.59716656968E+02 -0.34703864497E+02 -0.68747924916E+02  0.97451087786E+02  0.00000000000E+00 0. -1.
         13    1    4    4    0    0  0.40182041481E+02  0.43001463013E+02 -0.13388977150E+03  0.14625386556E+03  0.00000000000E+00 0.  1.
         21    1    1    2  503  502 -0.22971788431E+02 -0.28283090232E+02 -0.12369243039E+02  0.38479012853E+02  0.00000000000E+00 0. -1.
         -2    1    1    2    0  503 -0.22624317606E+03 -0.10734284055E+03 -0.20076345563E+03  0.32095860364E+03  0.00000000000E+00 0.  1.
<scales pt_clust_5="13000.00000" pt_clust_6="13000.00000" pt_clust_7="13000.00000" pt_clust_8="13000.00000" pt_clust_9="36.43674" pt_clust_10="13000.00000"></scales>
<clustering>
<clus scale="   36.437">  1  9  2 -1</clus>
<clus scale="   79.688">  5  6 -1 -1</clus>
<clus scale="   91.003">  7  8 -1 -1</clus>
<clus scale="  199.987">  2  5  1 -1</clus>
<clus scale="  165.156">  7 10 -1 -1</clus>
<clus scale="   36.437">  1  5  2 -1</clus>
</clustering>
</event>
<event>
10    4  0.4217136E-005  0.1845693E+03  0.7546771E-02  0.1196698E+00
          2   -1    0    0  503    0 -0.00000000000E+00  0.00000000000E+00  0.97835975327E+03  0.97835975327E+03  0.00000000000E+00 0. -1.
         21   -1    0    0  501  502  0.00000000000E+00 -0.00000000000E+00 -0.15542821584E+03  0.15542821584E+03  0.00000000000E+00 0.  1.
         24    2    1    2    0    0  0.39605818847E+01  0.15808707185E+02  0.14637524641E+03  0.16993253633E+03  0.84768819213E+02 0.  0.
         23    2    1    2    0    0 -0.61776905678E+01  0.53421225015E+02  0.42276113260E+03  0.43583822176E+03  0.91301638357E+02 0.  0.
        -11    1    3    3    0    0  0.16371567739E+02  0.20773455977E+02  0.15282062788E+03  0.15509258206E+03  0.00000000000E+00 0.  1.
         12    1    3    3    0    0 -0.12410985854E+02 -0.49647487922E+01 -0.64453814734E+01  0.14839954271E+02  0.00000000000E+00 0. -1.
        -11    1    4    4    0    0  0.73189370656E+01  0.72992403132E+02  0.37902014289E+03  0.38605404605E+03  0.00000000000E+00 0. -1.
         11    1    4    4    0    0 -0.13496627633E+02 -0.19571178117E+02  0.43740989711E+02  0.49784175711E+02  0.00000000000E+00 0.  1.
         21    1    1    2  503  502 -0.31091570613E+02  0.29587304748E+01 -0.13121681484E+03  0.13488251313E+03  0.00000000000E+00 0.  1.
          1    1    1    2  501    0  0.33308679296E+02 -0.72188662675E+02  0.38501197326E+03  0.39313469789E+03  0.00000000000E+00 0. -1.
<scales pt_clust_5="13000.00000" pt_clust_6="13000.00000" pt_clust_7="13000.00000" pt_clust_8="13000.00000" pt_clust_9="31.23203" pt_clust_10="13000.00000"></scales>
<clustering>
<clus scale="   31.232">  2  9  1 -1</clus>
<clus scale="   84.769">  5  6 -1 -1</clus>
<clus scale="   87.414">  1  5  2 -1</clus>
<clus scale="   91.302">  7  8 -1 -1</clus>
<clus scale="   67.531">  7 10 -1 -1</clus>
<clus scale="   31.232">  2  5  1 -1</clus>
</clustering>
</event>
<event>
10    4  0.2866397E-005  0.1643258E+03  0.7546771E-02  0.1208967E+00
         21   -1    0    0  501  502  0.00000000000E+00  0.00000000000E+00  0.25458171065E+03  0.25458171065E+03  0.00000000000E+00 0.  1.
          4   -1    0    0  503    0 -0.00000000000E+00 -0.00000000000E+00 -0.23142132857E+03  0.23142132857E+03  0.00000000000E+00 0. -1.
         24    2    1    2    0    0 -0.50186543021E+02 -0.56631018569E+01 -0.13605084624E+03  0.16671668990E+03  0.82060112760E+02 0.  0.
         23    2    1    2    0    0  0.43464800083E+02 -0.39410407346E+02  0.39902139198E+02  0.11475757004E+03  0.90192849575E+02 0.  0.
        -11    1    3    3    0    0  0.94737402617E+01  0.25786837154E+02 -0.27154710112E+02  0.38627593845E+02  0.00000000000E+00 0.  1.
         12    1    3    3    0    0 -0.59660283282E+02 -0.31449939011E+02 -0.10889613613E+03  0.12808909606E+03  0.00000000000E+00 0. -1.
        -11    1    4    4    0    0  0.11140593145E+02 -0.39243669968E+02  0.62981745761E+02  0.75039181414E+02  0.00000000000E+00 0.  1.
         11    1    4    4    0    0  0.32324206938E+02 -0.16673737764E+00 -0.23079606563E+02  0.39718388621E+02  0.00000000000E+00 0. -1.
         21    1    1    2  503  502  0.15223733774E+02  0.17489554305E+02  0.15607385570E+03  0.15778686578E+03  0.00000000000E+00 0.  1.
          3    1    1    2  501    0 -0.85019908365E+01  0.27583954898E+02 -0.36764766583E+02  0.46741913503E+02  0.00000000000E+00 0. -1.
<scales pt_clust_5="13000.00000" pt_clust_6="13000.00000" pt_clust_7="13000.00000" pt_clust_8="13000.00000" pt_clust_9="23.18721" pt_clust_10="13000.00000"></scales>
<clustering>
<clus scale="   23.187">  1  9  2 -1</clus>
<clus scale="   82.060">  5  6 -1 -1</clus>
<clus scale="   90.193">  7  8 -1 -1</clus>
<clus scale="   29.506">  7 10 -1 -1</clus>
<clus scale="   95.010">  2  5  1 -1</clus>
<clus scale="   23.187">  1  5  2 -1</clus>
</clustering>
</event>
<event>
10    4  0.2866397E-005  0.3545853E+03  0.7546771E-02  0.1113521E+00
         21   -1    0    0  503  502  0.00000000000E+00  0.00000000000E+00  0.23275895788E+03  0.23275895788E+03  0.00000000000E+00 0. -1.
          2   -1    0    0  502    0 -0.00000000000E+00 -0.00000000000E+00 -0.55565330183E+03  0.55565330183E+03  0.00000000000E+00 0. -1.
         24    2    1    2    0    0 -0.11658655733E+01  0.21267425550E+02  0.31197502856E+02  0.88669660085E+02  0.80220706823E+02 0.  0.
         23    2    1    2    0    0  0.10564150046E+03 -0.11347303960E+01 -0.44880094594E+03  0.47130684927E+03  0.97705899814E+02 0.  0.
        -11    1    3    3    0    0 -0.21075300304E+02 -0.30754786406E+00 -0.20382099880E+02  0.29320519506E+02  0.00000000000E+00 0.  1.
         12    1    3    3    0    0  0.19909434731E+02  0.21574973414E+02  0.51579602736E+02  0.59349140579E+02  0.00000000000E+00 0. -1.
        -11    1    4    4    0    0  0.20118369441E+02  0.37415106078E+02 -0.77941682366E+02  0.88766800111E+02  0.00000000000E+00 0.  1.
         11    1    4    4    0    0  0.85523131016E+02 -0.38549836474E+02 -0.37085926357E+03  0.38254004916E+03  0.00000000000E+00 0. -1.
         21    1    1    2  503  501 -0.79202114693E+00  0.25539715852E+02  0.11106287946E+03  0.11396432590E+03  0.00000000000E+00 0. -1.
          1    1    1    2  501    0 -0.10368361374E+03 -0.45672411006E+02 -0.16353780333E+02  0.11447142445E+03  0.00000000000E+00 0. -1.
<scales pt_clust_5="13000.00000" pt_clust_6="13000.00000" pt_clust_7="13000.00000" pt_clust_8="13000.00000" pt_clust_9="25.55199" pt_clust_10="13000.00000"></scales>
<clustering>
<clus scale="   25.552">  1  9  2 -1</clus>
<clus scale="   80.221">  5  6 -1 -1</clus>
<clus scale="   87.141">  2  5  1 -1</clus>
<clus scale="   97.706">  7  8 -1 -1</clus>
<clus scale="  108.759">  7 10 -1 -1</clus>
<clus scale="   25.552">  1  5  2 -1</clus>
</clustering>
</event>
<event>
10    4  0.2866397E-005  0.3244862E+03  0.7546771E-02  0.1087560E+00
         21   -1    0    0  503  502  0.00000000000E+00  0.00000000000E+00  0.19690560837E+03  0.19690560837E+03  0.00000000000E+00 0. -1.
          2   -1    0    0  502    0 -0.00000000000E+00 -0.00000000000E+00 -0.19069778929E+04  0.19069778929E+04  0.00000000000E+00 0. -1.
         24    2    1    2    0    0  0.19759087573E+03  0.50973388301E+02 -0.89369072451E+03  0.92060069455E+03  0.84747196068E+02 0.  0.
         23    2    1    2    0    0 -0.10746393533E+03 -0.34503410879E+01 -0.19616728516E+03  0.24148101389E+03  0.90945445492E+02 0.  0.
        -13    1    3    3    0    0  0.45201407721E+02 -0.17992001439E+02 -0.12996950686E+03  0.13877662659E+03  0.00000000000E+00 0.  1.
         14    1    3    3    0    0  0.15238946801E+03  0.68965389740E+02 -0.76372121765E+03  0.78182406795E+03  0.00000000000E+00 0. -1.
        -11    1    4    4    0    0 -0.23756621962E+02 -0.37696485656E+02 -0.34956979165E+02  0.56633845978E+02  0.00000000000E+00 0.  1.
         11    1    4    4    0    0 -0.83707313363E+02  0.34246144568E+02 -0.16121030599E+03  0.18484716792E+03  0.00000000000E+00 0. -1.
         21    1    1    2  503  501  0.34868713502E-01  0.23297579923E+02  0.15571486662E+03  0.15744808075E+03  0.00000000000E+00 0. -1.
          1    1    1    2  501    0 -0.90161809116E+02 -0.70820627136E+02 -0.77592914149E+03  0.78435371209E+03  0.00000000000E+00 0. -1.
<scales pt_clust_5="13000.00000" pt_clust_6="13000.00000" pt_clust_7="13000.00000" pt_clust_8="13000.00000" pt_clust_9="23.29761" pt_clust_10="13000.00000"></scales>
<clustering>
<clus scale="   23.298">  1  9  2 -1</clus>
<clus scale="   84.747">  5  6 -1 -1</clus>
<clus scale="   90.945">  7  8 -1 -1</clus>
<clus scale="  113.160">  7 10 -1 -1</clus>
<clus scale="  222.890">  2  5  1 -1</clus>
<clus scale="   23.298">  1  5  2 -1</clus>
</clustering>
</event>
<event>
10    4  0.2866397E-005  0.3377285E+03  0.7546771E-02  0.1108306E+00
         21   -1    0    0  501  502  0.00000000000E+00  0.00000000000E+00  0.89368312997E+02  0.89368312997E+02  0.00000000000E+00 0. -1.
          4   -1    0    0  503    0 -0.00000000000E+00 -0.00000000000E+00 -0.87059899302E+03  0.87059899302E+03  0.00000000000E+00 0. -1.
         24    2    1    2    0    0  0.45868875555E+02  0.68702338446E+02 -0.44920061165E+03  0.46393170837E+03  0.81409308261E+02 0.  0.
         23    2    1    2    0    0  0.14654550615E+02  0.11332974299E+03 -0.64482851280E+02  0.15925516578E+03  0.90253992820E+02 0.  0.
        -11    1    3    3    0    0 -0.21064695705E+02  0.43872313745E+01 -0.11909976743E+03  0.12102778113E+03  0.00000000000E+00 0.  1.
         12    1    3    3    0    0  0.66933571259E+02  0.64315107072E+02 -0.33010084422E+03  0.34290392724E+03  0.00000000000E+00 0. -1.
        -13    1    4    4    0    0  0.24902575918E+02  0.22162211230E+02 -0.58483731972E+02  0.67317522231E+02  0.00000000000E+00 0.  1.
         13    1    4    4    0    0 -0.10248025303E+02  0.91167531758E+02 -0.59991193075E+01  0.91937643552E+02  0.00000000000E+00 0. -1.
         21    1    1    2  503  502  0.16184709499E+02 -0.27235226050E+02 -0.37642324746E+02  0.49200070852E+02  0.00000000000E+00 0. -1.
          3    1    1    2  501    0 -0.76708135668E+02 -0.15479685538E+03 -0.22990489235E+03  0.28758036101E+03  0.00000000000E+00 0. -1.
<scales pt_clust_5="13000.00000" pt_clust_6="13000.00000" pt_clust_7="13000.00000" pt_clust_8="13000.00000" pt_clust_9="31.68126" pt_clust_10="13000.00000"></scales>
<clustering>
<clus scale="   31.681">  1  9  2 -1</clus>
<clus scale="   81.409">  5  6 -1 -1</clus>
<clus scale="   90.254">  7  8 -1 -1</clus>
<clus scale="  115.153">  2  5  1 -1</clus>
<clus scale="  124.586">  7 10 -1 -1</clus>
<clus scale="   31.681">  1  5  2 -1</clus>
</clustering>
</event>
<event>
10    4  0.2866397E-005  0.2716455E+03  0.7546771E-02  0.1114314E+00
         21   -1    0    0  503  502  0.00000000000E+00  0.00000000000E+00  0.17237309911E+03  0.17237309911E+03  0.00000000000E+00 0. -1.
          2   -1    0    0  502    0 -0.00000000000E+00 -0.00000000000E+00 -0.97345644799E+03  0.97345644799E+03  0.00000000000E+00 0. -1.
         24    2    1    2    0    0  0.17490281227E+03 -0.24220409317E+02 -0.70715785249E+03  0.73317600920E+03  0.79354963072E+02 0.  0.
         23    2    1    2    0    0 -0.44781759353E+01  0.46080525341E+02 -0.43571246330E+00  0.10496605765E+03  0.94203049511E+02 0.  0.
        -11    1    3    3    0    0  0.10123907288E+02 -0.26133806195E+02 -0.81686157004E+02  0.86360277738E+02  0.00000000000E+00 0.  1.
         12    1    3    3    0    0  0.16477890498E+03  0.19133968785E+01 -0.62547169548E+03  0.64681573146E+03  0.00000000000E+00 0. -1.
        -11    1    4    4    0    0 -0.30049607717E+02  0.63135827524E+02  0.13506147333E+02  0.71214659003E+02  0.00000000000E+00 0.  1.
         11    1    4    4    0    0  0.25571431781E+02 -0.17055302183E+02 -0.13941859796E+02  0.33751398645E+02  0.00000000000E+00 0. -1.
         21    1    1    2  503  501 -0.43969090187E+02 -0.84172806854E+02  0.49327583753E+02  0.10701192842E+03  0.00000000000E+00 0. -1.
          1    1    1    2  501    0 -0.12645554615E+03  0.62312690829E+02 -0.14281736768E+03  0.20067555183E+03  0.00000000000E+00 0. -1.
<scales pt_clust_5="13000.00000" pt_clust_6="13000.00000" pt_clust_7="13000.00000" pt_clust_8="13000.00000" pt_clust_9="94.96495" pt_clust_10="13000.00000"></scales>
<clustering>
<clus scale="   79.355">  5  6 -1 -1</clus>
<clus scale="   94.203">  7  8 -1 -1</clus>
<clus scale="   94.965">  1  9  2 -1</clus>
<clus scale="  144.630">  7 10 -1 -1</clus>
<clus scale="  189.963">  2  5  1 -1</clus>
<clus scale="   94.965">  1  5  2 -1</clus>
</clustering>
</event>
<event>
10    4  0.2866397E-005  0.1734146E+03  0.7546771E-02  0.1206902E+00
         21   -1    0    0  503  502  0.00000000000E+00  0.00000000000E+00  0.12207898000E+03  0.12207898000E+03  0.00000000000E+00 0.  1.
          2   -1    0    0  502    0 -0.00000000000E+00 -0.00000000000E+00 -0.65813757386E+03  0.65813757386E+03  0.00000000000E+00 0. -1.
         24    2    1    2    0    0 -0.26311416435E+02  0.17571100051E+02 -0.41632593729E+03  0.42436306099E+03  0.75866245969E+02 0.  0.
         23    2    1    2    0    0  0.10351966821E+03 -0.62438456829E+02 -0.11189148234E+03  0.18833774237E+03  0.91304538687E+02 0.  0.
        -11    1    3    3    0    0  0.11081390874E+02  0.37763036502E+02 -0.21972105870E+03  0.22321780347E+03  0.00000000000E+00 0.  1.
         12    1    3    3    0    0 -0.37392807308E+02 -0.20191936451E+02 -0.19660487859E+03  0.20114525751E+03  0.00000000000E+00 0. -1.
        -13    1    4    4    0    0  0.34323498090E+02 -0.44976520676E+02 -0.11452262161E+01  0.56588881208E+02  0.00000000000E+00 0.  1.
         13    1    4    4    0    0  0.69196170121E+02 -0.17461936154E+02 -0.11074625612E+03  0.13174886116E+03  0.00000000000E+00 0. -1.
         21    1    1    2  503  501 -0.38887566600E+02  0.60689990322E+02  0.56080418415E+02  0.91326508150E+02  0.00000000000E+00 0.  1.
          1    1    1    2  501    0 -0.38320685176E+02 -0.15822633543E+02 -0.63921592645E+02  0.76189242356E+02  0.00000000000E+00 0. -1.
<scales pt_clust_5="13000.00000" pt_clust_6="13000.00000" pt_clust_7="13000.00000" pt_clust_8="13000.00000" pt_clust_9="72.07994" pt_clust_10="13000.00000"></scales>
<clustering>
<clus scale="   72.080">  1  9  2 -1</clus>
<clus scale="   75.866">  5  6 -1 -1</clus>
<clus scale="   84.497">  2  5  1 -1</clus>
<clus scale="   91.305">  7  8 -1 -1</clus>
<clus scale="   55.669">  7 10 -1 -1</clus>
<clus scale="   72.080">  1  5  2 -1</clus>
</clustering>
</event>
<event>
10    4  0.2866397E-005  0.5895561E+03  0.7546771E-02  0.1055992E+00
         21   -1    0    0  501  502  0.00000000000E+00  0.00000000000E+00  0.12164472222E+04  0.12164472222E+04  0.00000000000E+00 0. -1.
          2   -1    0    0  503    0 -0.00000000000E+00 -0.00000000000E+00 -0.39895839081E+03  0.39895839081E+03  0.00000000000E+00 0. -1.
         24    2    1    2    0    0 -0.30621222346E+02 -0.24208590175E+02 -0.63473461538E+02  0.10863804939E+03  0.79054603657E+02 0.  0.
         23    2    1    2    0    0 -0.31831590363E+02  0.57178979413E+02  0.37502063383E+02  0.10643539604E+03  0.75095958218E+02 0.  0.
        -13    1    3    3    0    0 -0.52335653743E+01  0.22971306705E+02 -0.47018992882E+02  0.52591414032E+02  0.00000000000E+00 0.  1.
         14    1    3    3    0    0 -0.25387656972E+02 -0.47179896880E+02 -0.16454468656E+02  0.56046635357E+02  0.00000000000E+00 0. -1.
        -13    1    4    4    0    0 -0.22064508852E+02  0.34123572702E+02  0.60205670991E+02  0.72635966190E+02  0.00000000000E+00 0. -1.
         13    1    4    4    0    0 -0.97670815111E+01  0.23055406711E+02 -0.22703607608E+02  0.33799429851E+02  0.00000000000E+00 0.  1.
         21    1    1    2  503  502 -0.33099509276E+01  0.43470243289E+03  0.81924599122E+03  0.92743795214E+03  0.00000000000E+00 0. -1.
          1    1    1    2  501    0  0.65762763637E+02 -0.46767282213E+03  0.24214238309E+02  0.47289421542E+03  0.00000000000E+00 0. -1.
<scales pt_clust_5="13000.00000" pt_clust_6="13000.00000" pt_clust_7="13000.00000" pt_clust_8="13000.00000" pt_clust_9="430.60311" pt_clust_10="13000.00000"></scales>
<clustering>
<clus scale="   75.096">  7  8 -1 -1</clus>
<clus scale="   79.055">  5  6 -1 -1</clus>
<clus scale="   88.167">  2  5  1 -1</clus>
<clus scale="  430.603">  1  9  2 -1</clus>
<clus scale="  157.514">  7 10 -1 -1</clus>
<clus scale="  430.603">  1  5  2 -1</clus>
</clustering>
</event>
<event>
10    4  0.2866397E-005  0.3048305E+03  0.7546771E-02  0.1117376E+00
         21   -1    0    0  503  502  0.00000000000E+00  0.00000000000E+00  0.98887403117E+02  0.98887403117E+02  0.00000000000E+00 0. -1.
          2   -1    0    0  502    0 -0.00000000000E+00 -0.00000000000E+00 -0.14629200687E+04  0.14629200687E+04  0.00000000000E+00 0. -1.
         24    2    1    2    0    0 -0.10931906645E+03 -0.36079425996E+01 -0.34436958503E+03  0.36956898939E+03  0.77634729911E+02 0.  0.
         23    2    1    2    0    0  0.13264451176E+03 -0.82728803383E+02 -0.81628634383E+03  0.83602352128E+03  0.90406369286E+02 0.  0.
        -13    1    3    3    0    0 -0.12590826394E+02  0.28485396427E+02 -0.10187457050E+03  0.10652875121E+03  0.00000000000E+00 0.  1.
         14    1    3    3    0    0 -0.96728240052E+02 -0.32093339026E+02 -0.24249501453E+03  0.26304023819E+03  0.00000000000E+00 0. -1.
        -11    1    4    4    0    0  0.13273516941E+03 -0.42314968932E+02 -0.66464347721E+03  0.67908772158E+03  0.00000000000E+00 0. -1.
         11    1    4    4    0    0 -0.90657653476E-01 -0.40413834451E+02 -0.15164286661E+03  0.15693579970E+03  0.00000000000E+00 0.  1.
         21    1    1    2  503  501  0.31939126355E+02 -0.56855221248E+01  0.61987002684E+02  0.69963000621E+02  0.00000000000E+00 0. -1.
          1    1    1    2  501    0 -0.55264571666E+02  0.92022268108E+02 -0.26536373940E+03  0.28625196051E+03  0.00000000000E+00 0. -1.
<scales pt_clust_5="13000.00000" pt_clust_6="13000.00000" pt_clust_7="13000.00000" pt_clust_8="13000.00000" pt_clust_9="32.44122" pt_clust_10="13000.00000"></scales>
<clustering>
<clus scale="   32.441">  1  9  2 -1</clus>
<clus scale="   77.635">  5  6 -1 -1</clus>
<clus scale="   90.406">  7  8 -1 -1</clus>
<clus scale="  100.876">  7 10 -1 -1</clus>
<clus scale="  124.449">  2  5  1 -1</clus>
<clus scale="   32.441">  1  5  2 -1</clus>
</clustering>
</event>
<event>
10    4  0.2866397E-005  0.2881133E+03  0.7546771E-02  0.1122809E+00
          2   -1    0    0  502    0 -0.00000000000E+00  0.00000000000E+00  0.12798556520E+04  0.12798556520E+04  0.00000000000E+00 0. -1.
         21   -1    0    0  503  502  0.00000000000E+00 -0.00000000000E+00 -0.11526344690E+03  0.11526344690E+03  0.00000000000E+00 0. -1.
         24    2    1    2    0    0 -0.32721514477E+01 -0.10082427762E+03  0.57330884917E+03  0.58757000550E+03  0.79870100167E+02 0.  0.
         23    2    1    2    0    0 -0.55996995072E+02 -0.63718572594E+02  0.35000193337E+03  0.37145382989E+03  0.90999310012E+02 0.  0.
        -11    1    3    3    0    0 -0.36513922595E+02 -0.21630651105E+02  0.17000558797E+03  0.17522286252E+03  0.00000000000E+00 0.  1.
         12    1    3    3    0    0  0.33241771148E+02 -0.79193626515E+02  0.40330326120E+03  0.41234714298E+03  0.00000000000E+00 0. -1.
        -13    1    4    4    0    0 -0.63234501896E+01 -0.60553143062E+02  0.10436946464E+03  0.12082902923E+03  0.00000000000E+00 0.  1.
         13    1    4    4    0    0 -0.49673544882E+02 -0.31654295318E+01  0.24563246874E+03  0.25062480065E+03  0.00000000000E+00 0. -1.
         21    1    1    2  503  501 -0.71775888851E+02  0.12611004007E+03 -0.14817655770E+02  0.14585980717E+03  0.00000000000E+00 0. -1.
          1    1    1    2  501    0  0.13104503537E+03  0.38432810145E+02  0.25609907837E+03  0.29023545637E+03  0.00000000000E+00 0. -1.
<scales pt_clust_5="13000.00000" pt_clust_6="13000.00000" pt_clust_7="13000.00000" pt_clust_8="13000.00000" pt_clust_9="137.13703" pt_clust_10="13000.00000"></scales>
<clustering>
<clus scale="   79.870">  5  6 -1 -1</clus>
<clus scale="   90.999">  7  8 -1 -1</clus>
<clus scale="  128.668">  1  5  2 -1</clus>
<clus scale="  129.771">  7 10 -1 -1</clus>
<clus scale="  137.137">  2  9  1 -1</clus>
<clus scale="  137.137">  2  5  1 -1</clus>
</clustering>
</event>
<event>
10    4  0.2866397E-005  0.4369042E+03  0.7546771E-02  0.1087534E+00
         21   -1    0    0  501  502  0.00000000000E+00  0.00000000000E+00  0.36668942720E+03  0.36668942720E+03  0.00000000000E+00 0. -1.
          2   -1    0    0  503    0 -0.00000000000E+00 -0.00000000000E+00 -0.32169577687E+03  0.32169577687E+03  0.00000000000E+00 0. -1.
         24    2    1    2    0    0  0.43648446361E+02  0.13286429205E+01  0.98684980272E+00  0.91379392790E+02  0.80263736472E+02 0.  0.
         23    2    1    2    0    0  0.13527434560E+02 -0.11846111557E+03 -0.41437373155E+02  0.15492657924E+03  0.89828512588E+02 0.  0.
        -13    1    3    3    0    0  0.63557581292E+02  0.96616272648E+01  0.14516869158E+02  0.65906393250E+02  0.00000000000E+00 0.  1.
         14    1    3    3    0    0 -0.19909134932E+02 -0.83329843443E+01 -0.13530019355E+02  0.25472999540E+02  0.00000000000E+00 0. -1.
        -13    1    4    4    0    0  0.46710009826E+02 -0.52219021962E+02 -0.49754260706E-01  0.70061785219E+02  0.00000000000E+00 0.  1.
         13    1    4    4    0    0 -0.33182575266E+02 -0.66242093605E+02 -0.41387618895E+02  0.84864794021E+02  0.00000000000E+00 0. -1.
         21    1    1    2  503  502  0.12951745612E+01 -0.13409244618E+03 -0.58938675966E+02  0.14647944950E+03  0.00000000000E+00 0. -1.
          1    1    1    2  501    0 -0.58471055482E+02  0.25122491883E+03  0.14438284965E+03  0.29559978254E+03  0.00000000000E+00 0. -1.
<scales pt_clust_5="13000.00000" pt_clust_6="13000.00000" pt_clust_7="13000.00000" pt_clust_8="13000.00000" pt_clust_9="134.74141" pt_clust_10="13000.00000"></scales>
<clustering>
<clus scale="   80.264">  5  6 -1 -1</clus>
<clus scale="   89.829">  7  8 -1 -1</clus>
<clus scale="   91.374">  2  5  1 -1</clus>
<clus scale="  134.741">  1  9  2 -1</clus>
<clus scale="  157.246">  7 10 -1 -1</clus>
<clus scale="  134.741">  1  5  2 -1</clus>
</clustering>
</event>
<event>
10    4  0.2866397E-005  0.2332357E+03  0.7546771E-02  0.1145267E+00
         -3   -1    0    0    0  501 -0.00000000000E+00  0.00000000000E+00  0.50066203345E+03  0.50066203345E+03  0.00000000000E+00 0.  1.
         21   -1    0    0  501  502  0.00000000000E+00 -0.00000000000E+00 -0.19857994571E+03  0.19857994571E+03  0.00000000000E+00 0. -1.
         24    2    1    2    0    0  0.73313170828E+02  0.76527365138E+02  0.30558183338E+03  0.33496726795E+03  0.87129530435E+02 0.  0.
         23    2    1    2    0    0  0.41109546797E+01 -0.96699233985E+02 -0.20385468635E+02  0.13442248449E+03  0.91028540599E+02 0.  0.
        -13    1    3    3    0    0  0.27561825302E+02  0.69614531061E+02  0.25780480346E+03  0.26845698694E+03  0.00000000000E+00 0.  1.
         14    1    3    3    0    0  0.45751345526E+02  0.69128340768E+01  0.47777029926E+02  0.66510281017E+02  0.00000000000E+00 0. -1.
        -13    1    4    4    0    0 -0.36506003242E+02 -0.81829929910E+02 -0.12941514377E+02  0.90533466167E+02  0.00000000000E+00 0. -1.
         13    1    4    4    0    0  0.40616957921E+02 -0.14869304075E+02 -0.74439542577E+01  0.43889018324E+02  0.00000000000E+00 0.  1.
         21    1    1    2  503  502 -0.11119260897E+02  0.47511224653E+02 -0.89272547660E+02  0.10173761446E+03  0.00000000000E+00 0. -1.
         -4    1    1    2    0  503 -0.66304864610E+02 -0.27339355806E+02  0.10615827065E+03  0.12811461226E+03  0.00000000000E+00 0.  1.
<scales pt_clust_5="13000.00000" pt_clust_6="13000.00000" pt_clust_7="13000.00000" pt_clust_8="13000.00000" pt_clust_9="48.79502" pt_clust_10="13000.00000"></scales>
<clustering>
<clus scale="   48.795">  2  9  1 -1</clus>
<clus scale="   87.130">  5  6 -1 -1</clus>
<clus scale="   91.029">  7  8 -1 -1</clus>
<clus scale="   71.071">  7 10 -1 -1</clus>
<clus scale="  140.269">  1  5  2 -1</clus>
<clus scale="   48.795">  2  5  1 -1</clus>
</clustering>
</event>
<event>
10    4  0.2866397E-005  0.2168759E+03  0.7546771E-02  0.1167515E+00
          2   -1    0    0  502    0 -0.00000000000E+00  0.00000000000E+00  0.10142505368E+04  0.10142505368E+04  0.00000000000E+00 0. -1.
         21   -1    0    0  503  502  0.00000000000E+00 -0.00000000000E+00 -0.75153862622E+02  0.75153862622E+02  0.00000000000E+00 0. -1.
         24    2    1    2    0    0  0.59561415160E+02  0.42931750531E+02  0.30399193884E+03  0.32281937961E+03  0.80065945261E+02 0.  0.
         23    2    1    2    0    0 -0.44240935875E+02 -0.92274172277E+02  0.45991351475E+03  0.47993918279E+03  0.91375023111E+02 0.  0.
        -13    1    3    3    0    0  0.16089097995E+01  0.43975961103E+02  0.18887752450E+03  0.19393605392E+03  0.00000000000E+00 0.  1.
         14    1    3    3    0    0  0.57952505360E+02 -0.10442105721E+01  0.11511441434E+03  0.12888332569E+03  0.00000000000E+00 0. -1.
        -13    1    4    4    0    0 -0.30800475539E+02 -0.95165804767E+01  0.38258776835E+02  0.50029677216E+02  0.00000000000E+00 0. -1.
         13    1    4    4    0    0 -0.13440460336E+02 -0.82757591800E+02  0.42165473791E+03  0.42990950557E+03  0.00000000000E+00 0.  1.
         21    1    1    2  503  501 -0.79444403219E+01 -0.26319244932E+02 -0.45537534663E+02  0.53192892843E+02  0.00000000000E+00 0. -1.
          1    1    1    2  501    0 -0.73760389628E+01  0.75661666678E+02  0.22072875529E+03  0.23345294422E+03  0.00000000000E+00 0. -1.
<scales pt_clust_5="13000.00000" pt_clust_6="13000.00000" pt_clust_7="13000.00000" pt_clust_8="13000.00000" pt_clust_9="27.49212" pt_clust_10="13000.00000"></scales>
<clustering>
<clus scale="   27.492">  2  9  1 -1</clus>
<clus scale="   80.066">  5  6 -1 -1</clus>
<clus scale="   91.375">  7  8 -1 -1</clus>
<clus scale="   69.796">  7 10 -1 -1</clus>
<clus scale="  103.593">  1  5  2 -1</clus>
<clus scale="   27.492">  2  5  1 -1</clus>
</clustering>
</event>
<event>
10    4  0.2866397E-005  0.2765482E+03  0.7546771E-02  0.1101439E+00
          2   -1    0    0  503    0 -0.00000000000E+00  0.00000000000E+00  0.15349674430E+04  0.15349674430E+04  0.00000000000E+00 0. -1.
         21   -1    0    0  501  502  0.00000000000E+00 -0.00000000000E+00 -0.37309680389E+03  0.37309680389E+03  0.00000000000E+00 0.  1.
         24    2    1    2    0    0  0.21213527326E+03  0.42240077689E+02  0.63907816180E+03  0.67938211723E+03  0.79709259196E+02 0.  0.
         23    2    1    2    0    0 -0.12312196135E+03 -0.67358968155E+02  0.37288391281E+03  0.40860869330E+03  0.90677471560E+02 0.  0.
        -13    1    3    3    0    0  0.20478527351E+03  0.19198694584E+02  0.55469026915E+03  0.59159690061E+03  0.00000000000E+00 0.  1.
         14    1    3    3    0    0  0.73499997486E+01  0.23041383105E+02  0.84387892649E+02  0.87785216622E+02  0.00000000000E+00 0. -1.
        -13    1    4    4    0    0 -0.39174418718E+02 -0.68617157038E+02  0.13599403453E+03  0.15728104383E+03  0.00000000000E+00 0. -1.
         13    1    4    4    0    0 -0.83947542630E+02  0.12581888827E+01  0.23688987828E+03  0.25132764947E+03  0.00000000000E+00 0.  1.
         21    1    1    2  503  502  0.13849291065E+02  0.12530001498E+03 -0.31192394013E+03  0.33643489867E+03  0.00000000000E+00 0.  1.
          1    1    1    2  501    0 -0.10286260298E+03 -0.10018112451E+03  0.46183250460E+03  0.48363853766E+03  0.00000000000E+00 0. -1.
<scales pt_clust_5="13000.00000" pt_clust_6="13000.00000" pt_clust_7="13000.00000" pt_clust_8="13000.00000" pt_clust_9="126.06307" pt_clust_10="13000.00000"></scales>
<clustering>
<clus scale="   79.709">  5  6 -1 -1</clus>
<clus scale="   90.677">  7  8 -1 -1</clus>
<clus scale="  126.063">  2  9  1 -1</clus>
<clus scale="  123.190">  7 10 -1 -1</clus>
<clus scale="  250.235">  1  5  2 -1</clus>
<clus scale="  126.063">  2  5  1 -1</clus>
</clustering>
</event>
<event>
10    4  0.2866397E-005  0.1548320E+03  0.7546771E-02  0.1210263E+00
          2   -1    0    0  503    0 -0.00000000000E+00  0.00000000000E+00  0.21407388016E+03  0.21407388016E+03  0.00000000000E+00 0. -1.
         21   -1    0    0  501  502  0.00000000000E+00 -0.00000000000E+00 -0.19268548824E+03  0.19268548824E+03  0.00000000000E+00 0. -1.
         24    2    1    2    0    0 -0.91661285173E+02  0.55891962331E+02  0.11279561343E+02  0.13612614767E+03  0.82930072493E+02 0.  0.
         23    2    1    2    0    0  0.59339934749E+02 -0.21256050798E+01  0.70815650076E+02  0.13103950956E+03  0.92901833764E+02 0.  0.
        -13    1    3    3    0    0 -0.69959636461E+01 -0.20005063442E+02 -0.34504354197E+01  0.21472111569E+02  0.00000000000E+00 0.  1.
         14    1    3    3    0    0 -0.84665321527E+02  0.75897025773E+02  0.14729996762E+02  0.11465403610E+03  0.00000000000E+00 0. -1.
        -13    1    4    4    0    0  0.48671677914E+02 -0.27196132530E+02  0.83961957799E+02  0.10078775825E+03  0.00000000000E+00 0. -1.
         13    1    4    4    0    0  0.10668256834E+02  0.25070527450E+02 -0.13146307723E+02  0.30251751309E+02  0.00000000000E+00 0.  1.
         21    1    1    2  503  502  0.51791430939E+02 -0.24168207639E+02 -0.80719248811E+02  0.98904255257E+02  0.00000000000E+00 0. -1.
          1    1    1    2  501    0 -0.19470080515E+02 -0.29598149613E+02  0.20012429312E+02  0.40689455916E+02  0.00000000000E+00 0. -1.
<scales pt_clust_5="13000.00000" pt_clust_6="13000.00000" pt_clust_7="13000.00000" pt_clust_8="13000.00000" pt_clust_9="57.15291" pt_clust_10="13000.00000"></scales>
<clustering>
<clus scale="   57.153">  2  9  1 -1</clus>
<clus scale="   82.930">  5  6 -1 -1</clus>
<clus scale="   92.902">  7  8 -1 -1</clus>
<clus scale="   35.060">  7 10 -1 -1</clus>
<clus scale="  110.477">  1  5  2 -1</clus>
<clus scale="   57.153">  2  5  1 -1</clus>
</clustering>
</event>
<event>
10    4  0.2866397E-005  0.3775559E+03  0.7546771E-02  0.1060966E+00
          2   -1    0    0  503    0 -0.00000000000E+00  0.00000000000E+00  0.23377602420E+04  0.23377602420E+04  0.00000000000E+00 0. -1.
         21   -1    0    0  501  502  0.00000000000E+00 -0.00000000000E+00 -0.21153368638E+03  0.21153368638E+03  0.00000000000E+00 0.  1.
         24    2    1    2    0    0 -0.10207851765E+03  0.15078047956E+03  0.20632967170E+03  0.28636907028E+03  0.79249821506E+02 0.  0.
         23    2    1    2    0    0  0.18626948939E+03 -0.31074627737E+03  0.19788730375E+04  0.20139593620E+04  0.93990647040E+02 0.  0.
        -11    1    3    3    0    0 -0.25432155070E+02 -0.34335484348E+01  0.19144537401E+02  0.32017137265E+02  0.00000000000E+00 0.  1.
         12    1    3    3    0    0 -0.76646362580E+02  0.15421402800E+03  0.18718513430E+03  0.25435193302E+03  0.00000000000E+00 0. -1.
        -13    1    4    4    0    0  0.10985095639E+03 -0.94919998288E+02  0.73974136393E+03  0.75385298580E+03  0.00000000000E+00 0.  1.
         13    1    4    4    0    0  0.76418532999E+02 -0.21582627908E+03  0.12391316736E+04  0.12601063762E+04  0.00000000000E+00 0. -1.
         21    1    1    2  503  502 -0.64249229024E+02  0.13873475639E+03 -0.11127909907E+03  0.18909874127E+03  0.00000000000E+00 0.  1.
          1    1    1    2  501    0 -0.19941742718E+02  0.21231041424E+02  0.52302945441E+02  0.59866754751E+02  0.00000000000E+00 0. -1.
<scales pt_clust_5="13000.00000" pt_clust_6="13000.00000" pt_clust_7="13000.00000" pt_clust_8="13000.00000" pt_clust_9="152.88982" pt_clust_10="13000.00000"></scales>
<clustering>
<clus scale="   79.250">  5  6 -1 -1</clus>
<clus scale="   93.991">  7  8 -1 -1</clus>
<clus scale="   29.128">  7 10 -1 -1</clus>
<clus scale="  152.890">  2  9  1 -1</clus>
<clus scale="  291.949">  1  5  2 -1</clus>
<clus scale="  152.890">  2  5  1 -1</clus>
</clustering>
</event>
<event>
10    4  0.2866397E-005  0.3414667E+03  0.7546771E-02  0.1088255E+00
         21   -1    0    0  501  502  0.00000000000E+00  0.00000000000E+00  0.24194496370E+03  0.24194496370E+03  0.00000000000E+00 0. -1.
          2   -1    0    0  503    0 -0.00000000000E+00 -0.00000000000E+00 -0.16525345082E+04  0.16525345082E+04  0.00000000000E+00 0. -1.
         24    2    1    2    0    0 -0.56477240707E+02 -0.13720552412E+03 -0.36464920915E+03  0.40184276351E+03  0.80582419204E+02 0.  0.
         23    2    1    2    0    0 -0.95526037687E+02  0.11229400653E+03 -0.38316836907E+03  0.42077063038E+03  0.92167003644E+02 0.  0.
        -11    1    3    3    0    0 -0.59822629333E+02 -0.41049835685E+02 -0.16285610089E+03  0.17828613403E+03  0.00000000000E+00 0.  1.
         12    1    3    3    0    0  0.33453886265E+01 -0.96155688436E+02 -0.20179310826E+03  0.22355662948E+03  0.00000000000E+00 0. -1.
        -13    1    4    4    0    0 -0.52366307561E+02  0.30305066752E+02 -0.25823848959E+03  0.26523149274E+03  0.00000000000E+00 0. -1.
         13    1    4    4    0    0 -0.43159730126E+02  0.81988939783E+02 -0.12492987948E+03  0.15553913764E+03  0.00000000000E+00 0.  1.
         21    1    1    2  503  502  0.28662907935E+02 -0.62719950563E+02  0.19189531154E+03  0.20390969835E+03  0.00000000000E+00 0. -1.
          1    1    1    2  501    0  0.12334037046E+03  0.87631468149E+02 -0.85466727788E+03  0.86795637970E+03  0.00000000000E+00 0. -1.
<scales pt_clust_5="13000.00000" pt_clust_6="13000.00000" pt_clust_7="13000.00000" pt_clust_8="13000.00000" pt_clust_9="68.95908" pt_clust_10="13000.00000"></scales>
<clustering>
<clus scale="   68.959">  1  9  2 -1</clus>
<clus scale="   80.582">  5  6 -1 -1</clus>
<clus scale="   92.167">  7  8 -1 -1</clus>
<clus scale="  149.695">  7 10 -1 -1</clus>
<clus scale="  187.768">  2  5  1 -1</clus>
<clus scale="   68.959">  1  5  2 -1</clus>
</clustering>
</event>
<event>
10    4  0.2866397E-005  0.3632813E+03  0.7546771E-02  0.1111056E+00
          2   -1    0    0  502    0 -0.00000000000E+00  0.00000000000E+00  0.12284425922E+04  0.12284425922E+04  0.00000000000E+00 0. -1.
         21   -1    0    0  503  502  0.00000000000E+00 -0.00000000000E+00 -0.81550336489E+02  0.81550336489E+02  0.00000000000E+00 0. -1.
         24    2    1    2    0    0 -0.10038757341E+01 -0.31617672746E+02  0.13509716867E+03  0.16028704089E+03  0.80249644860E+02 0.  0.
         23    2    1    2    0    0 -0.11095437816E+03  0.32808720392E+02  0.20218566937E+03  0.24990729762E+03  0.90483845723E+02 0.  0.
        -13    1    3    3    0    0  0.23773045813E+02  0.11495380887E+02  0.15156174679E+02  0.30446857307E+02  0.00000000000E+00 0.  1.
         14    1    3    3    0    0 -0.24776921547E+02 -0.43113053634E+02  0.11994099399E+03  0.12984018359E+03  0.00000000000E+00 0. -1.
        -11    1    4    4    0    0 -0.72239634640E+02  0.31234862087E+02  0.50875773702E+02  0.93715130968E+02  0.00000000000E+00 0. -1.
         11    1    4    4    0    0 -0.38714743523E+02  0.15738583048E+01  0.15130989566E+03  0.15619216665E+03  0.00000000000E+00 0.  1.
         21    1    1    2  503  501 -0.40991256152E+02 -0.16345442715E+03  0.38277615859E+03  0.41822867001E+03  0.00000000000E+00 0. -1.
          1    1    1    2  501    0  0.15294951005E+03  0.16226337950E+03  0.42683325913E+03  0.48156992021E+03  0.00000000000E+00 0. -1.
<scales pt_clust_5="13000.00000" pt_clust_6="13000.00000" pt_clust_7="13000.00000" pt_clust_8="13000.00000" pt_clust_9="179.98866" pt_clust_10="13000.00000"></scales>
<clustering>
<clus scale="   80.250">  5  6 -1 -1</clus>
<clus scale="   86.259">  1  5  2 -1</clus>
<clus scale="   90.484">  7  8 -1 -1</clus>
<clus scale="  179.989">  2  9  1 -1</clus>
<clus scale="  144.665">  7 10 -1 -1</clus>
<clus scale="  179.989">  2  5  1 -1</clus>
</clustering>
</event>
<event>
10    4  0.2866397E-005  0.1268720E+03  0.7546771E-02  0.1247200E+00
          2   -1    0    0  503    0 -0.00000000000E+00  0.00000000000E+00  0.10282076049E+03  0.10282076049E+03  0.00000000000E+00 0. -1.
         21   -1    0    0  501  502  0.00000000000E+00 -0.00000000000E+00 -0.27215370319E+03  0.27215370319E+03  0.00000000000E+00 0. -1.
         24    2    1    2    0    0 -0.39438916288E+02  0.33086543947E+02 -0.64274909315E+02  0.11842506382E+03  0.85106311543E+02 0.  0.
         23    2    1    2    0    0  0.10216121842E+02  0.21560374857E+02 -0.66881709524E+02  0.11580630397E+03  0.91480697746E+02 0.  0.
        -11    1    3    3    0    0 -0.14552065474E+02  0.52161541559E+02 -0.90290615077E+01  0.54900937871E+02  0.00000000000E+00 0.  1.
         12    1    3    3    0    0 -0.24886850814E+02 -0.19074997612E+02 -0.55245847807E+02  0.63524125947E+02  0.00000000000E+00 0. -1.
        -13    1    4    4    0    0  0.40726865905E+02 -0.17719426874E+02 -0.26328991526E+02  0.51632078110E+02  0.00000000000E+00 0.  1.
         13    1    4    4    0    0 -0.30510744063E+02  0.39279801731E+02 -0.40552717998E+02  0.64174225856E+02  0.00000000000E+00 0. -1.
         21    1    1    2  503  502  0.22111031389E+01 -0.88800322641E+02 -0.11227856167E+02  0.89534635937E+02  0.00000000000E+00 0. -1.
          1    1    1    2  501    0  0.27011691308E+02  0.34153403838E+02 -0.26948467694E+02  0.51208459966E+02  0.00000000000E+00 0. -1.
<scales pt_clust_5="13000.00000" pt_clust_6="13000.00000" pt_clust_7="13000.00000" pt_clust_8="13000.00000" pt_clust_9="88.82789" pt_clust_10="13000.00000"></scales>
<clustering>
<clus scale="   85.106">  5  6 -1 -1</clus>
<clus scale="   88.828">  2  9  1 -1</clus>
<clus scale="   91.481">  7  8 -1 -1</clus>
<clus scale="   33.065">  7 10 -1 -1</clus>
<clus scale="   93.486">  1  5  2 -1</clus>
<clus scale="   88.828">  2  5  1 -1</clus>
</clustering>
</event>
<event>
10    4  0.2866397E-005  0.2929228E+03  0.7546771E-02  0.1135715E+00
         21   -1    0    0  503  502  0.00000000000E+00  0.00000000000E+00  0.37951915672E+02  0.37951915672E+02  0.00000000000E+00 0. -1.
          2   -1    0    0  502    0 -0.00000000000E+00 -0.00000000000E+00 -0.11990730935E+04  0.11990730935E+04  0.00000000000E+00 0. -1.
         24    2    1    2    0    0 -0.23593305673E+02 -0.37012438973E+02 -0.14570920058E+03  0.17218971638E+03  0.80570233858E+02 0.  0.
         23    2    1    2    0    0  0.11670686102E+03 -0.21773477054E+02 -0.30046908138E+03  0.33580668773E+03  0.91596326051E+02 0.  0.
        -13    1    3    3    0    0 -0.41153768859E+02 -0.47460976092E+02 -0.13548712741E+03  0.14934168419E+03  0.00000000000E+00 0.  1.
         14    1    3    3    0    0  0.17560463187E+02  0.10448537119E+02 -0.10222073167E+02  0.22848032193E+02  0.00000000000E+00 0. -1.
        -13    1    4    4    0    0  0.51885599123E+02  0.35969647463E+02 -0.12538701298E+03  0.14038459302E+03  0.00000000000E+00 0.  1.
         13    1    4    4    0    0  0.64821261894E+02 -0.57743124517E+02 -0.17508206840E+03  0.19542209471E+03  0.00000000000E+00 0. -1.
         21    1    1    2  503  501 -0.29665743636E+01  0.20757633820E+02 -0.27114478741E+02  0.34276447929E+02  0.00000000000E+00 0. -1.
          1    1    1    2  501    0 -0.90146980981E+02  0.38028282207E+02 -0.68782841713E+03  0.69475215714E+03  0.00000000000E+00 0. -1.
<scales pt_clust_5="13000.00000" pt_clust_6="13000.00000" pt_clust_7="13000.00000" pt_clust_8="13000.00000" pt_clust_9="20.96855" pt_clust_10="13000.00000"></scales>
<clustering>
<clus scale="   20.969">  1  9  2 -1</clus>
<clus scale="   80.570">  5  6 -1 -1</clus>
<clus scale="   89.137">  2  5  1 -1</clus>
<clus scale="   91.596">  7  8 -1 -1</clus>
<clus scale="  109.313">  7 10 -1 -1</clus>
<clus scale="   20.969">  1  5  2 -1</clus>
</clustering>
</event>
<event>
10    4  0.2866397E-005  0.2262986E+03  0.7546771E-02  0.1150645E+00
         -1   -1    0    0    0  501 -0.00000000000E+00  0.00000000000E+00  0.41973290071E+03  0.41973290071E+03  0.00000000000E+00 0.  1.
         21   -1    0    0  503  502  0.00000000000E+00 -0.00000000000E+00 -0.11035213043E+03  0.11035213043E+03  0.00000000000E+00 0.  1.
         24    2    1    2    0    0  0.73605604811E+02 -0.74809114839E+02  0.22454222901E+03  0.26079997764E+03  0.81137087729E+02 0.  0.
         23    2    1    2    0    0  0.11614873350E+02  0.38505168845E+02 -0.15769827469E+02  0.98284828314E+02  0.88281746174E+02 0.  0.
        -11    1    3    3    0    0  0.81249806879E+02 -0.82270117744E+02  0.22121558152E+03  0.24961217298E+03  0.00000000000E+00 0.  1.
         12    1    3    3    0    0 -0.76442020682E+01  0.74610029050E+01  0.33266474895E+01  0.11187804661E+02  0.00000000000E+00 0. -1.
        -13    1    4    4    0    0 -0.73457087127E+01  0.31725984604E+02 -0.49352270358E+02  0.59128200759E+02  0.00000000000E+00 0.  1.
         13    1    4    4    0    0  0.18960582063E+02  0.67791842413E+01  0.33582442888E+02  0.39156627555E+02  0.00000000000E+00 0. -1.
         21    1    1    2  503  501  0.21397164815E+02 -0.31920794532E+01  0.44387239956E+01  0.22084616910E+02  0.00000000000E+00 0.  1.
         -2    1    1    2    0  502 -0.10661764298E+03  0.39496025447E+02  0.96169644739E+02  0.14891560828E+03  0.00000000000E+00 0.  1.
<scales pt_clust_5="13000.00000" pt_clust_6="13000.00000" pt_clust_7="13000.00000" pt_clust_8="13000.00000" pt_clust_9="21.63396" pt_clust_10="13000.00000"></scales>
<clustering>
<clus scale="   21.634">  2  9  1 -1</clus>
<clus scale="   81.137">  5  6 -1 -1</clus>
<clus scale="   88.282">  7  8 -1 -1</clus>
<clus scale="  108.204">  7 10 -1 -1</clus>
<clus scale="  135.130">  1  5  2 -1</clus>
<clus scale="   21.634">  2  5  1 -1</clus>
</clustering>
</event>
<event>
10    4  0.2866397E-005  0.3480748E+03  0.7546771E-02  0.1101128E+00
         21   -1    0    0  503  502  0.00000000000E+00  0.00000000000E+00  0.51164089246E+02  0.51164089246E+02  0.00000000000E+00 0. -1.
         -3   -1    0    0    0  501 -0.00000000000E+00 -0.00000000000E+00 -0.25117217456E+04  0.25117217456E+04  0.00000000000E+00 0.  1.
         24    2    1    2    0    0 -0.88661430055E+02  0.46395629595E+01 -0.48870844720E+03  0.50320592207E+03  0.80609422003E+02 0.  0.
         23    2    1    2    0    0  0.70406007943E+02  0.14377090120E+03 -0.81202358895E+03  0.83241321223E+03  0.88895269320E+02 0.  0.
        -11    1    3    3    0    0 -0.19050539712E+02  0.34706054635E+02 -0.10819966042E+03  0.11521544952E+03  0.00000000000E+00 0.  1.
         12    1    3    3    0    0 -0.69610890343E+02 -0.30066491675E+02 -0.38050878678E+03  0.38799047256E+03  0.00000000000E+00 0. -1.
        -11    1    4    4    0    0  0.73092904363E+02  0.62187899734E+02 -0.33578576047E+03  0.34923056063E+03  0.00000000000E+00 0. -1.
         11    1    4    4    0    0 -0.26868964195E+01  0.81583001467E+02 -0.47623782847E+03  0.48318265160E+03  0.00000000000E+00 0.  1.
         21    1    1    2  503  501 -0.27252828598E+02  0.48101099771E+01  0.21582683395E+02  0.35095100044E+02  0.00000000000E+00 0. -1.
         -4    1    1    2    0  502  0.45508250710E+02 -0.15322057414E+03 -0.11814083036E+04  0.11921716005E+04  0.00000000000E+00 0.  1.
<scales pt_clust_5="13000.00000" pt_clust_6="13000.00000" pt_clust_7="13000.00000" pt_clust_8="13000.00000" pt_clust_9="27.67406" pt_clust_10="13000.00000"></scales>
<clustering>
<clus scale="   27.674">  1  9  2 -1</clus>
<clus scale="   80.609">  5  6 -1 -1</clus>
<clus scale="   88.895">  7  8 -1 -1</clus>
<clus scale="  126.516">  2  5  1 -1</clus>
<clus scale="  149.563">  7 10 -1 -1</clus>
<clus scale="   27.674">  1  5  2 -1</clus>
</clustering>
</event>
<event>
10    4  0.2866397E-005  0.3468898E+03  0.7546771E-02  0.1110236E+00
         21   -1    0    0  501  502  0.00000000000E+00  0.00000000000E+00  0.27908893624E+03  0.27908893624E+03  0.00000000000E+00 0. -1.
          2   -1    0    0  503    0 -0.00000000000E+00 -0.00000000000E+00 -0.87224370558E+03  0.87224370558E+03  0.00000000000E+00 0. -1.
         24    2    1    2    0    0  0.80824601242E+00  0.57968620082E+02 -0.61675294281E+03  0.62495491843E+03  0.82604136939E+02 0.  0.
         23    2    1    2    0    0 -0.11043701038E+03  0.46964353442E+02 -0.11290031323E+03  0.18826652179E+03  0.91081385271E+02 0.  0.
        -13    1    3    3    0    0  0.29554184286E+02  0.23498837401E+02 -0.11164779812E+03  0.11785956046E+03  0.00000000000E+00 0.  1.
         14    1    3    3    0    0 -0.28745938274E+02  0.34469782681E+02 -0.50510514469E+03  0.50709535797E+03  0.00000000000E+00 0. -1.
        -11    1    4    4    0    0 -0.23257777336E+02 -0.13841564759E+02  0.70809192357E+01  0.27975927846E+02  0.00000000000E+00 0.  1.
         11    1    4    4    0    0 -0.87179233041E+02  0.60805918201E+02 -0.11998123247E+03  0.16029059394E+03  0.00000000000E+00 0. -1.
         21    1    1    2  503  502 -0.31234642021E+02  0.13315883897E+02  0.14990909735E+03  0.15370638599E+03  0.00000000000E+00 0. -1.
          1    1    1    2  501    0  0.14086340639E+03 -0.11824885742E+03 -0.13410610660E+02  0.18440481561E+03  0.00000000000E+00 0. -1.
<scales pt_clust_5="13000.00000" pt_clust_6="13000.00000" pt_clust_7="13000.00000" pt_clust_8="13000.00000" pt_clust_9="33.95461" pt_clust_10="13000.00000"></scales>
<clustering>
<clus scale="   33.955">  1  9  2 -1</clus>
<clus scale="   82.604">  5  6 -1 -1</clus>
<clus scale="   91.081">  7  8 -1 -1</clus>
<clus scale="  101.162">  2  5  1 -1</clus>
<clus scale="  150.232">  7 10 -1 -1</clus>
<clus scale="   33.955">  1  5  2 -1</clus>
</clustering>
</event>
<event>
10    4  0.2866397E-005  0.2955517E+03  0.7546771E-02  0.1139242E+00
          2   -1    0    0  502    0 -0.00000000000E+00  0.00000000000E+00  0.53633557215E+02  0.53633557215E+02  0.00000000000E+00 0. -1.
         21   -1    0    0  503  502  0.00000000000E+00 -0.00000000000E+00 -0.98859592999E+03  0.98859592999E+03  0.00000000000E+00 0. -1.
         24    2    1    2    0    0  0.96675625539E+01 -0.66673024049E+01 -0.21770152718E+03  0.23191429467E+03  0.79071932116E+02 0.  0.
         23    2    1    2    0    0  0.21791757435E+02 -0.81266681426E+02 -0.57775884825E+02  0.13556893709E+03  0.89228524774E+02 0.  0.
        -11    1    3    3    0    0 -0.20599632046E+02  0.21197851604E+02 -0.41355066546E+02  0.50832423531E+02  0.00000000000E+00 0.  1.
         12    1    3    3    0    0  0.30267194600E+02 -0.27865154009E+02 -0.17634646063E+03  0.18108187114E+03  0.00000000000E+00 0. -1.
        -11    1    4    4    0    0  0.37485346500E+02 -0.24386986919E+02 -0.61963373350E+02  0.76415547960E+02  0.00000000000E+00 0.  1.
         11    1    4    4    0    0 -0.15693589065E+02 -0.56879694507E+02  0.41874885247E+01  0.59153389126E+02  0.00000000000E+00 0. -1.
         21    1    1    2  503  501 -0.44824289139E+02 -0.67126546764E+01 -0.26485320133E+03  0.26870335853E+03  0.00000000000E+00 0. -1.
          1    1    1    2  501    0  0.13364969151E+02  0.94646638508E+02 -0.39463175943E+03  0.40604289691E+03  0.00000000000E+00 0. -1.
<scales pt_clust_5="13000.00000" pt_clust_6="13000.00000" pt_clust_7="13000.00000" pt_clust_8="13000.00000" pt_clust_9="45.32413" pt_clust_10="13000.00000"></scales>
<clustering>
<clus scale="   45.324">  2  9  1 -1</clus>
<clus scale="   79.072">  5  6 -1 -1</clus>
<clus scale="   79.671">  1  5  2 -1</clus>
<clus scale="   89.229">  7  8 -1 -1</clus>
<clus scale="   90.461">  7 10 -1 -1</clus>
<clus scale="   45.324">  2  5  1 -1</clus>
</clustering>
</event>
<event>
10    4  0.2866397E-005  0.2604046E+03  0.7546771E-02  0.1134615E+00
          2   -1    0    0  503    0 -0.00000000000E+00  0.00000000000E+00  0.24152046834E+03  0.24152046834E+03  0.00000000000E+00 0. -1.
         21   -1    0    0  501  502  0.00000000000E+00 -0.00000000000E+00 -0.21004155993E+03  0.21004155993E+03  0.00000000000E+00 0. -1.
         24    2    1    2    0    0 -0.75568360183E+02 -0.58459754146E+02  0.36590308544E+02  0.12937744402E+03  0.79193133710E+02 0.  0.
         23    2    1    2    0    0  0.16377308186E+02 -0.46095554709E+02 -0.37506368540E+02  0.10907618628E+03  0.89988167801E+02 0.  0.
        -13    1    3    3    0    0 -0.48296581627E+02 -0.69007431642E+02  0.49186601108E+02  0.97539259517E+02  0.00000000000E+00 0.  1.
         14    1    3    3    0    0 -0.27271778556E+02  0.10547677496E+02 -0.12596292564E+02  0.31838184504E+02  0.00000000000E+00 0. -1.
        -13    1    4    4    0    0  0.35114710309E+01 -0.71949539190E+02 -0.18072427419E+02  0.74267619130E+02  0.00000000000E+00 0. -1.
         13    1    4    4    0    0  0.12865837155E+02  0.25853984481E+02 -0.19433941122E+02  0.34808567146E+02  0.00000000000E+00 0.  1.
         21    1    1    2  503  502 -0.25866189050E+02 -0.12392149783E+02 -0.41709047436E+02  0.50618867532E+02  0.00000000000E+00 0. -1.
          1    1    1    2  501    0  0.85057241047E+02  0.11694745864E+03  0.74104015848E+02  0.16248953044E+03  0.00000000000E+00 0. -1.
<scales pt_clust_5="13000.00000" pt_clust_6="13000.00000" pt_clust_7="13000.00000" pt_clust_8="13000.00000" pt_clust_9="28.68144" pt_clust_10="13000.00000"></scales>
<clustering>
<clus scale="   28.681">  2  9  1 -1</clus>
<clus scale="   79.193">  5  6 -1 -1</clus>
<clus scale="   89.988">  7  8 -1 -1</clus>
<clus scale="  130.317">  1  5  2 -1</clus>
<clus scale="   70.567">  7 10 -1 -1</clus>
<clus scale="   28.681">  2  5  1 -1</clus>
</clustering>
</event>
<event>
10    4  0.2866397E-005  0.1202415E+03  0.7546771E-02  0.1258717E+00
         21   -1    0    0  501  502  0.00000000000E+00  0.00000000000E+00  0.93859034773E+02  0.93859034773E+02  0.00000000000E+00 0.  1.
          2   -1    0    0  503    0 -0.00000000000E+00 -0.00000000000E+00 -0.25245021318E+03  0.25245021318E+03  0.00000000000E+00 0. -1.
         24    2    1    2    0    0  0.79047994357E+01 -0.23789731170E+02 -0.10165033000E+03  0.13271084175E+03  0.81553300149E+02 0.  0.
         23    2    1    2    0    0  0.24613312695E+02  0.42234820934E+02  0.76858454858E+01  0.10245553145E+03  0.89713256788E+02 0.  0.
        -13    1    3    3    0    0  0.38699207665E+02  0.82832333094E+01 -0.36523707639E+02  0.53853707836E+02  0.00000000000E+00 0.  1.
         14    1    3    3    0    0 -0.30794408230E+02 -0.32072964479E+02 -0.65126622364E+02  0.78857133915E+02  0.00000000000E+00 0. -1.
        -11    1    4    4    0    0  0.34256864730E+02  0.19563924289E+02  0.43667043104E+02  0.58848029433E+02  0.00000000000E+00 0.  1.
         11    1    4    4    0    0 -0.96435520349E+01  0.22670896645E+02 -0.35981197618E+02  0.43607502021E+02  0.00000000000E+00 0. -1.
         21    1    1    2  503  502 -0.52058664267E+02 -0.36148180831E+02 -0.39250132352E+02  0.74547759137E+02  0.00000000000E+00 0. -1.
          1    1    1    2  501    0  0.19540552137E+02  0.17703091066E+02 -0.25376561538E+02  0.36595115611E+02  0.00000000000E+00 0. -1.
<scales pt_clust_5="13000.00000" pt_clust_6="13000.00000" pt_clust_7="13000.00000" pt_clust_8="13000.00000" pt_clust_9="63.37823" pt_clust_10="13000.00000"></scales>
<clustering>
<clus scale="   63.378">  1  9  2 -1</clus>
<clus scale="   81.553">  5  6 -1 -1</clus>
<clus scale="   87.344">  2  5  1 -1</clus>
<clus scale="   89.713">  7  8 -1 -1</clus>
<clus scale="   17.242">  7 10 -1 -1</clus>
<clus scale="   63.378">  1  5  2 -1</clus>
</clustering>
</event>
<event>
10    4  0.2866397E-005  0.2923769E+03  0.7546771E-02  0.1118367E+00
         21   -1    0    0  501  502  0.00000000000E+00  0.00000000000E+00  0.15388364995E+03  0.15388364995E+03  0.00000000000E+00 0. -1.
          2   -1    0    0  503    0 -0.00000000000E+00 -0.00000000000E+00 -0.23194386911E+04  0.23194386911E+04  0.00000000000E+00 0. -1.
         24    2    1    2    0    0  0.95519298731E+02  0.73166789239E+02 -0.48544412172E+03  0.50456135859E+03  0.66699728573E+02 0.  0.
         23    2    1    2    0    0  0.27419701455E+02 -0.21040155294E+03 -0.11249745936E+04  0.11485420938E+04  0.92522708371E+02 0.  0.
        -11    1    3    3    0    0  0.24304285791E+02 -0.11075619421E+02 -0.11376456589E+03  0.11685779438E+03  0.00000000000E+00 0.  1.
         12    1    3    3    0    0  0.71215012940E+02  0.84242408661E+02 -0.37167955583E+03  0.38770356421E+03  0.00000000000E+00 0. -1.
        -11    1    4    4    0    0 -0.29049749993E+02 -0.27848385722E+02 -0.18067763316E+03  0.18510490995E+03  0.00000000000E+00 0.  1.
         11    1    4    4    0    0  0.56469451448E+02 -0.18255316722E+03 -0.94429696043E+03  0.96343718388E+03  0.00000000000E+00 0. -1.
         21    1    1    2  503  502 -0.19217399800E+02  0.19997263760E+03  0.46737825109E+02  0.20625903262E+03  0.00000000000E+00 0. -1.
          1    1    1    2  501    0 -0.10372160039E+03 -0.62737873899E+02 -0.60187415091E+03  0.61395985597E+03  0.00000000000E+00 0. -1.
<scales pt_clust_5="13000.00000" pt_clust_6="13000.00000" pt_clust_7="13000.00000" pt_clust_8="13000.00000" pt_clust_9="203.72737" pt_clust_10="13000.00000"></scales>
<clustering>
<clus scale="   66.700">  5  6 -1 -1</clus>
<clus scale="   92.523">  7  8 -1 -1</clus>
<clus scale="  121.220">  7 10 -1 -1</clus>
<clus scale="  137.572">  2  5  1 -1</clus>
<clus scale="  203.727">  1  9  2 -1</clus>
<clus scale="  203.727">  1  5  2 -1</clus>
</clustering>
</event>
<event>
10    4  0.2866397E-005  0.3324656E+03  0.7546771E-02  0.1105645E+00
          2   -1    0    0  503    0 -0.00000000000E+00  0.00000000000E+00  0.45017678719E+03  0.45017678719E+03  0.00000000000E+00 0. -1.
         21   -1    0    0  501  502  0.00000000000E+00 -0.00000000000E+00 -0.16130530214E+03  0.16130530214E+03  0.00000000000E+00 0.  1.
         24    2    1    2    0    0 -0.48816124074E+02  0.99990575494E+02  0.44007052957E+02  0.14422678788E+03  0.80520907070E+02 0.  0.
         23    2    1    2    0    0  0.23959794850E+02  0.64052725935E+02 -0.12847285086E+02  0.11281391886E+03  0.88798108570E+02 0.  0.
        -13    1    3    3    0    0 -0.21472997479E+02  0.97108322690E+02  0.92119253905E+01  0.99879805395E+02  0.00000000000E+00 0.  1.
         14    1    3    3    0    0 -0.27343126596E+02  0.28822528040E+01  0.34795127567E+02  0.44346982486E+02  0.00000000000E+00 0. -1.
        -13    1    4    4    0    0 -0.13539018615E+02  0.43543904752E+02 -0.41255770753E+02  0.61493213337E+02  0.00000000000E+00 0. -1.
         13    1    4    4    0    0  0.37498813465E+02  0.20508821183E+02  0.28408485666E+02  0.51320705524E+02  0.00000000000E+00 0.  1.
         21    1    1    2  503  502 -0.92524740731E+01 -0.34725764282E+02 -0.23574593489E+02  0.42979628193E+02  0.00000000000E+00 0.  1.
          1    1    1    2  501    0  0.34108803297E+02 -0.12931753715E+03  0.28128631068E+03  0.31146175439E+03  0.00000000000E+00 0. -1.
<scales pt_clust_5="13000.00000" pt_clust_6="13000.00000" pt_clust_7="13000.00000" pt_clust_8="13000.00000" pt_clust_9="35.93726" pt_clust_10="13000.00000"></scales>
<clustering>
<clus scale="   35.937">  2  9  1 -1</clus>
<clus scale="   80.521">  5  6 -1 -1</clus>
<clus scale="   88.798">  7  8 -1 -1</clus>
<clus scale="  129.221">  1  5  2 -1</clus>
<clus scale="   59.830">  7 10 -1 -1</clus>
<clus scale="   35.937">  2  5  1 -1</clus>
</clustering>
</event>
<event>
10    4  0.2866397E-005  0.2268187E+03  0.7546771E-02  0.1170591E+00
          2   -1    0    0  502    0 -0.00000000000E+00  0.00000000000E+00  0.20215539710E+03  0.20215539710E+03  0.00000000000E+00 0. -1.
         21   -1    0    0  503  502  0.00000000000E+00 -0.00000000000E+00 -0.16721363565E+03  0.16721363565E+03  0.00000000000E+00 0.  1.
         24    2    1    2    0    0  0.14175911497E+02 -0.12574711126E+02  0.59332915383E+02  0.10358893412E+03  0.82771931219E+02 0.  0.
         23    2    1    2    0    0 -0.61094215079E+02 -0.48203415143E+02 -0.77653996768E+02  0.14139800469E+03  0.88922326602E+02 0.  0.
        -13    1    3    3    0    0  0.18807881193E+02  0.32303619449E+02  0.14822518205E+02  0.40211531560E+02  0.00000000000E+00 0.  1.
         14    1    3    3    0    0 -0.46319696965E+01 -0.44878330575E+02  0.44510397177E+02  0.63377402561E+02  0.00000000000E+00 0. -1.
        -13    1    4    4    0    0 -0.58060078015E+02 -0.72926949907E+02 -0.59749572692E+02  0.11072183217E+03  0.00000000000E+00 0.  1.
         13    1    4    4    0    0 -0.30341370648E+01  0.24723534765E+02 -0.17904424076E+02  0.30676172520E+02  0.00000000000E+00 0. -1.
         21    1    1    2  503  501  0.38383306363E+01  0.33580742809E+02 -0.16807860441E+02  0.37747890568E+02  0.00000000000E+00 0. -1.
          1    1    1    2  501    0  0.43079972947E+02  0.27197383459E+02  0.70070703281E+02  0.86634203375E+02  0.00000000000E+00 0. -1.
<scales pt_clust_5="13000.00000" pt_clust_6="13000.00000" pt_clust_7="13000.00000" pt_clust_8="13000.00000" pt_clust_9="33.79939" pt_clust_10="13000.00000"></scales>
<clustering>
<clus scale="   33.799">  2  9  1 -1</clus>
<clus scale="   82.772">  5  6 -1 -1</clus>
<clus scale="   84.395">  1  5  2 -1</clus>
<clus scale="   88.922">  7  8 -1 -1</clus>
<clus scale="   58.775">  7 10 -1 -1</clus>
<clus scale="   33.799">  2  5  1 -1</clus>
</clustering>
</event>
<event>
10    4  0.2866397E-005  0.2520425E+03  0.7546771E-02  0.1134996E+00
         21   -1    0    0  503  502  0.00000000000E+00  0.00000000000E+00  0.26255249983E+03  0.26255249983E+03  0.00000000000E+00 0.  1.
          2   -1    0    0  502    0 -0.00000000000E+00 -0.00000000000E+00 -0.39838611243E+03  0.39838611243E+03  0.00000000000E+00 0. -1.
         24    2    1    2    0    0  0.69657470156E+02  0.11044245074E+03 -0.79508699623E+02  0.17288599162E+03  0.80735585142E+02 0.  0.
         23    2    1    2    0    0  0.16970553363E+02 -0.12428705267E+03 -0.11198251787E+03  0.19151488143E+03  0.91665666191E+02 0.  0.
        -11    1    3    3    0    0  0.86005536673E+02  0.79485094184E+02 -0.50981438705E+02  0.12772603348E+03  0.00000000000E+00 0.  1.
         12    1    3    3    0    0 -0.16348066516E+02  0.30957356553E+02 -0.28527260917E+02  0.45159958138E+02  0.00000000000E+00 0. -1.
        -13    1    4    4    0    0 -0.19716283151E+02 -0.11429368094E+03 -0.72912076555E+02  0.13699616138E+03  0.00000000000E+00 0.  1.
         13    1    4    4    0    0  0.36686836514E+02 -0.99933717295E+01 -0.39070441311E+02  0.54518720052E+02  0.00000000000E+00 0. -1.
         21    1    1    2  503  501 -0.10740258596E+02 -0.27652220351E+02  0.15901879359E+03  0.16176209433E+03  0.00000000000E+00 0.  1.
          1    1    1    2  501    0 -0.75887764923E+02  0.41496822285E+02 -0.10336118870E+03  0.13477564489E+03  0.00000000000E+00 0. -1.
<scales pt_clust_5="13000.00000" pt_clust_6="13000.00000" pt_clust_7="13000.00000" pt_clust_8="13000.00000" pt_clust_9="29.66477" pt_clust_10="13000.00000"></scales>
<clustering>
<clus scale="   29.665">  1  9  2 -1</clus>
<clus scale="   80.736">  5  6 -1 -1</clus>
<clus scale="   91.666">  7  8 -1 -1</clus>
<clus scale="   86.021">  7 10 -1 -1</clus>
<clus scale="  142.396">  2  5  1 -1</clus>
<clus scale="   29.665">  1  5  2 -1</clus>
</clustering>
</event>
<event>
10    4  0.2866397E-005  0.5631764E+03  0.7546771E-02  0.1058791E+00
          2   -1    0    0  503    0 -0.00000000000E+00  0.00000000000E+00  0.22722336327E+04  0.22722336327E+04  0.00000000000E+00 0. -1.
         21   -1    0    0  501  502  0.00000000000E+00 -0.00000000000E+00 -0.75021692934E+02  0.75021692934E+02  0.00000000000E+00 0. -1.
         24    2    1    2    0    0  0.37869683644E+02  0.26139017337E+02  0.99107015016E+03  0.99543866327E+03  0.80998324814E+02 0.  0.
         23    2    1    2    0    0  0.14472198408E+03  0.13129512270E+02  0.84707779322E+02  0.19230480606E+03  0.93214235966E+02 0.  0.
        -11    1    3    3    0    0  0.35612541960E+02 -0.75394153290E+01  0.17882150563E+03  0.18248897721E+03  0.00000000000E+00 0.  1.
         12    1    3    3    0    0  0.22571416838E+01  0.33678432666E+02  0.81224864454E+03  0.81294968606E+03  0.00000000000E+00 0. -1.
        -13    1    4    4    0    0  0.12189773771E+03  0.25009919566E+02  0.10233761011E+03  0.16111344133E+03  0.00000000000E+00 0.  1.
         13    1    4    4    0    0  0.22824246377E+02 -0.11880407296E+02 -0.17629830786E+02  0.31191364730E+02  0.00000000000E+00 0. -1.
         21    1    1    2  503  502  0.13169492589E+02  0.15793868662E+02  0.80385808162E+00  0.20579796165E+02  0.00000000000E+00 0. -1.
          1    1    1    2  501    0 -0.19576116032E+03 -0.55062398269E+02  0.11206301522E+04  0.11389320601E+04  0.00000000000E+00 0. -1.
<scales pt_clust_5="13000.00000" pt_clust_6="13000.00000" pt_clust_7="13000.00000" pt_clust_8="13000.00000" pt_clust_9="20.56409" pt_clust_10="13000.00000"></scales>
<clustering>
<clus scale="   20.564">  2  9  1 -1</clus>
<clus scale="   80.998">  5  6 -1 -1</clus>
<clus scale="   93.214">  7  8 -1 -1</clus>
<clus scale="   93.486">  1  5  2 -1</clus>
<clus scale="  163.342">  7 10 -1 -1</clus>
<clus scale="   20.564">  2  5  1 -1</clus>
</clustering>
</event>
<event>
10    4  0.2866397E-005  0.2882279E+03  0.7546771E-02  0.1125068E+00
          2   -1    0    0  502    0 -0.00000000000E+00  0.00000000000E+00  0.50215381267E+03  0.50215381267E+03  0.00000000000E+00 0. -1.
         21   -1    0    0  503  502  0.00000000000E+00 -0.00000000000E+00 -0.17846642011E+03  0.17846642011E+03  0.00000000000E+00 0. -1.
         24    2    1    2    0    0  0.84497763053E+02  0.10498560287E+02  0.22001159293E+03  0.24897877759E+03  0.79594214226E+02 0.  0.
         23    2    1    2    0    0 -0.11664191429E+03 -0.17518179091E+03  0.42340355593E+02  0.23369781725E+03  0.92346998016E+02 0.  0.
        -13    1    3    3    0    0  0.27756140413E+02  0.15989598387E+02  0.13530451716E+02  0.34772743792E+02  0.00000000000E+00 0.  1.
         14    1    3    3    0    0  0.56741622640E+02 -0.54910380996E+01  0.20648114121E+03  0.21420603380E+03  0.00000000000E+00 0. -1.
        -11    1    4    4    0    0 -0.12999002283E+03 -0.14809233801E+03  0.48375213690E+02  0.20290122699E+03  0.00000000000E+00 0. -1.
         11    1    4    4    0    0  0.13348108540E+02 -0.27089452897E+02 -0.60348580972E+01  0.30796590268E+02  0.00000000000E+00 0.  1.
         21    1    1    2  503  501  0.45449176120E+02  0.86269156294E+02  0.57108595439E-02  0.97508948155E+02  0.00000000000E+00 0. -1.
          1    1    1    2  501    0 -0.13305024884E+02  0.78414074327E+02  0.61329733182E+02  0.10043468978E+03  0.00000000000E+00 0. -1.
<scales pt_clust_5="13000.00000" pt_clust_6="13000.00000" pt_clust_7="13000.00000" pt_clust_8="13000.00000" pt_clust_9="97.50895" pt_clust_10="13000.00000"></scales>
<clustering>
<clus scale="   79.594">  5  6 -1 -1</clus>
<clus scale="   92.347">  7  8 -1 -1</clus>
<clus scale="   79.535">  7 10 -1 -1</clus>
<clus scale="   97.509">  2  9  1 -1</clus>
<clus scale="  121.506">  1  5  2 -1</clus>
<clus scale="   97.509">  2  5  1 -1</clus>
</clustering>
</event>
<event>
10    4  0.2866397E-005  0.2725392E+03  0.7546771E-02  0.1135287E+00
          2   -1    0    0  502    0 -0.00000000000E+00  0.00000000000E+00  0.61276749284E+03  0.61276749284E+03  0.00000000000E+00 0. -1.
         21   -1    0    0  503  502  0.00000000000E+00 -0.00000000000E+00 -0.13115760972E+03  0.13115760972E+03  0.00000000000E+00 0. -1.
         24    2    1    2    0    0 -0.47052288172E+02  0.63047549024E+02  0.36225644300E+03  0.37921149823E+03  0.79891918455E+02 0.  0.
         23    2    1    2    0    0 -0.48487868402E+02  0.96951426534E+01 -0.97576518943E+01  0.10475311643E+03  0.91831010333E+02 0.  0.
        -11    1    3    3    0    0  0.15156645722E+02  0.39407568516E+02  0.98083165441E+02  0.10678477283E+03  0.00000000000E+00 0.  1.
         12    1    3    3    0    0 -0.62208933894E+02  0.23639980508E+02  0.26417327756E+03  0.27242672539E+03  0.00000000000E+00 0. -1.
        -13    1    4    4    0    0 -0.12302604801E+01 -0.30091580850E+02  0.20031268298E+02  0.36169994312E+02  0.00000000000E+00 0.  1.
         13    1    4    4    0    0 -0.47257607922E+02  0.39786723504E+02 -0.29788920192E+02  0.68583122121E+02  0.00000000000E+00 0. -1.
         21    1    1    2  503  501 -0.21482768283E+02 -0.22169112245E+02 -0.38518186710E+02  0.49362228255E+02  0.00000000000E+00 0.  1.
          1    1    1    2  501    0  0.11702292486E+03 -0.50573579432E+02  0.16762927873E+03  0.21059825965E+03  0.00000000000E+00 0. -1.
<scales pt_clust_5="13000.00000" pt_clust_6="13000.00000" pt_clust_7="13000.00000" pt_clust_8="13000.00000" pt_clust_9="30.87036" pt_clust_10="13000.00000"></scales>
<clustering>
<clus scale="   30.870">  2  9  1 -1</clus>
<clus scale="   79.892">  5  6 -1 -1</clus>
<clus scale="   91.831">  7  8 -1 -1</clus>
<clus scale="  111.828">  1  5  2 -1</clus>
<clus scale="   75.452">  7 10 -1 -1</clus>
<clus scale="   30.870">  2  5  1 -1</clus>
</clustering>
</event>
<event>
10    4  0.2866397E-005  0.4159247E+03  0.7546771E-02  0.1051314E+00
          2   -1    0    0  503    0 -0.00000000000E+00  0.00000000000E+00  0.12766448780E+04  0.12766448780E+04  0.00000000000E+00 0. -1.
         21   -1    0    0  501  502  0.00000000000E+00 -0.00000000000E+00 -0.13846512403E+03  0.13846512403E+03  0.00000000000E+00 0. -1.
         24    2    1    2    0    0  0.12682199904E+03 -0.21334276700E+03  0.13336139053E+03  0.29255526353E+03  0.78767798372E+02 0.  0.
         23    2    1    2    0    0  0.58064488120E+02  0.19041531694E+03  0.45258421696E+03  0.50268107370E+03  0.90699011574E+02 0.  0.
        -11    1    3    3    0    0  0.54642427337E+02 -0.43502208291E+02  0.99475135010E+01  0.70549202804E+02  0.00000000000E+00 0.  1.
         12    1    3    3    0    0  0.72179571707E+02 -0.16984055871E+03  0.12341387703E+03  0.22200606072E+03  0.00000000000E+00 0. -1.
        -13    1    4    4    0    0 -0.10223011650E+02  0.12023025341E+03  0.25969267316E+03  0.28635661035E+03  0.00000000000E+00 0. -1.
         13    1    4    4    0    0  0.68287499770E+02  0.70185063531E+02  0.19289154381E+03  0.21632446334E+03  0.00000000000E+00 0.  1.
         21    1    1    2  503  502  0.90832428249E+01 -0.43936381735E+02  0.19357061742E+02  0.48863143365E+02  0.00000000000E+00 0.  1.
          1    1    1    2  501    0 -0.19396972999E+03  0.66863831795E+02  0.53287708475E+03  0.57101052145E+03  0.00000000000E+00 0. -1.
<scales pt_clust_5="13000.00000" pt_clust_6="13000.00000" pt_clust_7="13000.00000" pt_clust_8="13000.00000" pt_clust_9="44.86548" pt_clust_10="13000.00000"></scales>
<clustering>
<clus scale="   44.865">  2  9  1 -1</clus>
<clus scale="   78.768">  5  6 -1 -1</clus>
<clus scale="   90.699">  7  8 -1 -1</clus>
<clus scale="  201.728">  7 10 -1 -1</clus>
<clus scale="  286.672">  1  5  2 -1</clus>
<clus scale="   44.865">  2  5  1 -1</clus>
</clustering>
</event>
<event>
10    4  0.2866397E-005  0.3091056E+03  0.7546771E-02  0.1103109E+00
         21   -1    0    0  503  502  0.00000000000E+00  0.00000000000E+00  0.43922292736E+03  0.43922292736E+03  0.00000000000E+00 0. -1.
          2   -1    0    0  502    0 -0.00000000000E+00 -0.00000000000E+00 -0.19725760178E+03  0.19725760178E+03  0.00000000000E+00 0. -1.
         24    2    1    2    0    0 -0.25963936324E+02  0.15126912428E+03  0.97158579692E+02  0.19867171180E+03  0.80462323551E+02 0.  0.
         23    2    1    2    0    0 -0.40366635329E+02 -0.62567812043E+02  0.12229451241E+03  0.17016195305E+03  0.91950781127E+02 0.  0.
        -13    1    3    3    0    0 -0.43349073571E+02  0.75937459668E+02  0.20527360458E+02  0.89816549074E+02  0.00000000000E+00 0.  1.
         14    1    3    3    0    0  0.17385137247E+02  0.75331664610E+02  0.76631219234E+02  0.10885516272E+03  0.00000000000E+00 0. -1.
        -11    1    4    4    0    0  0.25786140298E+02 -0.90713448668E+01  0.96265794968E+01  0.28980775731E+02  0.00000000000E+00 0.  1.
         11    1    4    4    0    0 -0.66152775627E+02 -0.53496467176E+02  0.11266793291E+03  0.14118117732E+03  0.00000000000E+00 0. -1.
         21    1    1    2  503  501  0.31281215764E+02 -0.16772604545E+00  0.12435226548E+03  0.12822647356E+03  0.00000000000E+00 0.  1.
          1    1    1    2  501    0  0.35049355889E+02 -0.88533586189E+02 -0.10184003201E+03  0.13942039073E+03  0.00000000000E+00 0. -1.
<scales pt_clust_5="13000.00000" pt_clust_6="13000.00000" pt_clust_7="13000.00000" pt_clust_8="13000.00000" pt_clust_9="31.28167" pt_clust_10="13000.00000"></scales>
<clustering>
<clus scale="   31.282">  1  9  2 -1</clus>
<clus scale="   80.462">  5  6 -1 -1</clus>
<clus scale="   91.951">  7  8 -1 -1</clus>
<clus scale="   95.936">  7 10 -1 -1</clus>
<clus scale="  171.632">  2  5  1 -1</clus>
<clus scale="   31.282">  1  5  2 -1</clus>
</clustering>
</event>
<event>
10    4  0.2866397E-005  0.5113736E+03  0.7546771E-02  0.1036468E+00
         21   -1    0    0  501  502  0.00000000000E+00  0.00000000000E+00  0.18982115090E+03  0.18982115090E+03  0.00000000000E+00 0. -1.
          2   -1    0    0  503    0 -0.00000000000E+00 -0.00000000000E+00 -0.15243682276E+04  0.15243682276E+04  0.00000000000E+00 0. -1.
         24    2    1    2    0    0  0.11665146812E+03 -0.19279676382E+03 -0.85223846459E+03  0.88504796674E+03  0.78875507903E+02 0.  0.
         23    2    1    2    0    0 -0.22866762976E+03 -0.37035562581E+02 -0.42372806310E+03  0.49163787685E+03  0.92205274784E+02 0.  0.
        -13    1    3    3    0    0 -0.38847540019E+01 -0.56700076836E+02 -0.21475652583E+03  0.22214939886E+03  0.00000000000E+00 0.  1.
         14    1    3    3    0    0  0.12053622212E+03 -0.13609668699E+03 -0.63748193876E+03  0.66289856788E+03  0.00000000000E+00 0. -1.
        -13    1    4    4    0    0 -0.20123869476E+02  0.12171432239E+01 -0.11723597049E+03  0.11895681711E+03  0.00000000000E+00 0.  1.
         13    1    4    4    0    0 -0.20854376029E+03 -0.38252705805E+02 -0.30649209261E+03  0.37268105974E+03  0.00000000000E+00 0. -1.
         21    1    1    2  503  502  0.16529570778E+02  0.27141994556E+02  0.71627182369E+02  0.78360499186E+02  0.00000000000E+00 0. -1.
          1    1    1    2  501    0  0.95486590869E+02  0.20269033185E+03 -0.13020773142E+03  0.25914303576E+03  0.00000000000E+00 0. -1.
<scales pt_clust_5="13000.00000" pt_clust_6="13000.00000" pt_clust_7="13000.00000" pt_clust_8="13000.00000" pt_clust_9="31.77915" pt_clust_10="13000.00000"></scales>
<clustering>
<clus scale="   31.779">  1  9  2 -1</clus>
<clus scale="   78.876">  5  6 -1 -1</clus>
<clus scale="   92.205">  7  8 -1 -1</clus>
<clus scale="  236.803">  2  5  1 -1</clus>
<clus scale="  211.295">  7 10 -1 -1</clus>
<clus scale="   31.779">  1  5  2 -1</clus>
</clustering>
</event>
<event>
10    4  0.2866397E-005  0.7461607E+03  0.7546771E-02  0.1020945E+00
          2   -1    0    0  503    0 -0.00000000000E+00  0.00000000000E+00  0.11975086534E+04  0.11975086534E+04  0.00000000000E+00 0. -1.
         21   -1    0    0  501  502  0.00000000000E+00 -0.00000000000E+00 -0.23010890695E+04  0.23010890695E+04  0.00000000000E+00 0.  1.
         24    2    1    2    0    0 -0.53933368293E+02  0.71338476670E+02  0.62999528718E+03  0.64150457140E+03  0.81462057367E+02 0.  0.
         23    2    1    2    0    0 -0.11229610056E+03  0.11854920603E+03  0.49285030317E+03  0.52781611319E+03  0.94995260724E+02 0.  0.
        -13    1    3    3    0    0 -0.73562292681E+02  0.62732490119E+02  0.45201114083E+03  0.46223462404E+03  0.00000000000E+00 0.  1.
         14    1    3    3    0    0  0.19628924389E+02  0.86059865510E+01  0.17798414635E+03  0.17926994737E+03  0.00000000000E+00 0. -1.
        -11    1    4    4    0    0 -0.30630651684E+02 -0.79725852487E+01  0.15077712519E+03  0.15406342985E+03  0.00000000000E+00 0.  1.
         11    1    4    4    0    0 -0.81665448877E+02  0.12652179128E+03  0.34207317798E+03  0.37375268334E+03  0.00000000000E+00 0. -1.
         21    1    1    2  503  502  0.28250650769E+03 -0.30138472027E+03 -0.20464812722E+04  0.20877567564E+04  0.00000000000E+00 0.  1.
          1    1    1    2  501    0 -0.11627703884E+03  0.11149703756E+03 -0.17994473432E+03  0.24152028187E+03  0.00000000000E+00 0. -1.
<scales pt_clust_5="13000.00000" pt_clust_6="13000.00000" pt_clust_7="13000.00000" pt_clust_8="13000.00000" pt_clust_9="409.82217" pt_clust_10="13000.00000"></scales>
<clustering>
<clus scale="   81.462">  5  6 -1 -1</clus>
<clus scale="   94.995">  7  8 -1 -1</clus>
<clus scale="  120.971">  1  5  2 -1</clus>
<clus scale="  165.937">  7 10 -1 -1</clus>
<clus scale="  409.822">  2  9  1 -1</clus>
<clus scale="  409.822">  2  5  1 -1</clus>
</clustering>
</event>
<event>
10    4  0.2866397E-005  0.4090319E+03  0.7546771E-02  0.1084168E+00
         21   -1    0    0  501  502  0.00000000000E+00  0.00000000000E+00  0.31421464763E+03  0.31421464763E+03  0.00000000000E+00 0. -1.
          2   -1    0    0  503    0 -0.00000000000E+00 -0.00000000000E+00 -0.84632094272E+03  0.84632094272E+03  0.00000000000E+00 0. -1.
         24    2    1    2    0    0  0.73533012774E+02  0.34931179181E+02  0.19351290229E+03  0.23748178204E+03  0.11100928881E+03 0.  0.
         23    2    1    2    0    0  0.19959143492E+03 -0.83664708161E+02 -0.25080463504E+03  0.34333409464E+03  0.90215360664E+02 0.  0.
        -13    1    3    3    0    0 -0.30774818326E+01 -0.32501146048E+02  0.70141743426E+02  0.77367044403E+02  0.00000000000E+00 0.  1.
         14    1    3    3    0    0  0.76610494607E+02  0.67432325229E+02  0.12337115886E+03  0.16011473764E+03  0.00000000000E+00 0. -1.
        -13    1    4    4    0    0  0.14148644533E+02  0.16965838507E+02 -0.36029486568E+02  0.42262840897E+02  0.00000000000E+00 0.  1.
         13    1    4    4    0    0  0.18544279039E+03 -0.10063054667E+03 -0.21477514847E+03  0.30107125374E+03  0.00000000000E+00 0. -1.
         21    1    1    2  503  502 -0.13083161788E+03  0.75555216964E+01 -0.69827669282E+02  0.14849209252E+03  0.00000000000E+00 0. -1.
          1    1    1    2  501    0 -0.14229282982E+03  0.41178007283E+02 -0.40498689305E+03  0.43122762115E+03  0.00000000000E+00 0. -1.
<scales pt_clust_5="13000.00000" pt_clust_6="13000.00000" pt_clust_7="13000.00000" pt_clust_8="13000.00000" pt_clust_9="131.04967" pt_clust_10="13000.00000"></scales>
<clustering>
<clus scale="   90.215">  7  8 -1 -1</clus>
<clus scale="  111.009">  5  6 -1 -1</clus>
<clus scale="  131.050">  1  9  2 -1</clus>
<clus scale="  121.800">  2  5  1 -1</clus>
<clus scale="  179.935">  7 10 -1 -1</clus>
<clus scale="  131.050">  1  5  2 -1</clus>
</clustering>
</event>
<event>
10    4  0.2866397E-005  0.2184588E+03  0.7546771E-02  0.1174470E+00
         21   -1    0    0  501  502  0.00000000000E+00  0.00000000000E+00  0.26959321683E+03  0.26959321683E+03  0.00000000000E+00 0.  1.
          2   -1    0    0  503    0 -0.00000000000E+00 -0.00000000000E+00 -0.35467210840E+03  0.35467210840E+03  0.00000000000E+00 0. -1.
         24    2    1    2    0    0  0.10697395100E+02 -0.32022230355E+02 -0.27875456922E+03  0.29190520872E+03  0.79778966635E+02 0.  0.
         23    2    1    2    0    0 -0.82412999664E+01  0.22865215838E+02 -0.36093779133E+02  0.95974428577E+02  0.85542930323E+02 0.  0.
        -11    1    3    3    0    0  0.21038113986E+02  0.19330562598E+02 -0.53619612834E+02  0.60756364036E+02  0.00000000000E+00 0.  1.
         12    1    3    3    0    0 -0.10340718886E+02 -0.51352792953E+02 -0.22513495639E+03  0.23114884469E+03  0.00000000000E+00 0. -1.
        -11    1    4    4    0    0 -0.32661743466E+02  0.44346530826E+02 -0.14561636317E+02  0.56968811948E+02  0.00000000000E+00 0.  1.
         11    1    4    4    0    0  0.24420443500E+02 -0.21481314988E+02 -0.21532142816E+02  0.39005616629E+02  0.00000000000E+00 0. -1.
         21    1    1    2  503  502  0.20332377298E+02  0.18939606703E+02  0.82788476230E+02  0.87327235529E+02  0.00000000000E+00 0.  1.
          1    1    1    2  501    0 -0.22788472432E+02 -0.97825921863E+01  0.14698098056E+03  0.14905845240E+03  0.00000000000E+00 0. -1.
<scales pt_clust_5="13000.00000" pt_clust_6="13000.00000" pt_clust_7="13000.00000" pt_clust_8="13000.00000" pt_clust_9="27.78694" pt_clust_10="13000.00000"></scales>
<clustering>
<clus scale="   27.787">  1  9  2 -1</clus>
<clus scale="   79.779">  5  6 -1 -1</clus>
<clus scale="   85.543">  7  8 -1 -1</clus>
<clus scale="    8.441">  7 10 -1 -1</clus>
<clus scale="   86.474">  2  5  1 -1</clus>
<clus scale="   27.787">  1  5  2 -1</clus>
</clustering>
</event>
<event>
10    4  0.2866397E-005  0.3976839E+03  0.7546771E-02  0.1083215E+00
         21   -1    0    0  503  502  0.00000000000E+00  0.00000000000E+00  0.19662503884E+03  0.19662503884E+03  0.00000000000E+00 0. -1.
          2   -1    0    0  502    0 -0.00000000000E+00 -0.00000000000E+00 -0.11109387565E+04  0.11109387565E+04  0.00000000000E+00 0. -1.
         24    2    1    2    0    0 -0.90766070814E+02  0.56639914068E+02 -0.44189013622E+03  0.46240714936E+03  0.84302549249E+02 0.  0.
         23    2    1    2    0    0 -0.11781766944E+03 -0.63699471726E+02 -0.12057472178E+03  0.20231318328E+03  0.91944193200E+02 0.  0.
        -13    1    3    3    0    0 -0.36748949992E+02  0.55990109387E+02 -0.34531708562E+03  0.35175171257E+03  0.00000000000E+00 0.  1.
         14    1    3    3    0    0 -0.54017120821E+02  0.64980468109E+00 -0.96573050597E+02  0.11065543678E+03  0.00000000000E+00 0. -1.
        -13    1    4    4    0    0 -0.57570404953E+02 -0.61784874766E+01 -0.26826174271E+01  0.57963106113E+02  0.00000000000E+00 0. -1.
         13    1    4    4    0    0 -0.60247264490E+02 -0.57520984249E+02 -0.11789210436E+03  0.14435007716E+03  0.00000000000E+00 0.  1.
         21    1    1    2  503  501  0.13452044752E+02  0.16680303196E+02  0.12536676226E+03  0.12718496414E+03  0.00000000000E+00 0. -1.
          1    1    1    2  501    0  0.19513169550E+03 -0.96207455384E+01 -0.47721562187E+03  0.51565849852E+03  0.00000000000E+00 0. -1.
<scales pt_clust_5="13000.00000" pt_clust_6="13000.00000" pt_clust_7="13000.00000" pt_clust_8="13000.00000" pt_clust_9="21.42872" pt_clust_10="13000.00000"></scales>
<clustering>
<clus scale="   21.429">  1  9  2 -1</clus>
<clus scale="   84.303">  5  6 -1 -1</clus>
<clus scale="   91.944">  7  8 -1 -1</clus>
<clus scale="  135.951">  2  5  1 -1</clus>
<clus scale="  135.884">  7 10 -1 -1</clus>
<clus scale="   21.429">  1  5  2 -1</clus>
</clustering>
</event>
<event>
10    4  0.2866397E-005  0.2185835E+03  0.7546771E-02  0.1167915E+00
         21   -1    0    0  503  502  0.00000000000E+00  0.00000000000E+00  0.29667331167E+03  0.29667331167E+03  0.00000000000E+00 0. -1.
         -1   -1    0    0    0  501 -0.00000000000E+00 -0.00000000000E+00 -0.17770207769E+03  0.17770207769E+03  0.00000000000E+00 0.  1.
         24    2    1    2    0    0 -0.42901689941E+02 -0.37303994458E+02 -0.93564522866E+02  0.13631894308E+03  0.81218171010E+02 0.  0.
         23    2    1    2    0    0 -0.48426013707E+02 -0.80938388109E+01  0.60043032680E+02  0.12001341220E+03  0.91583100544E+02 0.  0.
        -13    1    3    3    0    0 -0.32768032259E+02 -0.63275723201E+02 -0.66754095725E+02  0.97640516082E+02  0.00000000000E+00 0.  1.
         14    1    3    3    0    0 -0.10133657682E+02  0.25971728743E+02 -0.26810427142E+02  0.38678427003E+02  0.00000000000E+00 0. -1.
        -13    1    4    4    0    0 -0.54297664895E+02  0.18599099584E+02  0.70359658511E+02  0.90800024582E+02  0.00000000000E+00 0.  1.
         13    1    4    4    0    0  0.58716511884E+01 -0.26692938395E+02 -0.10316625830E+02  0.29213387622E+02  0.00000000000E+00 0. -1.
         21    1    1    2  503  501 -0.86556915110E+01 -0.21427892706E+02  0.65947424468E+02  0.69879456032E+02  0.00000000000E+00 0. -1.
         -2    1    1    2    0  502  0.99983395159E+02  0.66825725975E+02  0.86545299694E+02  0.14816357804E+03  0.00000000000E+00 0.  1.
<scales pt_clust_5="13000.00000" pt_clust_6="13000.00000" pt_clust_7="13000.00000" pt_clust_8="13000.00000" pt_clust_9="23.11008" pt_clust_10="13000.00000"></scales>
<clustering>
<clus scale="   23.110">  1  9  2 -1</clus>
<clus scale="   81.218">  5  6 -1 -1</clus>
<clus scale="   91.583">  7  8 -1 -1</clus>
<clus scale="  100.260">  2  5  1 -1</clus>
<clus scale="   84.935">  7 10 -1 -1</clus>
<clus scale="   23.110">  1  5  2 -1</clus>
</clustering>
</event>
<event>
10    4  0.2866397E-005  0.3130971E+03  0.7546771E-02  0.1093263E+00
         21   -1    0    0  501  502  0.00000000000E+00  0.00000000000E+00  0.22825416572E+03  0.22825416572E+03  0.00000000000E+00 0. -1.
          2   -1    0    0  503    0 -0.00000000000E+00 -0.00000000000E+00 -0.11586859602E+04  0.11586859602E+04  0.00000000000E+00 0. -1.
         24    2    1    2    0    0 -0.11965962883E+02  0.15029680100E+03  0.15707759127E+03  0.23640270698E+03  0.92089942601E+02 0.  0.
         23    2    1    2    0    0 -0.21408338588E+02 -0.62267860337E+02 -0.13966166989E+03  0.17912140923E+03  0.90793688194E+02 0.  0.
        -13    1    3    3    0    0 -0.12281369049E+02  0.56768340334E+02  0.55654707729E+01  0.58347673089E+02  0.00000000000E+00 0.  1.
         14    1    3    3    0    0  0.31540616620E+00  0.93528460670E+02  0.15151212049E+03  0.17805503389E+03  0.00000000000E+00 0. -1.
        -13    1    4    4    0    0 -0.36245757802E+02 -0.21325383290E+02 -0.12698257729E+03  0.13376509958E+03  0.00000000000E+00 0.  1.
         13    1    4    4    0    0  0.14837419214E+02 -0.40942477048E+02 -0.12679092601E+02  0.45356309648E+02  0.00000000000E+00 0. -1.
         21    1    1    2  503  502  0.30638122867E+02  0.46949738597E+02 -0.11779248165E+03  0.13045321483E+03  0.00000000000E+00 0.  1.
          1    1    1    2  501    0  0.27361786027E+01 -0.13497867926E+03 -0.83005523426E+03  0.84096279492E+03  0.00000000000E+00 0. -1.
<scales pt_clust_5="13000.00000" pt_clust_6="13000.00000" pt_clust_7="13000.00000" pt_clust_8="13000.00000" pt_clust_9="56.06225" pt_clust_10="13000.00000"></scales>
<clustering>
<clus scale="   56.062">  1  9  2 -1</clus>
<clus scale="   90.794">  7  8 -1 -1</clus>
<clus scale="   92.090">  5  6 -1 -1</clus>
<clus scale="  133.870">  7 10 -1 -1</clus>
<clus scale="  213.411">  2  5  1 -1</clus>
<clus scale="   56.062">  1  5  2 -1</clus>
</clustering>
</event>
<event>
10    4  0.7089861E-005  0.6699892E+03  0.7546771E-02  0.1022653E+00
          2   -1    0    0  502    0 -0.00000000000E+00  0.00000000000E+00  0.10798573902E+04  0.10798573902E+04  0.00000000000E+00 0. -1.
         21   -1    0    0  503  502  0.00000000000E+00 -0.00000000000E+00 -0.24146090034E+03  0.24146090034E+03  0.00000000000E+00 0. -1.
         24    2    1    2    0    0  0.11177529696E+03  0.81628993222E+02  0.47058470881E+03  0.49703047904E+03  0.80201741760E+02 0.  0.
         23    2    1    2    0    0  0.11230549759E+03  0.93771612660E+02  0.47690730943E+03  0.50704871767E+03  0.90841511274E+02 0.  0.
        -11    1    3    3    0    0  0.20578235366E+02  0.33054762798E+01  0.14553040485E+02  0.25420089134E+02  0.00000000000E+00 0.  1.
         12    1    3    3    0    0  0.91197061595E+02  0.78323516942E+02  0.45603166832E+03  0.47161038990E+03  0.00000000000E+00 0. -1.
        -13    1    4    4    0    0  0.39460739655E+02  0.16077672658E+01  0.23301967464E+03  0.23634276730E+03  0.00000000000E+00 0.  1.
         13    1    4    4    0    0  0.72844757937E+02  0.92163845394E+02  0.24388763480E+03  0.27070595036E+03  0.00000000000E+00 0. -1.
         21    1    1    2  503  501 -0.23798961251E+02 -0.48491448052E+01 -0.37381651581E+02  0.44579060521E+02  0.00000000000E+00 0.  1.
          1    1    1    2  501    0 -0.20028183330E+03 -0.17055146108E+03 -0.71713876822E+02  0.27266003329E+03  0.00000000000E+00 0. -1.
<scales pt_clust_5="13000.00000" pt_clust_6="13000.00000" pt_clust_7="13000.00000" pt_clust_8="13000.00000" pt_clust_9="24.28796" pt_clust_10="13000.00000"></scales>
<clustering>
<clus scale="   24.288">  2  9  1 -1</clus>
<clus scale="   80.202">  5  6 -1 -1</clus>
<clus scale="   90.842">  7  8 -1 -1</clus>
<clus scale="  158.710">  1  5  2 -1</clus>
<clus scale="  254.700">  7 10 -1 -1</clus>
<clus scale="   24.288">  2  5  1 -1</clus>
</clustering>
</event>
<event>
10    4  0.2866397E-005  0.3539335E+03  0.7546771E-02  0.1111686E+00
          4   -1    0    0  503    0 -0.00000000000E+00  0.00000000000E+00  0.87382812819E+02  0.87382812819E+02  0.00000000000E+00 0. -1.
         21   -1    0    0  501  502  0.00000000000E+00 -0.00000000000E+00 -0.75164819644E+03  0.75164819644E+03  0.00000000000E+00 0. -1.
         24    2    1    2    0    0 -0.13902947357E+02  0.57732605559E+02 -0.20871128735E+03  0.23152816676E+03  0.80737505835E+02 0.  0.
         23    2    1    2    0    0 -0.12550514716E+03 -0.86496940573E+02 -0.10549461040E+03  0.20867518092E+03  0.95827739272E+02 0.  0.
        -13    1    3    3    0    0 -0.45562163537E+02  0.44227559718E+02 -0.15756848179E+03  0.16988176547E+03  0.00000000000E+00 0.  1.
         14    1    3    3    0    0  0.31659216180E+02  0.13505045841E+02 -0.51142805557E+02  0.61646401294E+02  0.00000000000E+00 0. -1.
        -11    1    4    4    0    0 -0.80213729732E+02 -0.10282046823E+03 -0.88578246869E+02  0.15764643017E+03  0.00000000000E+00 0. -1.
         11    1    4    4    0    0 -0.45291417429E+02  0.16323527661E+02 -0.16916363534E+02  0.51028750751E+02  0.00000000000E+00 0.  1.
         21    1    1    2  503  502  0.17310982310E+02 -0.44921025621E+02 -0.78078727488E+02  0.91727075270E+02  0.00000000000E+00 0. -1.
          3    1    1    2  501    0  0.12209711221E+03  0.73685360636E+02 -0.27198075838E+03  0.30710058631E+03  0.00000000000E+00 0. -1.
<scales pt_clust_5="13000.00000" pt_clust_6="13000.00000" pt_clust_7="13000.00000" pt_clust_8="13000.00000" pt_clust_9="48.14113" pt_clust_10="13000.00000"></scales>
<clustering>
<clus scale="   48.141">  2  9  1 -1</clus>
<clus scale="   80.738">  5  6 -1 -1</clus>
<clus scale="   91.794">  1  5  2 -1</clus>
<clus scale="   95.828">  7  8 -1 -1</clus>
<clus scale="  143.407">  7 10 -1 -1</clus>
<clus scale="   48.141">  2  5  1 -1</clus>
</clustering>
</event>
<event>
10    4  0.2866397E-005  0.2524322E+03  0.7546771E-02  0.1149617E+00
         21   -1    0    0  503  502  0.00000000000E+00  0.00000000000E+00  0.28471462765E+03  0.28471462765E+03  0.00000000000E+00 0. -1.
         -1   -1    0    0    0  501 -0.00000000000E+00 -0.00000000000E+00 -0.50436647126E+03  0.50436647126E+03  0.00000000000E+00 0.  1.
         24    2    1    2    0    0 -0.15849927256E+02 -0.69198146114E+02 -0.13377423347E+03  0.17479931436E+03  0.87290613141E+02 0.  0.
         23    2    1    2    0    0 -0.10022547550E+03  0.48411351318E+02 -0.90357720525E+02  0.16564720892E+03  0.82979969207E+02 0.  0.
        -13    1    3    3    0    0  0.27101753790E+02 -0.29626987411E+02 -0.15778820861E+02  0.43142028572E+02  0.00000000000E+00 0.  1.
         14    1    3    3    0    0 -0.42951681045E+02 -0.39571158703E+02 -0.11799541261E+03  0.13165728579E+03  0.00000000000E+00 0. -1.
        -13    1    4    4    0    0 -0.21812358527E+02 -0.70376844222E+01 -0.61091525832E+02  0.65249387085E+02  0.00000000000E+00 0.  1.
         13    1    4    4    0    0 -0.78413116968E+02  0.55449035740E+02 -0.29266194693E+02  0.10039782183E+03  0.00000000000E+00 0. -1.
         21    1    1    2  503  501  0.47949852928E+02  0.67420090678E+02  0.21077660764E+03  0.22643196627E+03  0.00000000000E+00 0. -1.
         -2    1    1    2    0  502  0.68125549823E+02 -0.46633295882E+02 -0.20629649725E+03  0.22220260935E+03  0.00000000000E+00 0.  1.
<scales pt_clust_5="13000.00000" pt_clust_6="13000.00000" pt_clust_7="13000.00000" pt_clust_8="13000.00000" pt_clust_9="82.73244" pt_clust_10="13000.00000"></scales>
<clustering>
<clus scale="   82.732">  1  9  2 -1</clus>
<clus scale="   82.980">  7  8 -1 -1</clus>
<clus scale="   83.333">  7 10 -1 -1</clus>
<clus scale="   87.291">  5  6 -1 -1</clus>
<clus scale="   99.757">  2  5  1 -1</clus>
<clus scale="   82.732">  1  5  2 -1</clus>
</clustering>
</event>
<event>
10    4  0.2866397E-005  0.2966965E+03  0.7546771E-02  0.1135414E+00
          2   -1    0    0  503    0 -0.00000000000E+00  0.00000000000E+00  0.13597682286E+04  0.13597682286E+04  0.00000000000E+00 0. -1.
         21   -1    0    0  501  502  0.00000000000E+00 -0.00000000000E+00 -0.49403840036E+02  0.49403840036E+02  0.00000000000E+00 0.  1.
         24    2    1    2    0    0  0.11653034022E+02 -0.29904719717E+02  0.23792268075E+03  0.25323946813E+03  0.80578785904E+02 0.  0.
         23    2    1    2    0    0  0.12762803670E+03  0.69487478414E+02  0.55706924382E+03  0.58273083490E+03  0.90175706991E+02 0.  0.
        -11    1    3    3    0    0 -0.32589628070E+02 -0.11641472379E+02  0.14042794472E+03  0.14462923423E+03  0.00000000000E+00 0.  1.
         12    1    3    3    0    0  0.44242662092E+02 -0.18263247338E+02  0.97494736034E+02  0.10861023390E+03  0.00000000000E+00 0. -1.
        -13    1    4    4    0    0  0.16873668326E+02  0.27587741828E+02  0.36070878196E+02  0.48444942314E+02  0.00000000000E+00 0.  1.
         13    1    4    4    0    0  0.11075436838E+03  0.41899736587E+02  0.52099836562E+03  0.53428589259E+03  0.00000000000E+00 0. -1.
         21    1    1    2  503  502 -0.21520124549E+02 -0.28086720885E+01 -0.16465883892E+02  0.27242058143E+02  0.00000000000E+00 0.  1.
          1    1    1    2  501    0 -0.11776094618E+03 -0.36774086609E+02  0.53183834790E+03  0.54595970748E+03  0.00000000000E+00 0. -1.
<scales pt_clust_5="13000.00000" pt_clust_6="13000.00000" pt_clust_7="13000.00000" pt_clust_8="13000.00000" pt_clust_9="21.70264" pt_clust_10="13000.00000"></scales>
<clustering>
<clus scale="   21.703">  2  9  1 -1</clus>
<clus scale="   80.579">  5  6 -1 -1</clus>
<clus scale="   86.410">  1  5  2 -1</clus>
<clus scale="   90.176">  7  8 -1 -1</clus>
<clus scale="  131.741">  7 10 -1 -1</clus>
<clus scale="   21.703">  2  5  1 -1</clus>
</clustering>
</event>
<event>
10    4  0.2866397E-005  0.4580424E+03  0.7546771E-02  0.1069569E+00
          2   -1    0    0  503    0 -0.00000000000E+00  0.00000000000E+00  0.12385212595E+04  0.12385212595E+04  0.00000000000E+00 0. -1.
         21   -1    0    0  501  502  0.00000000000E+00 -0.00000000000E+00 -0.12802208558E+03  0.12802208558E+03  0.00000000000E+00 0. -1.
         24    2    1    2    0    0 -0.53862730442E+02 -0.85219663389E+02  0.75550858279E+03  0.76653597364E+03  0.81367041609E+02 0.  0.
         23    2    1    2    0    0 -0.11741371333E+03 -0.12508263532E+03  0.15715655628E+03  0.25678980846E+03  0.10867923815E+03 0.  0.
        -13    1    3    3    0    0 -0.97901377969E+01 -0.45463082307E+02  0.12728344334E+03  0.13551314918E+03  0.00000000000E+00 0.  1.
         14    1    3    3    0    0 -0.44072592645E+02 -0.39756581082E+02  0.62822513945E+03  0.63102282447E+03  0.00000000000E+00 0. -1.
        -13    1    4    4    0    0 -0.10444221221E+03 -0.56284286596E+02  0.14220927770E+03  0.18520144511E+03  0.00000000000E+00 0.  1.
         13    1    4    4    0    0 -0.12971501127E+02 -0.68798348726E+02  0.14947278583E+02  0.71588363342E+02  0.00000000000E+00 0. -1.
         21    1    1    2  503  502  0.13376883386E+02  0.16581523727E+02  0.46247974847E+02  0.50919182197E+02  0.00000000000E+00 0.  1.
          1    1    1    2  501    0  0.15789956039E+03  0.19372077498E+03  0.15158606004E+03  0.29229838082E+03  0.00000000000E+00 0. -1.
<scales pt_clust_5="13000.00000" pt_clust_6="13000.00000" pt_clust_7="13000.00000" pt_clust_8="13000.00000" pt_clust_9="21.30466" pt_clust_10="13000.00000"></scales>
<clustering>
<clus scale="   21.305">  2  9  1 -1</clus>
<clus scale="   81.367">  5  6 -1 -1</clus>
<clus scale="  108.679">  7  8 -1 -1</clus>
<clus scale="  128.833">  1  5  2 -1</clus>
<clus scale="  208.058">  7 10 -1 -1</clus>
<clus scale="   21.305">  2  5  1 -1</clus>
</clustering>
</event>
<event>
10    4  0.2866397E-005  0.3927125E+03  0.7546771E-02  0.1095257E+00
         21   -1    0    0  501  502  0.00000000000E+00  0.00000000000E+00  0.11629652161E+03  0.11629652161E+03  0.00000000000E+00 0.  1.
         -1   -1    0    0    0  501 -0.00000000000E+00 -0.00000000000E+00 -0.66216314688E+03  0.66216314688E+03  0.00000000000E+00 0.  1.
         24    2    1    2    0    0 -0.59337222292E+02  0.41713890846E+02 -0.13101676651E+03  0.17055206537E+03  0.81618988325E+02 0.  0.
         23    2    1    2    0    0 -0.79486696335E+02  0.12825318119E+03 -0.74505349312E+02  0.19153257769E+03  0.91469491409E+02 0.  0.
        -11    1    3    3    0    0 -0.19547312171E+02  0.59951253393E+02 -0.94196364760E+02  0.11335433530E+03  0.00000000000E+00 0.  1.
         12    1    3    3    0    0 -0.39789910122E+02 -0.18237362547E+02 -0.36820401752E+02  0.57197730072E+02  0.00000000000E+00 0. -1.
        -11    1    4    4    0    0 -0.60387805200E+02  0.96996751062E+02 -0.95849334478E+02  0.14913802886E+03  0.00000000000E+00 0.  1.
         11    1    4    4    0    0 -0.19098891135E+02  0.31256430130E+02  0.21343985166E+02  0.42394548822E+02  0.00000000000E+00 0. -1.
         21    1    1    2  503  502  0.46630010744E+02 -0.24727029894E+02 -0.27898302065E+02  0.59700076779E+02  0.00000000000E+00 0.  1.
         -2    1    1    2    0  503  0.92193907884E+02 -0.14524004214E+03 -0.31244620738E+03  0.35667494866E+03  0.00000000000E+00 0.  1.
<scales pt_clust_5="13000.00000" pt_clust_6="13000.00000" pt_clust_7="13000.00000" pt_clust_8="13000.00000" pt_clust_9="52.78053" pt_clust_10="13000.00000"></scales>
<clustering>
<clus scale="   52.781">  1  9  2 -1</clus>
<clus scale="   81.619">  5  6 -1 -1</clus>
<clus scale="   91.469">  7  8 -1 -1</clus>
<clus scale="  102.639">  2  5  1 -1</clus>
<clus scale="  139.793">  7 10 -1 -1</clus>
<clus scale="   52.781">  1  5  2 -1</clus>
</clustering>
</event>
<event>
10    4  0.2866397E-005  0.3968160E+03  0.7546771E-02  0.1068498E+00
          2   -1    0    0  502    0 -0.00000000000E+00  0.00000000000E+00  0.99752430742E+03  0.99752430742E+03  0.00000000000E+00 0. -1.
         21   -1    0    0  503  502  0.00000000000E+00 -0.00000000000E+00 -0.11438603663E+03  0.11438603663E+03  0.00000000000E+00 0. -1.
         24    2    1    2    0    0  0.85582274215E+02  0.17788175769E+03  0.40546492820E+03  0.46019798022E+03  0.91728554033E+02 0.  0.
         23    2    1    2    0    0  0.10884520792E+03 -0.85044648691E+02  0.10926371613E+03  0.20425723449E+03  0.10345330648E+03 0.  0.
        -11    1    3    3    0    0  0.12509844100E+02  0.41397102159E+02  0.26227044237E+02  0.50577407169E+02  0.00000000000E+00 0.  1.
         12    1    3    3    0    0  0.73072430115E+02  0.13648465553E+03  0.37923788396E+03  0.40962057305E+03  0.00000000000E+00 0. -1.
        -11    1    4    4    0    0  0.80071372434E+02 -0.16731702186E+02  0.10055004186E+03  0.12962131561E+03  0.00000000000E+00 0. -1.
         11    1    4    4    0    0  0.28773835484E+02 -0.68312946505E+02  0.87136742738E+01  0.74635918887E+02  0.00000000000E+00 0.  1.
         21    1    1    2  503  501 -0.21919875260E+02 -0.48518353376E+02  0.21350790814E+02  0.57361727781E+02  0.00000000000E+00 0.  1.
          1    1    1    2  501    0 -0.17250760687E+03 -0.44318755626E+02  0.34705883566E+03  0.39009340155E+03  0.00000000000E+00 0. -1.
<scales pt_clust_5="13000.00000" pt_clust_6="13000.00000" pt_clust_7="13000.00000" pt_clust_8="13000.00000" pt_clust_9="53.24013" pt_clust_10="13000.00000"></scales>
<clustering>
<clus scale="   53.240">  2  9  1 -1</clus>
<clus scale="   91.729">  5  6 -1 -1</clus>
<clus scale="  103.453">  7  8 -1 -1</clus>
<clus scale="  185.776">  7 10 -1 -1</clus>
<clus scale="  204.065">  1  5  2 -1</clus>
<clus scale="   53.240">  2  5  1 -1</clus>
</clustering>
</event>
<event>
10    4  0.2866397E-005  0.4013811E+03  0.7546771E-02  0.1068654E+00
         21   -1    0    0  503  502  0.00000000000E+00  0.00000000000E+00  0.30180851802E+03  0.30180851802E+03  0.00000000000E+00 0. -1.
          2   -1    0    0  502    0 -0.00000000000E+00 -0.00000000000E+00 -0.45876441163E+03  0.45876441163E+03  0.00000000000E+00 0. -1.
         24    2    1    2    0    0  0.27548416821E+02  0.18032499839E+03 -0.24215115404E+03  0.31348092669E+03  0.79731359447E+02 0.  0.
         23    2    1    2    0    0 -0.18215331695E+02  0.81214069985E+02 -0.58389269861E+02  0.13647035393E+03  0.91034758174E+02 0.  0.
        -13    1    3    3    0    0  0.25062068496E+02  0.21436449667E+02 -0.14917644886E+02  0.36196198427E+02  0.00000000000E+00 0.  1.
         14    1    3    3    0    0  0.24863483252E+01  0.15888854873E+03 -0.22723350915E+03  0.27728472826E+03  0.00000000000E+00 0. -1.
        -13    1    4    4    0    0 -0.41978675496E+02  0.88361564834E+02 -0.40495037266E+02  0.10587645338E+03  0.00000000000E+00 0.  1.
         13    1    4    4    0    0  0.23763343801E+02 -0.71474948492E+01 -0.17894232596E+02  0.30593900559E+02  0.00000000000E+00 0. -1.
         21    1    1    2  503  501 -0.41791487766E+00 -0.21436315078E+02  0.47014670835E+02  0.51672715534E+02  0.00000000000E+00 0. -1.
          1    1    1    2  501    0 -0.89151702482E+01 -0.24010275330E+03  0.96569859458E+02  0.25894893350E+03  0.00000000000E+00 0. -1.
<scales pt_clust_5="13000.00000" pt_clust_6="13000.00000" pt_clust_7="13000.00000" pt_clust_8="13000.00000" pt_clust_9="21.44039" pt_clust_10="13000.00000"></scales>
<clustering>
<clus scale="   21.440">  1  9  2 -1</clus>
<clus scale="   79.731">  5  6 -1 -1</clus>
<clus scale="   91.035">  7  8 -1 -1</clus>
<clus scale="  196.334">  2  5  1 -1</clus>
<clus scale="  167.814">  7 10 -1 -1</clus>
<clus scale="   21.440">  1  5  2 -1</clus>
</clustering>
</event>
<event>
10    4  0.2866397E-005  0.3338724E+03  0.7546771E-02  0.1083357E+00
         21   -1    0    0  503  502  0.00000000000E+00  0.00000000000E+00  0.31242730610E+03  0.31242730610E+03  0.00000000000E+00 0. -1.
          2   -1    0    0  502    0 -0.00000000000E+00 -0.00000000000E+00 -0.67671196792E+03  0.67671196792E+03  0.00000000000E+00 0. -1.
         24    2    1    2    0    0  0.95030057260E+02 -0.19659685929E+03 -0.41762126445E+03  0.47779622944E+03  0.78744393307E+02 0.  0.
         23    2    1    2    0    0 -0.28154164686E+02  0.16054035898E+03 -0.17985260852E+03  0.25908649745E+03  0.90625540124E+02 0.  0.
        -13    1    3    3    0    0 -0.61922569585E+01 -0.45500259216E+02 -0.51547419534E+02  0.69034441372E+02  0.00000000000E+00 0.  1.
         14    1    3    3    0    0  0.10122231422E+03 -0.15109660007E+03 -0.36607384492E+03  0.40876178806E+03  0.00000000000E+00 0. -1.
        -13    1    4    4    0    0 -0.27648571895E+02  0.17799422748E+01 -0.25264895765E+02  0.37495688824E+02  0.00000000000E+00 0. -1.
         13    1    4    4    0    0 -0.50559279117E+00  0.15876041670E+03 -0.15458771275E+03  0.22159080863E+03  0.00000000000E+00 0.  1.
         21    1    1    2  503  501 -0.24720327121E+02  0.69505416683E+01  0.16490688252E+03  0.16689423149E+03  0.00000000000E+00 0. -1.
          1    1    1    2  501    0 -0.42155565453E+02  0.29105958641E+02  0.68282328630E+02  0.85362315633E+02  0.00000000000E+00 0. -1.
<scales pt_clust_5="13000.00000" pt_clust_6="13000.00000" pt_clust_7="13000.00000" pt_clust_8="13000.00000" pt_clust_9="25.67887" pt_clust_10="13000.00000"></scales>
<clustering>
<clus scale="   25.679">  1  9  2 -1</clus>
<clus scale="   78.744">  5  6 -1 -1</clus>
<clus scale="   90.626">  7  8 -1 -1</clus>
<clus scale="   64.112">  7 10 -1 -1</clus>
<clus scale="  228.875">  2  5  1 -1</clus>
<clus scale="   25.679">  1  5  2 -1</clus>
</clustering>
</event>
<event>
10    4  0.2866397E-005  0.2223176E+03  0.7546771E-02  0.1150075E+00
         21   -1    0    0  503  502  0.00000000000E+00  0.00000000000E+00  0.99062629156E+02  0.99062629156E+02  0.00000000000E+00 0. -1.
         -3   -1    0    0    0  501 -0.00000000000E+00 -0.00000000000E+00 -0.89340498986E+03  0.89340498986E+03  0.00000000000E+00 0.  1.
         24    2    1    2    0    0  0.38374510577E+02 -0.95447020740E+02  0.18522288844E+02  0.13212235185E+03  0.80811532868E+02 0.  0.
         23    2    1    2    0    0 -0.10042637880E+03  0.65826984123E+02 -0.63804819858E+03  0.65590378721E+03  0.93196700374E+02 0.  0.
        -11    1    3    3    0    0 -0.19589617569E+02 -0.49902418319E+02 -0.71040522893E+01  0.54078387823E+02  0.00000000000E+00 0.  1.
         12    1    3    3    0    0  0.57964128146E+02 -0.45544602421E+02  0.25626341133E+02  0.78043964028E+02  0.00000000000E+00 0. -1.
        -13    1    4    4    0    0 -0.59763516657E+02 -0.13585873844E+02 -0.30607498907E+03  0.31215084947E+03  0.00000000000E+00 0.  1.
         13    1    4    4    0    0 -0.40662862144E+02  0.79412857967E+02 -0.33197320951E+03  0.34375293774E+03  0.00000000000E+00 0. -1.
         21    1    1    2  503  501  0.13462861531E+02 -0.16296164473E+02 -0.46908029041E+01  0.21652188089E+02  0.00000000000E+00 0. -1.
         -4    1    1    2    0  502  0.48589006694E+02  0.45916201090E+02 -0.17012564806E+03  0.18278929187E+03  0.00000000000E+00 0.  1.
<scales pt_clust_5="13000.00000" pt_clust_6="13000.00000" pt_clust_7="13000.00000" pt_clust_8="13000.00000" pt_clust_9="21.13797" pt_clust_10="13000.00000"></scales>
<clustering>
<clus scale="   21.138">  1  9  2 -1</clus>
<clus scale="   80.812">  5  6 -1 -1</clus>
<clus scale="   93.197">  7  8 -1 -1</clus>
<clus scale="   66.770">  7 10 -1 -1</clus>
<clus scale="  144.458">  2  5  1 -1</clus>
<clus scale="   21.138">  1  5  2 -1</clus>
</clustering>
</event>
<event>
10    4  0.2866397E-005  0.2760707E+03  0.7546771E-02  0.1115491E+00
         21   -1    0    0  503  502  0.00000000000E+00  0.00000000000E+00  0.15148502239E+03  0.15148502239E+03  0.00000000000E+00 0. -1.
          2   -1    0    0  502    0 -0.00000000000E+00 -0.00000000000E+00 -0.70542659588E+03  0.70542659588E+03  0.00000000000E+00 0. -1.
         24    2    1    2    0    0 -0.44916596614E+02 -0.15252498210E+03  0.46545167553E+02  0.18403011627E+03  0.80120286167E+02 0.  0.
         23    2    1    2    0    0  0.10352422230E+03  0.52259599986E+02 -0.18635830372E+03  0.23811885793E+03  0.92319243622E+02 0.  0.
        -11    1    3    3    0    0  0.74310393261E+01 -0.80356982170E+02 -0.53411763251E+01  0.80876406285E+02  0.00000000000E+00 0.  1.
         12    1    3    3    0    0 -0.52347635940E+02 -0.72167999925E+02  0.51886343878E+02  0.10315370998E+03  0.00000000000E+00 0. -1.
        -11    1    4    4    0    0  0.71678988820E+02  0.75271056424E+02 -0.10486616775E+03  0.14765000004E+03  0.00000000000E+00 0. -1.
         11    1    4    4    0    0  0.31845233476E+02 -0.23011456439E+02 -0.81492135968E+02  0.90468857886E+02  0.00000000000E+00 0.  1.
         21    1    1    2  503  501 -0.22801764564E+02  0.11923164825E+02 -0.32733646051E+02  0.41636209127E+02  0.00000000000E+00 0. -1.
          1    1    1    2  501    0 -0.35805861118E+02  0.88342217285E+02 -0.38139479128E+03  0.39312643495E+03  0.00000000000E+00 0. -1.
<scales pt_clust_5="13000.00000" pt_clust_6="13000.00000" pt_clust_7="13000.00000" pt_clust_8="13000.00000" pt_clust_9="25.73097" pt_clust_10="13000.00000"></scales>
<clustering>
<clus scale="   25.731">  1  9  2 -1</clus>
<clus scale="   80.120">  5  6 -1 -1</clus>
<clus scale="   92.319">  7  8 -1 -1</clus>
<clus scale="   96.108">  7 10 -1 -1</clus>
<clus scale="  175.676">  2  5  1 -1</clus>
<clus scale="   25.731">  1  5  2 -1</clus>
</clustering>
</event>
<event>
10    4  0.2866397E-005  0.3080055E+03  0.7546771E-02  0.1135160E+00
          2   -1    0    0  503    0 -0.00000000000E+00  0.00000000000E+00  0.15465860075E+04  0.15465860075E+04  0.00000000000E+00 0. -1.
         21   -1    0    0  501  502  0.00000000000E+00 -0.00000000000E+00 -0.28098048260E+03  0.28098048260E+03  0.00000000000E+00 0. -1.
         24    2    1    2    0    0 -0.13077634667E+02 -0.24491791847E+02  0.75135824888E+03  0.75543265440E+03  0.73269398629E+02 0.  0.
         23    2    1    2    0    0 -0.10152172203E+03 -0.94226860932E+02  0.53628779880E+03  0.56044964733E+03  0.85521007257E+02 0.  0.
        -13    1    3    3    0    0 -0.11279642836E+02  0.16522966532E+02  0.69033240644E+02  0.71873688366E+02  0.00000000000E+00 0.  1.
         14    1    3    3    0    0 -0.17979918310E+01 -0.41014758379E+02  0.68232500824E+03  0.68355896603E+03  0.00000000000E+00 0. -1.
        -11    1    4    4    0    0 -0.52104704880E+02  0.12130576777E+01  0.23068052019E+03  0.23649497706E+03  0.00000000000E+00 0. -1.
         11    1    4    4    0    0 -0.49417017146E+02 -0.95439918609E+02  0.30560727861E+03  0.32395467026E+03  0.00000000000E+00 0.  1.
         21    1    1    2  503  502  0.31320345113E+02  0.16809348652E+02 -0.24781483908E+03  0.25035117872E+03  0.00000000000E+00 0. -1.
          1    1    1    2  501    0  0.83279011579E+02  0.10190930413E+03  0.22577431632E+03  0.26133300968E+03  0.00000000000E+00 0. -1.
<scales pt_clust_5="13000.00000" pt_clust_6="13000.00000" pt_clust_7="13000.00000" pt_clust_8="13000.00000" pt_clust_9="35.54600" pt_clust_10="13000.00000"></scales>
<clustering>
<clus scale="   35.546">  2  9  1 -1</clus>
<clus scale="   73.269">  5  6 -1 -1</clus>
<clus scale="   77.714">  1  5  2 -1</clus>
<clus scale="   85.521">  7  8 -1 -1</clus>
<clus scale="  140.205">  7 10 -1 -1</clus>
<clus scale="   35.546">  2  5  1 -1</clus>
</clustering>
</event>
<event>
10    4  0.2866397E-005  0.2348491E+03  0.7546771E-02  0.1147248E+00
          4   -1    0    0  503    0 -0.00000000000E+00  0.00000000000E+00  0.71652152798E+03  0.71652152798E+03  0.00000000000E+00 0. -1.
         21   -1    0    0  501  502  0.00000000000E+00 -0.00000000000E+00 -0.82525160771E+02  0.82525160771E+02  0.00000000000E+00 0. -1.
         24    2    1    2    0    0 -0.87373403246E+02  0.54066882703E+00  0.14476039394E+02  0.11937971866E+03  0.80047221021E+02 0.  0.
         23    2    1    2    0    0 -0.12671672174E+02 -0.51253837495E+02  0.34190570297E+03  0.35725795701E+03  0.89141522256E+02 0.  0.
        -11    1    3    3    0    0 -0.53247928876E+02 -0.32782770688E+02  0.29818089039E+02  0.69276045048E+02  0.00000000000E+00 0.  1.
         12    1    3    3    0    0 -0.34125474370E+02  0.33323439515E+02 -0.15342049646E+02  0.50103673612E+02  0.00000000000E+00 0. -1.
        -13    1    4    4    0    0 -0.38492531471E+02 -0.63964714886E+02  0.25570114247E+03  0.26637611378E+03  0.00000000000E+00 0.  1.
         13    1    4    4    0    0  0.25820859297E+02  0.12710877391E+02  0.86204560497E+02  0.90881843232E+02  0.00000000000E+00 0. -1.
         21    1    1    2  503  502 -0.22871750465E+02  0.12483491067E+02  0.15311485298E+02  0.30222443657E+02  0.00000000000E+00 0.  1.
          3    1    1    2  501    0  0.12291682589E+03  0.38229677601E+02  0.26230313955E+03  0.29218656943E+03  0.00000000000E+00 0. -1.
<scales pt_clust_5="13000.00000" pt_clust_6="13000.00000" pt_clust_7="13000.00000" pt_clust_8="13000.00000" pt_clust_9="26.05676" pt_clust_10="13000.00000"></scales>
<clustering>
<clus scale="   26.057">  2  9  1 -1</clus>
<clus scale="   80.047">  5  6 -1 -1</clus>
<clus scale="   89.142">  7  8 -1 -1</clus>
<clus scale="  125.171">  7 10 -1 -1</clus>
<clus scale="  131.055">  1  5  2 -1</clus>
<clus scale="   26.057">  2  5  1 -1</clus>
</clustering>
</event>
<event>
10    4  0.2866397E-005  0.6644955E+03  0.7546771E-02  0.9960582E-01
         21   -1    0    0  503  502  0.00000000000E+00  0.00000000000E+00  0.20770365363E+04  0.20770365363E+04  0.00000000000E+00 0. -1.
         -1   -1    0    0    0  501 -0.00000000000E+00 -0.00000000000E+00 -0.39281690854E+03  0.39281690854E+03  0.00000000000E+00 0.  1.
         24    2    1    2    0    0 -0.28774049704E+03 -0.13960678142E+03  0.10617966047E+01  0.32906014144E+03  0.77426108129E+02 0.  0.
         23    2    1    2    0    0 -0.52505951491E+02 -0.31891325029E+02 -0.36626677136E+02  0.11573964460E+03  0.90995715831E+02 0.  0.
        -11    1    3    3    0    0 -0.12597560543E+03 -0.37303896224E+02  0.31880365255E+02  0.13519538278E+03  0.00000000000E+00 0.  1.
         12    1    3    3    0    0 -0.16176489161E+03 -0.10230288520E+03 -0.30818568651E+02  0.19386475866E+03  0.00000000000E+00 0. -1.
        -11    1    4    4    0    0 -0.32949691032E+02 -0.27522790840E+02  0.25859676081E+02  0.50118948530E+02  0.00000000000E+00 0.  1.
         11    1    4    4    0    0 -0.19556260459E+02 -0.43685341892E+01 -0.62486353217E+02  0.65620696068E+02  0.00000000000E+00 0. -1.
         21    1    1    2  503  501 -0.15194092710E+03 -0.19479334745E+03  0.11871357185E+04  0.12125682281E+04  0.00000000000E+00 0. -1.
         -2    1    1    2    0  502  0.49218737562E+03  0.36629145390E+03  0.53264878978E+03  0.81248543075E+03  0.00000000000E+00 0.  1.
<scales pt_clust_5="13000.00000" pt_clust_6="13000.00000" pt_clust_7="13000.00000" pt_clust_8="13000.00000" pt_clust_9="247.04351" pt_clust_10="13000.00000"></scales>
<clustering>
<clus scale="   77.426">  5  6 -1 -1</clus>
<clus scale="   90.996">  7  8 -1 -1</clus>
<clus scale="  247.044">  1  9  2 -1</clus>
<clus scale="  370.309">  2  5  1 -1</clus>
<clus scale="  265.341">  7 10 -1 -1</clus>
<clus scale="  247.044">  1  5  2 -1</clus>
</clustering>
</event>
<event>
10    4  0.2866397E-005  0.2228820E+03  0.7546771E-02  0.1166203E+00
         21   -1    0    0  501  502  0.00000000000E+00  0.00000000000E+00  0.96874039373E+02  0.96874039373E+02  0.00000000000E+00 0. -1.
          2   -1    0    0  503    0 -0.00000000000E+00 -0.00000000000E+00 -0.74368499100E+03  0.74368499100E+03  0.00000000000E+00 0. -1.
         24    2    1    2    0    0  0.30918600680E+02  0.49737680610E+02  0.16508900207E+02  0.99741780671E+02  0.79032159814E+02 0.  0.
         23    2    1    2    0    0  0.59780820558E+02  0.38807868115E+02 -0.32926210157E+03  0.34971172008E+03  0.93834740378E+02 0.  0.
        -11    1    3    3    0    0  0.24289783690E+02  0.26512334227E+02 -0.30331157143E+02  0.47041221833E+02  0.00000000000E+00 0.  1.
         12    1    3    3    0    0  0.66288169893E+01  0.23225346383E+02  0.46840057350E+02  0.52700558838E+02  0.00000000000E+00 0. -1.
        -11    1    4    4    0    0  0.42880044710E+02 -0.13606462130E+02 -0.24467724401E+03  0.24877859189E+03  0.00000000000E+00 0. -1.
         11    1    4    4    0    0  0.16900775848E+02  0.52414330246E+02 -0.84584857558E+02  0.10093312820E+03  0.00000000000E+00 0.  1.
         21    1    1    2  503  502 -0.18813419543E+02 -0.11675133856E+03 -0.25232635023E+03  0.27866360874E+03  0.00000000000E+00 0. -1.
          1    1    1    2  501    0 -0.71886001695E+02  0.28205789840E+02 -0.81731400030E+02  0.11244192088E+03  0.00000000000E+00 0. -1.
<scales pt_clust_5="13000.00000" pt_clust_6="13000.00000" pt_clust_7="13000.00000" pt_clust_8="13000.00000" pt_clust_9="98.20108" pt_clust_10="13000.00000"></scales>
<clustering>
<clus scale="   79.032">  5  6 -1 -1</clus>
<clus scale="   93.835">  7  8 -1 -1</clus>
<clus scale="   77.222">  7 10 -1 -1</clus>
<clus scale="   98.366">  2  5  1 -1</clus>
<clus scale="   98.201">  1  9  2 -1</clus>
<clus scale="   98.201">  1  5  2 -1</clus>
</clustering>
</event>
<event>
10    4  0.2866397E-005  0.4130198E+03  0.7546771E-02  0.1092961E+00
         21   -1    0    0  503  502  0.00000000000E+00  0.00000000000E+00  0.14422604315E+03  0.14422604315E+03  0.00000000000E+00 0.  1.
          2   -1    0    0  502    0 -0.00000000000E+00 -0.00000000000E+00 -0.60224501103E+03  0.60224501103E+03  0.00000000000E+00 0. -1.
         24    2    1    2    0    0 -0.29706703437E+02  0.23025166383E+02 -0.17242555935E+03  0.19600199304E+03  0.85285175976E+02 0.  0.
         23    2    1    2    0    0 -0.13559559662E+03 -0.16873821360E+03 -0.18183357173E+03  0.29738005548E+03  0.92264289091E+02 0.  0.
        -13    1    3    3    0    0  0.14865656488E+01 -0.27285060936E+02 -0.24610796900E+02  0.36774661817E+02  0.00000000000E+00 0.  1.
         14    1    3    3    0    0 -0.31193269085E+02  0.50310227319E+02 -0.14781476245E+03  0.15922733122E+03  0.00000000000E+00 0. -1.
        -13    1    4    4    0    0 -0.24984255104E+02 -0.45256836492E+01  0.41597021088E+01  0.25729320575E+02  0.00000000000E+00 0.  1.
         13    1    4    4    0    0 -0.11061134151E+03 -0.16421252995E+03 -0.18599327384E+03  0.27165073491E+03  0.00000000000E+00 0. -1.
         21    1    1    2  503  501  0.18978838296E+02  0.41392088327E+02  0.90600873651E-01  0.45535804459E+02  0.00000000000E+00 0. -1.
          1    1    1    2  501    0  0.14632346176E+03  0.10432095889E+03 -0.10385043767E+03  0.20755320120E+03  0.00000000000E+00 0. -1.
<scales pt_clust_5="13000.00000" pt_clust_6="13000.00000" pt_clust_7="13000.00000" pt_clust_8="13000.00000" pt_clust_9="45.53571" pt_clust_10="13000.00000"></scales>
<clustering>
<clus scale="   45.536">  1  9  2 -1</clus>
<clus scale="   85.285">  5  6 -1 -1</clus>
<clus scale="   92.264">  7  8 -1 -1</clus>
<clus scale="   93.709">  2  5  1 -1</clus>
<clus scale="  195.233">  7 10 -1 -1</clus>
<clus scale="   45.536">  1  5  2 -1</clus>
</clustering>
</event>
<event>
10    4  0.2866397E-005  0.5630196E+03  0.7546771E-02  0.1006276E+00
         21   -1    0    0  501  502  0.00000000000E+00  0.00000000000E+00  0.20086296318E+03  0.20086296318E+03  0.00000000000E+00 0. -1.
          2   -1    0    0  503    0 -0.00000000000E+00 -0.00000000000E+00 -0.18533224930E+04  0.18533224930E+04  0.00000000000E+00 0. -1.
         24    2    1    2    0    0 -0.16295504921E+03 -0.39455496787E+03 -0.26541303323E+03  0.50882012586E+03  0.78904192137E+02 0.  0.
         23    2    1    2    0    0 -0.88207231400E+02  0.52044437152E+02 -0.28961554529E+03  0.32011409323E+03  0.90037378367E+02 0.  0.
        -13    1    3    3    0    0 -0.32391387219E+02 -0.12773193677E+03 -0.11938628898E+03  0.17781376671E+03  0.00000000000E+00 0.  1.
         14    1    3    3    0    0 -0.13056366199E+03 -0.26682303110E+03 -0.14602674425E+03  0.33100635914E+03  0.00000000000E+00 0. -1.
        -11    1    4    4    0    0 -0.49258740535E+02 -0.18578797611E+02 -0.82689781972E+02  0.98026502959E+02  0.00000000000E+00 0.  1.
         11    1    4    4    0    0 -0.38948490865E+02  0.70623234763E+02 -0.20692576331E+03  0.22208759027E+03  0.00000000000E+00 0. -1.
         21    1    1    2  503  502  0.27349460301E+02 -0.22145389016E+02  0.11192446969E+02  0.36928066597E+02  0.00000000000E+00 0.  1.
          1    1    1    2  501    0  0.22381282031E+03  0.36465591974E+03 -0.11086233983E+04  0.11883231705E+04  0.00000000000E+00 0. -1.
<scales pt_clust_5="13000.00000" pt_clust_6="13000.00000" pt_clust_7="13000.00000" pt_clust_8="13000.00000" pt_clust_9="35.19107" pt_clust_10="13000.00000"></scales>
<clustering>
<clus scale="   35.191">  1  9  2 -1</clus>
<clus scale="   78.904">  5  6 -1 -1</clus>
<clus scale="   90.037">  7  8 -1 -1</clus>
<clus scale="  426.905">  7 10 -1 -1</clus>
<clus scale="  441.514">  2  5  1 -1</clus>
<clus scale="   35.191">  1  5  2 -1</clus>
</clustering>
</event>
<event>
10    4  0.2866397E-005  0.1941808E+03  0.7546771E-02  0.1190881E+00
          2   -1    0    0  503    0 -0.00000000000E+00  0.00000000000E+00  0.12246482483E+04  0.12246482483E+04  0.00000000000E+00 0. -1.
         21   -1    0    0  501  502  0.00000000000E+00 -0.00000000000E+00 -0.28911733017E+02  0.28911733017E+02  0.00000000000E+00 0. -1.
         24    2    1    2    0    0  0.11495617759E+02  0.71784514589E+01  0.54314308398E+03  0.54960293429E+03  0.82917406550E+02 0.  0.
         23    2    1    2    0    0 -0.91943932595E+02 -0.43806275849E+02  0.51546650927E+03  0.53494781405E+03  0.10045280001E+03 0.  0.
        -13    1    3    3    0    0  0.34180774357E+02 -0.25049496319E+02  0.21805732054E+03  0.22213688942E+03  0.00000000000E+00 0.  1.
         14    1    3    3    0    0 -0.22685156597E+02  0.32227947777E+02  0.32508576344E+03  0.32746604486E+03  0.00000000000E+00 0. -1.
        -13    1    4    4    0    0  0.19347662416E+02 -0.22458499011E+02  0.99507863556E+02  0.10382933655E+03  0.00000000000E+00 0.  1.
         13    1    4    4    0    0 -0.11129159501E+03 -0.21347776838E+02  0.41595864571E+03  0.43111847750E+03  0.00000000000E+00 0. -1.
         21    1    1    2  503  502  0.30437512309E+02  0.21415641316E+02  0.23714761136E+02  0.44130054887E+02  0.00000000000E+00 0. -1.
          1    1    1    2  501    0  0.50010802527E+02  0.15212183074E+02  0.11341216093E+03  0.12487917813E+03  0.00000000000E+00 0. -1.
<scales pt_clust_5="13000.00000" pt_clust_6="13000.00000" pt_clust_7="13000.00000" pt_clust_8="13000.00000" pt_clust_9="37.21655" pt_clust_10="13000.00000"></scales>
<clustering>
<clus scale="   37.217">  2  9  1 -1</clus>
<clus scale="   82.917">  5  6 -1 -1</clus>
<clus scale="   85.289">  1  5  2 -1</clus>
<clus scale="  100.453">  7  8 -1 -1</clus>
<clus scale="   68.988">  7 10 -1 -1</clus>
<clus scale="   37.217">  2  5  1 -1</clus>
</clustering>
</event>
<event>
10    4  0.3082558E-005  0.2233805E+03  0.7546771E-02  0.1170881E+00
         21   -1    0    0  503  502  0.00000000000E+00  0.00000000000E+00  0.23874359775E+03  0.23874359775E+03  0.00000000000E+00 0.  1.
          2   -1    0    0  502    0 -0.00000000000E+00 -0.00000000000E+00 -0.98160912572E+03  0.98160912572E+03  0.00000000000E+00 0. -1.
         24    2    1    2    0    0  0.17464872843E+02 -0.25769587514E+02 -0.34563007049E+03  0.35659982077E+03  0.82062129622E+02 0.  0.
         23    2    1    2    0    0  0.14699196643E+01 -0.16721565337E+02 -0.16060222326E+03  0.18568880761E+03  0.91681447112E+02 0.  0.
        -11    1    3    3    0    0  0.99459149119E+01  0.21918450192E+02 -0.36493580736E+02  0.43716371272E+02  0.00000000000E+00 0.  1.
         12    1    3    3    0    0  0.75189579310E+01 -0.47688037707E+02 -0.30913648976E+03  0.31288344950E+03  0.00000000000E+00 0. -1.
        -13    1    4    4    0    0  0.46046723611E+02 -0.24915710117E+01 -0.72294999212E+02  0.85750076341E+02  0.00000000000E+00 0.  1.
         13    1    4    4    0    0 -0.44576803947E+02 -0.14229994325E+02 -0.88307224050E+02  0.99938731271E+02  0.00000000000E+00 0. -1.
         21    1    1    2  503  501  0.65501666662E+02 -0.62380746005E+02  0.20087841500E+03  0.22030425194E+03  0.00000000000E+00 0.  1.
          1    1    1    2  501    0 -0.84436459170E+02  0.10487189886E+03 -0.43751164921E+03  0.45775984315E+03  0.00000000000E+00 0. -1.
<scales pt_clust_5="13000.00000" pt_clust_6="13000.00000" pt_clust_7="13000.00000" pt_clust_8="13000.00000" pt_clust_9="90.92212" pt_clust_10="13000.00000"></scales>
<clustering>
<clus scale="   82.062">  5  6 -1 -1</clus>
<clus scale="   87.768">  2  5  1 -1</clus>
<clus scale="   90.922">  1  9  2 -1</clus>
<clus scale="   91.681">  7  8 -1 -1</clus>
<clus scale="   77.977">  7 10 -1 -1</clus>
<clus scale="   90.922">  1  5  2 -1</clus>
</clustering>
</event>
<event>
10    4  0.2866397E-005  0.2491062E+03  0.7546771E-02  0.1143758E+00
         21   -1    0    0  501  502  0.00000000000E+00  0.00000000000E+00  0.79036728110E+02  0.79036728110E+02  0.00000000000E+00 0.  1.
          2   -1    0    0  503    0 -0.00000000000E+00 -0.00000000000E+00 -0.68919582653E+03  0.68919582653E+03  0.00000000000E+00 0. -1.
         24    2    1    2    0    0  0.10326765165E+03 -0.10043352974E+02 -0.43281170309E+02  0.13861284090E+03  0.81087503002E+02 0.  0.
         23    2    1    2    0    0  0.21971630133E+02  0.30234813099E+02 -0.85737757734E+02  0.12802121679E+03  0.87416087719E+02 0.  0.
        -11    1    3    3    0    0  0.10683261445E+03  0.13479900673E+02 -0.38426750960E+02  0.11433079384E+03  0.00000000000E+00 0.  1.
         12    1    3    3    0    0 -0.35649628008E+01 -0.23523253647E+02 -0.48544193498E+01  0.24282047054E+02  0.00000000000E+00 0. -1.
        -13    1    4    4    0    0  0.48812377227E+02 -0.65847402667E+01 -0.39873938525E+02  0.63371428487E+02  0.00000000000E+00 0.  1.
         13    1    4    4    0    0 -0.26840747095E+02  0.36819553366E+02 -0.45863819209E+02  0.64649788299E+02  0.00000000000E+00 0. -1.
         21    1    1    2  503  502 -0.24778347386E+02  0.97809082352E+01 -0.39206879878E+02  0.47400549521E+02  0.00000000000E+00 0.  1.
          1    1    1    2  501    0 -0.10046093439E+03 -0.29972368360E+02 -0.44193329050E+03  0.45419794744E+03  0.00000000000E+00 0. -1.
<scales pt_clust_5="13000.00000" pt_clust_6="13000.00000" pt_clust_7="13000.00000" pt_clust_8="13000.00000" pt_clust_9="26.63894" pt_clust_10="13000.00000"></scales>
<clustering>
<clus scale="   26.639">  1  9  2 -1</clus>
<clus scale="   81.088">  5  6 -1 -1</clus>
<clus scale="   87.416">  7  8 -1 -1</clus>
<clus scale="  106.559">  7 10 -1 -1</clus>
<clus scale="  119.362">  2  5  1 -1</clus>
<clus scale="   26.639">  1  5  2 -1</clus>
</clustering>
</event>
<event>
10    4  0.2866397E-005  0.1639044E+03  0.7546771E-02  0.1218288E+00
          2   -1    0    0  503    0 -0.00000000000E+00  0.00000000000E+00  0.52967088829E+03  0.52967088829E+03  0.00000000000E+00 0. -1.
         21   -1    0    0  501  502  0.00000000000E+00 -0.00000000000E+00 -0.18870080436E+03  0.18870080436E+03  0.00000000000E+00 0. -1.
         24    2    1    2    0    0 -0.13011269706E+02  0.12138935438E+02  0.41413371549E+03  0.42143711672E+03  0.76064854939E+02 0.  0.
         23    2    1    2    0    0  0.42919172779E+01  0.14984492533E+02  0.63017733483E+02  0.11181411333E+03  0.91039582800E+02 0.  0.
        -11    1    3    3    0    0 -0.17400028334E+02 -0.22360078505E+02  0.69500609242E+02  0.75053772602E+02  0.00000000000E+00 0.  1.
         12    1    3    3    0    0  0.43887586280E+01  0.34499013943E+02  0.34463310625E+03  0.34638334412E+03  0.00000000000E+00 0. -1.
        -13    1    4    4    0    0 -0.27040939979E+02 -0.28159961059E+02  0.26976911482E+02  0.47454710987E+02  0.00000000000E+00 0.  1.
         13    1    4    4    0    0  0.31332857256E+02  0.43144453592E+02  0.36040822001E+02  0.64359402344E+02  0.00000000000E+00 0. -1.
         21    1    1    2  503  502 -0.36111983465E+02  0.14130951048E+02 -0.11378262127E+03  0.12020916783E+03  0.00000000000E+00 0. -1.
          1    1    1    2  501    0  0.44831335893E+02 -0.41254379019E+02 -0.22398743768E+02  0.64911294769E+02  0.00000000000E+00 0. -1.
<scales pt_clust_5="13000.00000" pt_clust_6="13000.00000" pt_clust_7="13000.00000" pt_clust_8="13000.00000" pt_clust_9="38.77833" pt_clust_10="13000.00000"></scales>
<clustering>
<clus scale="   38.778">  2  9  1 -1</clus>
<clus scale="   76.065">  5  6 -1 -1</clus>
<clus scale="   78.560">  1  5  2 -1</clus>
<clus scale="   91.040">  7  8 -1 -1</clus>
<clus scale="   37.383">  7 10 -1 -1</clus>
<clus scale="   38.778">  2  5  1 -1</clus>
</clustering>
</event>
<event>
10    4  0.2866397E-005  0.2126033E+03  0.7546771E-02  0.1169029E+00
         21   -1    0    0  501  502  0.00000000000E+00  0.00000000000E+00  0.21994025418E+03  0.21994025418E+03  0.00000000000E+00 0. -1.
          2   -1    0    0  503    0 -0.00000000000E+00 -0.00000000000E+00 -0.64245464292E+03  0.64245464292E+03  0.00000000000E+00 0. -1.
         24    2    1    2    0    0  0.61974793347E+02  0.33898601295E+02 -0.39814718214E+03  0.41207025732E+03  0.79314110613E+02 0.  0.
         23    2    1    2    0    0 -0.64419816282E+02  0.49107842757E+02 -0.56904093856E+02  0.13499133738E+03  0.91777406374E+02 0.  0.
        -11    1    3    3    0    0  0.21540684342E+02 -0.61145166167E+01 -0.21135728544E+02  0.30791352950E+02  0.00000000000E+00 0.  1.
         12    1    3    3    0    0  0.40434109005E+02  0.40013117911E+02 -0.37701145360E+03  0.38127890437E+03  0.00000000000E+00 0. -1.
        -13    1    4    4    0    0 -0.18680141380E+02 -0.27444179862E+02 -0.16927869930E+02  0.37265043548E+02  0.00000000000E+00 0.  1.
         13    1    4    4    0    0 -0.45739674903E+02  0.76552022619E+02 -0.39976223926E+02  0.97726293835E+02  0.00000000000E+00 0. -1.
         21    1    1    2  503  502  0.81113733480E+02 -0.14575004703E+03  0.99724569440E+02  0.19433863156E+03  0.00000000000E+00 0. -1.
          1    1    1    2  501    0 -0.78668710545E+02  0.62743602975E+02 -0.67187682184E+02  0.12099467083E+03  0.00000000000E+00 0. -1.
<scales pt_clust_5="13000.00000" pt_clust_6="13000.00000" pt_clust_7="13000.00000" pt_clust_8="13000.00000" pt_clust_9="167.49671" pt_clust_10="13000.00000"></scales>
<clustering>
<clus scale="   79.314">  5  6 -1 -1</clus>
<clus scale="   91.777">  7  8 -1 -1</clus>
<clus scale="  100.626">  7 10 -1 -1</clus>
<clus scale="  106.211">  2  5  1 -1</clus>
<clus scale="  167.497">  1  9  2 -1</clus>
<clus scale="  167.497">  1  5  2 -1</clus>
</clustering>
</event>
<event>
10    4  0.2866397E-005  0.1722266E+03  0.7546771E-02  0.1192996E+00
         21   -1    0    0  501  502  0.00000000000E+00  0.00000000000E+00  0.18944961544E+03  0.18944961544E+03  0.00000000000E+00 0.  1.
          2   -1    0    0  503    0 -0.00000000000E+00 -0.00000000000E+00 -0.35455525303E+03  0.35455525303E+03  0.00000000000E+00 0. -1.
         24    2    1    2    0    0 -0.58718928537E+02  0.45943491483E+02  0.19906031515E-01  0.10996107857E+03  0.80825252403E+02 0.  0.
         23    2    1    2    0    0  0.86383562286E+01 -0.21548884620E+00 -0.15698521248E+03  0.18207568225E+03  0.91828805381E+02 0.  0.
        -11    1    3    3    0    0 -0.24459316614E+02  0.27314950710E+02 -0.39876891024E+02  0.54171312881E+02  0.00000000000E+00 0.  1.
         12    1    3    3    0    0 -0.34259611923E+02  0.18628540772E+02  0.39896797055E+02  0.55789765690E+02  0.00000000000E+00 0. -1.
        -13    1    4    4    0    0  0.31519092243E+02 -0.81779075388E+01 -0.11418481115E+02  0.34506710341E+02  0.00000000000E+00 0.  1.
         13    1    4    4    0    0 -0.22880736015E+02  0.79624186926E+01 -0.14556673136E+03  0.14756897191E+03  0.00000000000E+00 0. -1.
         21    1    1    2  503  502 -0.30591127255E+02 -0.26904975205E+02  0.10449204322E+03  0.11215293957E+03  0.00000000000E+00 0.  1.
          1    1    1    2  501    0  0.80671699563E+02 -0.18823027432E+02 -0.11263237436E+03  0.13981516808E+03  0.00000000000E+00 0. -1.
<scales pt_clust_5="13000.00000" pt_clust_6="13000.00000" pt_clust_7="13000.00000" pt_clust_8="13000.00000" pt_clust_9="40.73935" pt_clust_10="13000.00000"></scales>
<clustering>
<clus scale="   40.739">  1  9  2 -1</clus>
<clus scale="   80.825">  5  6 -1 -1</clus>
<clus scale="   91.829">  7  8 -1 -1</clus>
<clus scale="   79.067">  7 10 -1 -1</clus>
<clus scale="  116.677">  2  5  1 -1</clus>
<clus scale="   40.739">  1  5  2 -1</clus>
</clustering>
</event>
<event>
10    4  0.2866397E-005  0.1345352E+03  0.7546771E-02  0.1244710E+00
          2   -1    0    0  503    0 -0.00000000000E+00  0.00000000000E+00  0.78918810952E+03  0.78918810952E+03  0.00000000000E+00 0. -1.
         21   -1    0    0  501  502  0.00000000000E+00 -0.00000000000E+00 -0.47148015361E+02  0.47148015361E+02  0.00000000000E+00 0.  1.
         24    2    1    2    0    0 -0.15007319229E+02  0.32805470983E+02  0.16219657176E+03  0.18467754230E+03  0.80601787714E+02 0.  0.
         23    2    1    2    0    0 -0.12223965528E+02 -0.39955714736E+02  0.41079894577E+03  0.42263770897E+03  0.90116450898E+02 0.  0.
        -11    1    3    3    0    0  0.28241418195E+02  0.13571053580E+02  0.10926751237E+03  0.11367119449E+03  0.00000000000E+00 0.  1.
         12    1    3    3    0    0 -0.43248737424E+02  0.19234417403E+02  0.52929059387E+02  0.71006347809E+02  0.00000000000E+00 0. -1.
        -11    1    4    4    0    0 -0.11366970408E+02  0.28353068929E+02  0.14668784920E+03  0.14983467435E+03  0.00000000000E+00 0.  1.
         11    1    4    4    0    0 -0.85699512012E+00 -0.68308783665E+02  0.26411109657E+03  0.27280303462E+03  0.00000000000E+00 0. -1.
         21    1    1    2  503  502  0.22467373873E+02 -0.25866437377E+02 -0.18222316126E+02  0.38806034019E+02  0.00000000000E+00 0.  1.
          1    1    1    2  501    0  0.47639108839E+01  0.33016681130E+02  0.18726689275E+03  0.19021483959E+03  0.00000000000E+00 0. -1.
<scales pt_clust_5="13000.00000" pt_clust_6="13000.00000" pt_clust_7="13000.00000" pt_clust_8="13000.00000" pt_clust_9="34.26157" pt_clust_10="13000.00000"></scales>
<clustering>
<clus scale="   34.262">  2  9  1 -1</clus>
<clus scale="   80.602">  5  6 -1 -1</clus>
<clus scale="   82.430">  1  5  2 -1</clus>
<clus scale="   90.116">  7  8 -1 -1</clus>
<clus scale="   36.267">  7 10 -1 -1</clus>
<clus scale="   34.262">  2  5  1 -1</clus>
</clustering>
</event>
<event>
10    4  0.2866397E-005  0.2896146E+03  0.7546771E-02  0.1137677E+00
         21   -1    0    0  501  502  0.00000000000E+00  0.00000000000E+00  0.68564819152E+02  0.68564819152E+02  0.00000000000E+00 0. -1.
          2   -1    0    0  503    0 -0.00000000000E+00 -0.00000000000E+00 -0.79673871782E+03  0.79673871782E+03  0.00000000000E+00 0. -1.
         24    2    1    2    0    0  0.34535141365E+02  0.13151209305E+00 -0.40179792099E+03  0.41146101852E+03  0.81645006963E+02 0.  0.
         23    2    1    2    0    0  0.47019206278E+02 -0.10786522135E+03 -0.87566022018E+02  0.17340733204E+03  0.92501799225E+02 0.  0.
        -13    1    3    3    0    0  0.26920584286E+02  0.29616275401E+02 -0.94071833661E+02  0.10223185177E+03  0.00000000000E+00 0.  1.
         14    1    3    3    0    0  0.76145570780E+01 -0.29484763308E+02 -0.30772608733E+03  0.30922916675E+03  0.00000000000E+00 0. -1.
        -11    1    4    4    0    0  0.52455687294E+02 -0.12244597176E+02 -0.29776676354E+02  0.61548190421E+02  0.00000000000E+00 0.  1.
         11    1    4    4    0    0 -0.54364810158E+01 -0.95620624169E+02 -0.57789345663E+02  0.11185914162E+03  0.00000000000E+00 0. -1.
         21    1    1    2  503  502 -0.25168838937E+02 -0.24127185829E+00 -0.43237519090E+02  0.50030108160E+02  0.00000000000E+00 0.  1.
          1    1    1    2  501    0 -0.56385508706E+02  0.10797498111E+03 -0.19557243657E+03  0.23040507825E+03  0.00000000000E+00 0. -1.
<scales pt_clust_5="13000.00000" pt_clust_6="13000.00000" pt_clust_7="13000.00000" pt_clust_8="13000.00000" pt_clust_9="25.17001" pt_clust_10="13000.00000"></scales>
<clustering>
<clus scale="   25.170">  1  9  2 -1</clus>
<clus scale="   81.645">  5  6 -1 -1</clus>
<clus scale="   87.939">  2  5  1 -1</clus>
<clus scale="   92.502">  7  8 -1 -1</clus>
<clus scale="  116.406">  7 10 -1 -1</clus>
<clus scale="   25.170">  1  5  2 -1</clus>
</clustering>
</event>
<event>
10    4  0.2866397E-005  0.2610330E+03  0.7546771E-02  0.1136435E+00
         21   -1    0    0  503  502  0.00000000000E+00  0.00000000000E+00  0.37571879642E+03  0.37571879642E+03  0.00000000000E+00 0. -1.
         -1   -1    0    0    0  501 -0.00000000000E+00 -0.00000000000E+00 -0.54066453165E+03  0.54066453165E+03  0.00000000000E+00 0.  1.
         24    2    1    2    0    0  0.43787478352E+02 -0.88992460484E+02 -0.14003605955E+03  0.18813752041E+03  0.77127344870E+02 0.  0.
         23    2    1    2    0    0 -0.42185862364E+02  0.38267188727E+02 -0.33183477493E+03  0.34838655224E+03  0.89525679085E+02 0.  0.
        -11    1    3    3    0    0  0.20556181137E+02 -0.67477833701E+02 -0.13966984609E+03  0.15647198002E+03  0.00000000000E+00 0.  1.
         12    1    3    3    0    0  0.23231297215E+02 -0.21514626783E+02 -0.36621346288E+00  0.31665540390E+02  0.00000000000E+00 0. -1.
        -13    1    4    4    0    0 -0.92013281540E+01 -0.26248558019E+02 -0.48268144709E+02  0.55708751839E+02  0.00000000000E+00 0. -1.
         13    1    4    4    0    0 -0.32984534210E+02  0.64515746745E+02 -0.28356663022E+03  0.29267780041E+03  0.00000000000E+00 0.  1.
         21    1    1    2  503  501  0.68102356849E+02  0.55792194639E+02  0.29638128897E+03  0.30918047875E+03  0.00000000000E+00 0. -1.
         -2    1    1    2    0  502 -0.69703972836E+02 -0.50669228811E+01  0.10543810286E+02  0.70678776673E+02  0.00000000000E+00 0.  1.
<scales pt_clust_5="13000.00000" pt_clust_6="13000.00000" pt_clust_7="13000.00000" pt_clust_8="13000.00000" pt_clust_9="88.03806" pt_clust_10="13000.00000"></scales>
<clustering>
<clus scale="   77.127">  5  6 -1 -1</clus>
<clus scale="   88.038">  1  9  2 -1</clus>
<clus scale="   89.526">  7  8 -1 -1</clus>
<clus scale="   41.063">  7 10 -1 -1</clus>
<clus scale="  123.776">  2  5  1 -1</clus>
<clus scale="   88.038">  1  5  2 -1</clus>
</clustering>
</event>
<event>
10    4  0.2866397E-005  0.1850750E+03  0.7546771E-02  0.1192971E+00
         21   -1    0    0  503  502  0.00000000000E+00  0.00000000000E+00  0.11751912723E+03  0.11751912723E+03  0.00000000000E+00 0.  1.
          2   -1    0    0  502    0 -0.00000000000E+00 -0.00000000000E+00 -0.59575713701E+03  0.59575713701E+03  0.00000000000E+00 0. -1.
         24    2    1    2    0    0 -0.47646338743E+02 -0.67904425950E+00 -0.20740398900E+03  0.22739760630E+03  0.80141262786E+02 0.  0.
         23    2    1    2    0    0 -0.35132348374E+02  0.24627813374E+01 -0.18741228614E+03  0.21071757255E+03  0.89655915556E+02 0.  0.
        -13    1    3    3    0    0 -0.23642268675E+02  0.10992291394E+02 -0.95736978909E+01  0.27774863267E+02  0.00000000000E+00 0.  1.
         14    1    3    3    0    0 -0.24004070069E+02 -0.11671335654E+02 -0.19783029111E+03  0.19962274303E+03  0.00000000000E+00 0. -1.
        -11    1    4    4    0    0 -0.50234369570E+02 -0.29452647689E+02 -0.90932298272E+02  0.10797978149E+03  0.00000000000E+00 0.  1.
         11    1    4    4    0    0  0.15102021196E+02  0.31915429026E+02 -0.96479987863E+02  0.10273779106E+03  0.00000000000E+00 0. -1.
         21    1    1    2  503  501 -0.34866029545E+01  0.27462275153E+02  0.81875043102E+02  0.86428326605E+02  0.00000000000E+00 0.  1.
          1    1    1    2  501    0  0.86265290072E+02 -0.29246012231E+02 -0.16529677775E+03  0.18873275878E+03  0.00000000000E+00 0. -1.
<scales pt_clust_5="13000.00000" pt_clust_6="13000.00000" pt_clust_7="13000.00000" pt_clust_8="13000.00000" pt_clust_9="27.68272" pt_clust_10="13000.00000"></scales>
<clustering>
<clus scale="   27.683">  1  9  2 -1</clus>
<clus scale="   80.141">  5  6 -1 -1</clus>
<clus scale="   89.656">  7  8 -1 -1</clus>
<clus scale="   87.271">  7 10 -1 -1</clus>
<clus scale="   94.077">  2  5  1 -1</clus>
<clus scale="   27.683">  1  5  2 -1</clus>
</clustering>
</event>
<event>
10    4  0.2866397E-005  0.3633313E+03  0.7546771E-02  0.1097639E+00
          2   -1    0    0  502    0 -0.00000000000E+00  0.00000000000E+00  0.88253763804E+03  0.88253763804E+03  0.00000000000E+00 0. -1.
         21   -1    0    0  503  502  0.00000000000E+00 -0.00000000000E+00 -0.21453782181E+03  0.21453782181E+03  0.00000000000E+00 0. -1.
         24    2    1    2    0    0 -0.54354807987E+02 -0.71861570374E+02  0.12716546035E+03  0.17607967773E+03  0.81941858380E+02 0.  0.
         23    2    1    2    0    0  0.98470079264E+02 -0.20383452275E+03  0.35316429309E+03  0.42920792892E+03  0.90827083835E+02 0.  0.
        -11    1    3    3    0    0 -0.60533999861E+02 -0.12357052984E+02  0.69439403066E+02  0.92945643232E+02  0.00000000000E+00 0.  1.
         12    1    3    3    0    0  0.61791918738E+01 -0.59504517390E+02  0.57726057285E+02  0.83134034497E+02  0.00000000000E+00 0. -1.
        -11    1    4    4    0    0  0.11749179149E+02 -0.12767474772E+03  0.19618819252E+03  0.23436870802E+03  0.00000000000E+00 0. -1.
         11    1    4    4    0    0  0.86720900114E+02 -0.76159775033E+02  0.15697610057E+03  0.19483922090E+03  0.00000000000E+00 0.  1.
         21    1    1    2  503  501 -0.14384612886E+03  0.23040817327E+03 -0.32908618355E+01  0.27164400393E+03  0.00000000000E+00 0. -1.
          1    1    1    2  501    0  0.99730857587E+02  0.45287919854E+02  0.19096092462E+03  0.22014384927E+03  0.00000000000E+00 0. -1.
<scales pt_clust_5="13000.00000" pt_clust_6="13000.00000" pt_clust_7="13000.00000" pt_clust_8="13000.00000" pt_clust_9="266.16689" pt_clust_10="13000.00000"></scales>
<clustering>
<clus scale="   81.942">  5  6 -1 -1</clus>
<clus scale="   90.827">  7  8 -1 -1</clus>
<clus scale="  109.532">  7 10 -1 -1</clus>
<clus scale="  121.791">  1  5  2 -1</clus>
<clus scale="  266.167">  2  9  1 -1</clus>
<clus scale="  266.167">  2  5  1 -1</clus>
</clustering>
</event>
<event>
10    4  0.2866397E-005  0.2825884E+03  0.7546771E-02  0.1101557E+00
          2   -1    0    0  503    0 -0.00000000000E+00  0.00000000000E+00  0.23234338998E+04  0.23234338998E+04  0.00000000000E+00 0. -1.
         21   -1    0    0  501  502  0.00000000000E+00 -0.00000000000E+00 -0.67106103268E+02  0.67106103268E+02  0.00000000000E+00 0. -1.
         24    2    1    2    0    0  0.81008587444E+02  0.14342785549E+03  0.54156588398E+03  0.57172721375E+03  0.80277389592E+02 0.  0.
         23    2    1    2    0    0 -0.54161178673E+02 -0.13861145104E+03  0.61805845330E+03  0.64226228078E+03  0.91422196370E+02 0.  0.
        -13    1    3    3    0    0 -0.99745065821E+01  0.25758905159E+02  0.15675489018E+03  0.15917005865E+03  0.00000000000E+00 0.  1.
         14    1    3    3    0    0  0.90983094026E+02  0.11766895033E+03  0.38481099380E+03  0.41255715509E+03  0.00000000000E+00 0. -1.
        -11    1    4    4    0    0 -0.43782995935E+02 -0.10590080617E+02  0.19504643490E+03  0.20018044936E+03  0.00000000000E+00 0. -1.
         11    1    4    4    0    0 -0.10378182738E+02 -0.12802137042E+03  0.42301201840E+03  0.44208183142E+03  0.00000000000E+00 0.  1.
         21    1    1    2  503  502  0.54827514895E+02  0.10037157321E+03  0.55969640542E+02  0.12733071020E+03  0.00000000000E+00 0. -1.
          1    1    1    2  501    0 -0.81674923666E+02 -0.10518797767E+03  0.10407338187E+04  0.10492197983E+04  0.00000000000E+00 0. -1.
<scales pt_clust_5="13000.00000" pt_clust_6="13000.00000" pt_clust_7="13000.00000" pt_clust_8="13000.00000" pt_clust_9="114.37005" pt_clust_10="13000.00000"></scales>
<clustering>
<clus scale="   80.277">  5  6 -1 -1</clus>
<clus scale="   91.422">  7  8 -1 -1</clus>
<clus scale="  114.370">  2  9  1 -1</clus>
<clus scale="  117.956">  7 10 -1 -1</clus>
<clus scale="  233.817">  1  5  2 -1</clus>
<clus scale="  114.370">  2  5  1 -1</clus>
</clustering>
</event>
<event>
10    4  0.2866397E-005  0.2643203E+03  0.7546771E-02  0.1139443E+00
         21   -1    0    0  503  502  0.00000000000E+00  0.00000000000E+00  0.14272580829E+03  0.14272580829E+03  0.00000000000E+00 0.  1.
          2   -1    0    0  502    0 -0.00000000000E+00 -0.00000000000E+00 -0.41307288414E+03  0.41307288414E+03  0.00000000000E+00 0. -1.
         24    2    1    2    0    0 -0.57152548701E+02 -0.48915671429E+02 -0.13003473505E+03  0.17051122089E+03  0.80659081296E+02 0.  0.
         23    2    1    2    0    0 -0.26173620893E+02 -0.80880789917E+02 -0.85905259919E+02  0.15000625199E+03  0.88856070963E+02 0.  0.
        -11    1    3    3    0    0 -0.74120793445E+02 -0.30335453820E+02 -0.73811015224E+02  0.10891371699E+03  0.00000000000E+00 0.  1.
         12    1    3    3    0    0  0.16968244744E+02 -0.18580217610E+02 -0.56223719825E+02  0.61597503903E+02  0.00000000000E+00 0. -1.
        -13    1    4    4    0    0 -0.79137985069E+01 -0.38566360462E+02  0.12530712842E+02  0.41315991219E+02  0.00000000000E+00 0.  1.
         13    1    4    4    0    0 -0.18259822386E+02 -0.42314429455E+02 -0.98435972761E+02  0.10869026077E+03  0.00000000000E+00 0. -1.
         21    1    1    2  503  501 -0.48607598435E+02  0.62570837110E+02 -0.58458460738E+01  0.79447984233E+02  0.00000000000E+00 0.  1.
          1    1    1    2  501    0  0.13193376803E+03  0.67225624236E+02 -0.48561234810E+02  0.15583323531E+03  0.00000000000E+00 0. -1.
<scales pt_clust_5="13000.00000" pt_clust_6="13000.00000" pt_clust_7="13000.00000" pt_clust_8="13000.00000" pt_clust_9="79.23262" pt_clust_10="13000.00000"></scales>
<clustering>
<clus scale="   79.233">  1  9  2 -1</clus>
<clus scale="   80.659">  5  6 -1 -1</clus>
<clus scale="   88.856">  7  8 -1 -1</clus>
<clus scale="  110.843">  2  5  1 -1</clus>
<clus scale="  110.974">  7 10 -1 -1</clus>
<clus scale="   79.233">  1  5  2 -1</clus>
</clustering>
</event>
<event>
10    4  0.2866397E-005  0.5230672E+03  0.7546771E-02  0.1030026E+00
          2   -1    0    0  502    0 -0.00000000000E+00  0.00000000000E+00  0.25069685864E+04  0.25069685864E+04  0.00000000000E+00 0. -1.
         21   -1    0    0  503  502  0.00000000000E+00 -0.00000000000E+00 -0.50773572126E+03  0.50773572126E+03  0.00000000000E+00 0.  1.
         24    2    1    2    0    0 -0.21015157720E+03  0.15298214116E+03  0.19725799555E+04  0.19911855227E+04  0.78618599116E+02 0.  0.
         23    2    1    2    0    0 -0.89068879043E+02 -0.13346861057E+03  0.36473546298E+02  0.18775183784E+03  0.90406292981E+02 0.  0.
        -11    1    3    3    0    0 -0.29294622458E+02  0.58302295449E-02  0.12005059090E+03  0.12357313346E+03  0.00000000000E+00 0.  1.
         12    1    3    3    0    0 -0.18085695474E+03  0.15297631093E+03  0.18525293646E+04  0.18676123893E+04  0.00000000000E+00 0. -1.
        -13    1    4    4    0    0 -0.42915933398E+02 -0.84186278877E+01 -0.12915279128E+02  0.45601042421E+02  0.00000000000E+00 0.  1.
         13    1    4    4    0    0 -0.46152945645E+02 -0.12504998269E+03  0.49388825426E+02  0.14215079542E+03  0.00000000000E+00 0. -1.
         21    1    1    2  503  501  0.33373843119E+02 -0.52796797514E+02 -0.37649386590E+03  0.38163981225E+03  0.00000000000E+00 0.  1.
          1    1    1    2  501    0  0.26584661312E+03  0.33283266931E+02  0.36667322927E+03  0.45412713488E+03  0.00000000000E+00 0. -1.
<scales pt_clust_5="13000.00000" pt_clust_6="13000.00000" pt_clust_7="13000.00000" pt_clust_8="13000.00000" pt_clust_9="62.46051" pt_clust_10="13000.00000"></scales>
<clustering>
<clus scale="   62.461">  2  9  1 -1</clus>
<clus scale="   78.619">  5  6 -1 -1</clus>
<clus scale="   90.406">  7  8 -1 -1</clus>
<clus scale="  267.556">  1  5  2 -1</clus>
<clus scale="  175.441">  7 10 -1 -1</clus>
<clus scale="   62.461">  2  5  1 -1</clus>
</clustering>
</event>
<event>
10    4  0.2866397E-005  0.2361725E+03  0.7546771E-02  0.1148277E+00
          2   -1    0    0  502    0 -0.00000000000E+00  0.00000000000E+00  0.39568228240E+03  0.39568228240E+03  0.00000000000E+00 0. -1.
         21   -1    0    0  503  502  0.00000000000E+00 -0.00000000000E+00 -0.13290499582E+03  0.13290499582E+03  0.00000000000E+00 0.  1.
         24    2    1    2    0    0  0.85486782024E+02  0.81043870550E+02  0.79461545897E+01  0.14290794999E+03  0.80519823298E+02 0.  0.
         23    2    1    2    0    0 -0.61306331664E+01 -0.11689565266E+03  0.10364697631E+03  0.18161440062E+03  0.92406258133E+02 0.  0.
        -13    1    3    3    0    0  0.12351740091E+02  0.20368413460E+02 -0.31943589777E+02  0.39847593127E+02  0.00000000000E+00 0.  1.
         14    1    3    3    0    0  0.73135041934E+02  0.60675457090E+02  0.39889744367E+02  0.10306035687E+03  0.00000000000E+00 0. -1.
        -11    1    4    4    0    0 -0.28833588965E+02 -0.10894396964E+03  0.10920394594E+03  0.15692567088E+03  0.00000000000E+00 0. -1.
         11    1    4    4    0    0  0.22702955799E+02 -0.79516830255E+01 -0.55569696300E+01  0.24688729745E+02  0.00000000000E+00 0.  1.
         21    1    1    2  503  501 -0.40879511028E+02 -0.10101774182E+02  0.73341537754E+00  0.42115533496E+02  0.00000000000E+00 0. -1.
          1    1    1    2  501    0 -0.38476637830E+02  0.45953556293E+02  0.15045074030E+03  0.16194939411E+03  0.00000000000E+00 0. -1.
<scales pt_clust_5="13000.00000" pt_clust_6="13000.00000" pt_clust_7="13000.00000" pt_clust_8="13000.00000" pt_clust_9="42.10915" pt_clust_10="13000.00000"></scales>
<clustering>
<clus scale="   42.109">  2  9  1 -1</clus>
<clus scale="   80.520">  5  6 -1 -1</clus>
<clus scale="   92.406">  7  8 -1 -1</clus>
<clus scale="   60.913">  7 10 -1 -1</clus>
<clus scale="  125.750">  1  5  2 -1</clus>
<clus scale="   42.109">  2  5  1 -1</clus>
</clustering>
</event>
<event>
10    4  0.2866397E-005  0.4002750E+03  0.7546771E-02  0.1081517E+00
         -1   -1    0    0    0  501 -0.00000000000E+00  0.00000000000E+00  0.10037325595E+04  0.10037325595E+04  0.00000000000E+00 0.  1.
         21   -1    0    0  501  502  0.00000000000E+00 -0.00000000000E+00 -0.31910123055E+03  0.31910123055E+03  0.00000000000E+00 0.  1.
         24    2    1    2    0    0 -0.59298860566E+02 -0.90459669705E+02  0.31145834096E+03  0.33947835255E+03  0.80869938725E+02 0.  0.
         23    2    1    2    0    0 -0.10776868175E+03  0.34295644798E+02  0.68288383281E+02  0.16026375113E+03  0.90724233896E+02 0.  0.
        -13    1    3    3    0    0 -0.67883282638E+02 -0.30623603981E+02  0.16439297082E+03  0.18047435839E+03  0.00000000000E+00 0.  1.
         14    1    3    3    0    0  0.85844220718E+01 -0.59836065723E+02  0.14706537013E+03  0.15900399415E+03  0.00000000000E+00 0. -1.
        -11    1    4    4    0    0 -0.20451825159E+02 -0.25031416129E+02 -0.36323853240E+01  0.32527575516E+02  0.00000000000E+00 0.  1.
         11    1    4    4    0    0 -0.87316856593E+02  0.59327060927E+02  0.71920768605E+02  0.12773617561E+03  0.00000000000E+00 0. -1.
         21    1    1    2  503  502  0.49971560480E+01 -0.38490639626E+02 -0.24189870049E+03  0.24499282072E+03  0.00000000000E+00 0.  1.
         -2    1    1    2    0  503  0.16207038627E+03  0.94654664532E+02  0.54678330520E+03  0.57809886565E+03  0.00000000000E+00 0.  1.
<scales pt_clust_5="13000.00000" pt_clust_6="13000.00000" pt_clust_7="13000.00000" pt_clust_8="13000.00000" pt_clust_9="38.81367" pt_clust_10="13000.00000"></scales>
<clustering>
<clus scale="   38.814">  2  9  1 -1</clus>
<clus scale="   80.870">  5  6 -1 -1</clus>
<clus scale="   90.724">  7  8 -1 -1</clus>
<clus scale="  139.538">  1  5  2 -1</clus>
<clus scale="  114.613">  7 10 -1 -1</clus>
<clus scale="   38.814">  2  5  1 -1</clus>
</clustering>
</event>
<event>
10    4  0.2866397E-005  0.1883119E+03  0.7546771E-02  0.1179006E+00
         -3   -1    0    0    0  501 -0.00000000000E+00  0.00000000000E+00  0.70635230844E+03  0.70635230844E+03  0.00000000000E+00 0.  1.
         21   -1    0    0  501  502  0.00000000000E+00 -0.00000000000E+00 -0.91373734888E+02  0.91373734888E+02  0.00000000000E+00 0.  1.
         24    2    1    2    0    0  0.16253130971E+02  0.98424831437E+02  0.36010592667E+03  0.38227364747E+03  0.80655138775E+02 0.  0.
         23    2    1    2    0    0  0.35248251977E+02 -0.40238842642E+01  0.71035931474E+02  0.11582122811E+03  0.84319762854E+02 0.  0.
        -11    1    3    3    0    0  0.10881012318E+02  0.11139845786E+03  0.33832138767E+03  0.35635568495E+03  0.00000000000E+00 0.  1.
         12    1    3    3    0    0  0.53721186534E+01 -0.12973626419E+02  0.21784539008E+02  0.25917962518E+02  0.00000000000E+00 0. -1.
        -11    1    4    4    0    0  0.15189127829E+02 -0.18736614284E+02 -0.13541554735E+02  0.27661236843E+02  0.00000000000E+00 0.  1.
         11    1    4    4    0    0  0.20059124147E+02  0.14712730020E+02  0.84577486209E+02  0.88159991264E+02  0.00000000000E+00 0. -1.
         21    1    1    2  503  502 -0.66578653177E+02 -0.25224455016E+02 -0.27825810183E+02  0.76441257852E+02  0.00000000000E+00 0.  1.
         -4    1    1    2    0  503  0.15077270229E+02 -0.69176492157E+02  0.21166252558E+03  0.22318990990E+03  0.00000000000E+00 0.  1.
<scales pt_clust_5="13000.00000" pt_clust_6="13000.00000" pt_clust_7="13000.00000" pt_clust_8="13000.00000" pt_clust_9="71.19684" pt_clust_10="13000.00000"></scales>
<clustering>
<clus scale="   71.197">  2  9  1 -1</clus>
<clus scale="   80.655">  5  6 -1 -1</clus>
<clus scale="   84.320">  7  8 -1 -1</clus>
<clus scale="   73.074">  7 10 -1 -1</clus>
<clus scale="  121.850">  1  5  2 -1</clus>
<clus scale="   71.197">  2  5  1 -1</clus>
</clustering>
</event>
<event>
10    4  0.2866397E-005  0.2325912E+03  0.7546771E-02  0.1131096E+00
         -3   -1    0    0    0  501 -0.00000000000E+00  0.00000000000E+00  0.42344738489E+03  0.42344738489E+03  0.00000000000E+00 0.  1.
         21   -1    0    0  503  502  0.00000000000E+00 -0.00000000000E+00 -0.19780042216E+03  0.19780042216E+03  0.00000000000E+00 0.  1.
         24    2    1    2    0    0  0.15480602322E+03  0.53161522084E+02  0.70751727037E+02  0.19482173574E+03  0.78477064070E+02 0.  0.
         23    2    1    2    0    0 -0.17418268769E+03 -0.20905753851E+02  0.12685322262E+03  0.23410471009E+03  0.89087686943E+02 0.  0.
        -11    1    3    3    0    0  0.65009327659E+02  0.18637482494E+02 -0.11069549490E+02  0.68528120960E+02  0.00000000000E+00 0.  1.
         12    1    3    3    0    0  0.89796695556E+02  0.34524039590E+02  0.81821276527E+02  0.12629361478E+03  0.00000000000E+00 0. -1.
        -13    1    4    4    0    0 -0.16152735660E+03  0.10804256594E+02  0.96811423481E+02  0.18862733261E+03  0.00000000000E+00 0.  1.
         13    1    4    4    0    0 -0.12655331088E+02 -0.31710010446E+02  0.30041799139E+02  0.45477377485E+02  0.00000000000E+00 0. -1.
         21    1    1    2  503  501  0.53175188669E+02 -0.62442397115E+02 -0.54279596290E+02  0.98351045856E+02  0.00000000000E+00 0.  1.
         -4    1    1    2    0  502 -0.33798524198E+02  0.30186628883E+02  0.82321609357E+02  0.93970315358E+02  0.00000000000E+00 0.  1.
<scales pt_clust_5="13000.00000" pt_clust_6="13000.00000" pt_clust_7="13000.00000" pt_clust_8="13000.00000" pt_clust_9="82.01618" pt_clust_10="13000.00000"></scales>
<clustering>
<clus scale="   78.477">  5  6 -1 -1</clus>
<clus scale="   82.016">  2  9  1 -1</clus>
<clus scale="   89.088">  7  8 -1 -1</clus>
<clus scale="   41.424">  7 10 -1 -1</clus>
<clus scale="  199.300">  1  5  2 -1</clus>
<clus scale="   82.016">  2  5  1 -1</clus>
</clustering>
</event>
<event>
10    4  0.2866397E-005  0.1884626E+03  0.7546771E-02  0.1193054E+00
         -1   -1    0    0    0  501 -0.00000000000E+00  0.00000000000E+00  0.65627761000E+03  0.65627761000E+03  0.00000000000E+00 0.  1.
         21   -1    0    0  501  502  0.00000000000E+00 -0.00000000000E+00 -0.89946085190E+02  0.89946085190E+02  0.00000000000E+00 0.  1.
         24    2    1    2    0    0  0.24929657421E+02  0.47579332688E+02  0.48080258644E+02  0.10846287639E+03  0.81038284567E+02 0.  0.
         23    2    1    2    0    0 -0.12564670455E+02 -0.53470303201E+02  0.20560145499E+03  0.23157427017E+03  0.91311226282E+02 0.  0.
        -13    1    3    3    0    0  0.33813959507E+02  0.23278440535E+02 -0.12231382162E+02  0.42835456818E+02  0.00000000000E+00 0.  1.
         14    1    3    3    0    0 -0.88843020855E+01  0.24300892153E+02  0.60311640807E+02  0.65627419573E+02  0.00000000000E+00 0. -1.
        -13    1    4    4    0    0  0.23231673098E+02  0.94076296256E+01  0.19046513321E+02  0.31479895169E+02  0.00000000000E+00 0. -1.
         13    1    4    4    0    0 -0.35796343554E+02 -0.62877932827E+02  0.18655494167E+03  0.20009437500E+03  0.00000000000E+00 0.  1.
         21    1    1    2  503  502  0.13704856240E+02 -0.51477122776E+02 -0.27707517737E+02  0.60045181264E+02  0.00000000000E+00 0.  1.
         -2    1    1    2    0  503 -0.26069843207E+02  0.57368093290E+02  0.34035732892E+03  0.34614136736E+03  0.00000000000E+00 0.  1.
<scales pt_clust_5="13000.00000" pt_clust_6="13000.00000" pt_clust_7="13000.00000" pt_clust_8="13000.00000" pt_clust_9="53.27023" pt_clust_10="13000.00000"></scales>
<clustering>
<clus scale="   53.270">  2  9  1 -1</clus>
<clus scale="   81.038">  5  6 -1 -1</clus>
<clus scale="   88.932">  1  5  2 -1</clus>
<clus scale="   91.311">  7  8 -1 -1</clus>
<clus scale="   62.047">  7 10 -1 -1</clus>
<clus scale="   53.270">  2  5  1 -1</clus>
</clustering>
</event>
<event>
10    4  0.2866397E-005  0.1656312E+03  0.7546771E-02  0.1213032E+00
          2   -1    0    0  503    0 -0.00000000000E+00  0.00000000000E+00  0.52598487079E+03  0.52598487079E+03  0.00000000000E+00 0. -1.
         21   -1    0    0  501  502  0.00000000000E+00 -0.00000000000E+00 -0.37590859398E+02  0.37590859398E+02  0.00000000000E+00 0.  1.
         24    2    1    2    0    0  0.22938571289E+02 -0.13592851621E+02  0.14005110014E+03  0.16304266401E+03  0.79105347279E+02 0.  0.
         23    2    1    2    0    0  0.25171342058E+02 -0.11426601132E+02  0.12204220157E+03  0.15218641951E+03  0.86615493090E+02 0.  0.
        -13    1    3    3    0    0  0.46846212985E+02 -0.24784194433E+02  0.11511735637E+03  0.12673132881E+03  0.00000000000E+00 0.  1.
         14    1    3    3    0    0 -0.23907641695E+02  0.11191342812E+02  0.24933743775E+02  0.36311335200E+02  0.00000000000E+00 0. -1.
        -13    1    4    4    0    0 -0.11494141557E+02 -0.39614890519E+02  0.78441501568E+02  0.88625752517E+02  0.00000000000E+00 0.  1.
         13    1    4    4    0    0  0.36665483614E+02  0.28188289388E+02  0.43600700006E+02  0.63560666991E+02  0.00000000000E+00 0. -1.
         21    1    1    2  503  502  0.21387962569E+02  0.17807636439E+02  0.35199524481E+02  0.44872746540E+02  0.00000000000E+00 0.  1.
          1    1    1    2  501    0 -0.69497875916E+02  0.72118163142E+01  0.19110118520E+03  0.20347390013E+03  0.00000000000E+00 0. -1.
<scales pt_clust_5="13000.00000" pt_clust_6="13000.00000" pt_clust_7="13000.00000" pt_clust_8="13000.00000" pt_clust_9="27.83086" pt_clust_10="13000.00000"></scales>
<clustering>
<clus scale="   27.831">  2  9  1 -1</clus>
<clus scale="   79.105">  5  6 -1 -1</clus>
<clus scale="   85.079">  1  5  2 -1</clus>
<clus scale="   86.615">  7  8 -1 -1</clus>
<clus scale="   50.088">  7 10 -1 -1</clus>
<clus scale="   27.831">  2  5  1 -1</clus>
</clustering>
</event>
<event>
10    4  0.2866397E-005  0.9563166E+03  0.7546771E-02  0.9747877E-01
         21   -1    0    0  501  502  0.00000000000E+00  0.00000000000E+00  0.17251217097E+03  0.17251217097E+03  0.00000000000E+00 0.  1.
          2   -1    0    0  503    0 -0.00000000000E+00 -0.00000000000E+00 -0.25068834551E+04  0.25068834551E+04  0.00000000000E+00 0. -1.
         24    2    1    2    0    0 -0.11828283052E+03 -0.18581967572E+03 -0.39588642864E+03  0.45968179936E+03  0.77855715267E+02 0.  0.
         23    2    1    2    0    0  0.10049246708E+03  0.44664354652E+03 -0.38104536870E+03  0.60229335958E+03  0.89288993703E+02 0.  0.
        -13    1    3    3    0    0 -0.12231491345E+03 -0.13776158418E+03 -0.29388348307E+03  0.34685255333E+03  0.00000000000E+00 0.  1.
         14    1    3    3    0    0  0.40320829281E+01 -0.48058091533E+02 -0.10200294557E+03  0.11282924603E+03  0.00000000000E+00 0. -1.
        -13    1    4    4    0    0  0.81807709394E+02  0.43657981855E+03 -0.37135221221E+03  0.57896191999E+03  0.00000000000E+00 0.  1.
         13    1    4    4    0    0  0.18684757691E+02  0.10063727963E+02 -0.96931564921E+01  0.23331439589E+02  0.00000000000E+00 0. -1.
         21    1    1    2  503  502 -0.18023403835E+02 -0.71475284760E+02 -0.32851377365E+02  0.80701749746E+02  0.00000000000E+00 0.  1.
          1    1    1    2  501    0  0.35813767274E+02 -0.18934858604E+03 -0.15245881095E+04  0.15367187174E+04  0.00000000000E+00 0. -1.
<scales pt_clust_5="13000.00000" pt_clust_6="13000.00000" pt_clust_7="13000.00000" pt_clust_8="13000.00000" pt_clust_9="73.71268" pt_clust_10="13000.00000"></scales>
<clustering>
<clus scale="   73.713">  1  9  2 -1</clus>
<clus scale="   77.856">  5  6 -1 -1</clus>
<clus scale="   89.289">  7  8 -1 -1</clus>
<clus scale="  195.440">  7 10 -1 -1</clus>
<clus scale="  247.890">  2  5  1 -1</clus>
<clus scale="   73.713">  1  5  2 -1</clus>
</clustering>
</event>
<event>
10    4  0.2866397E-005  0.1709557E+03  0.7546771E-02  0.1205649E+00
         21   -1    0    0  501  502  0.00000000000E+00  0.00000000000E+00  0.34404252452E+02  0.34404252452E+02  0.00000000000E+00 0. -1.
          2   -1    0    0  503    0 -0.00000000000E+00 -0.00000000000E+00 -0.64786890348E+03  0.64786890348E+03  0.00000000000E+00 0. -1.
         24    2    1    2    0    0  0.31059923208E+02 -0.24231589230E+02 -0.22151210164E+03  0.23881014042E+03  0.80067366944E+02 0.  0.
         23    2    1    2    0    0 -0.24684375488E+02 -0.86221028854E+01 -0.11502892801E+03  0.15561432510E+03  0.10149140282E+03 0.  0.
        -13    1    3    3    0    0  0.45108085064E+02  0.14071552058E+02 -0.13799447326E+03  0.14586028440E+03  0.00000000000E+00 0.  1.
         14    1    3    3    0    0 -0.14048161856E+02 -0.38303141288E+02 -0.83517628375E+02  0.92949856016E+02  0.00000000000E+00 0. -1.
        -13    1    4    4    0    0  0.17035289335E+02  0.21878579095E+02 -0.96991123269E+02  0.10087691162E+03  0.00000000000E+00 0.  1.
         13    1    4    4    0    0 -0.41719664824E+02 -0.30500681980E+02 -0.18037804743E+02  0.54737413477E+02  0.00000000000E+00 0. -1.
         21    1    1    2  503  502  0.25107190607E+02  0.20653078339E+02 -0.59350297950E+02  0.67671105590E+02  0.00000000000E+00 0. -1.
          1    1    1    2  501    0 -0.31482738327E+02  0.12200613776E+02 -0.21757332343E+03  0.22017758482E+03  0.00000000000E+00 0. -1.
<scales pt_clust_5="13000.00000" pt_clust_6="13000.00000" pt_clust_7="13000.00000" pt_clust_8="13000.00000" pt_clust_9="32.51032" pt_clust_10="13000.00000"></scales>
<clustering>
<clus scale="   32.510">  1  9  2 -1</clus>
<clus scale="   80.067">  5  6 -1 -1</clus>
<clus scale="   90.603">  2  5  1 -1</clus>
<clus scale="  101.491">  7  8 -1 -1</clus>
<clus scale="   10.091">  7 10 -1 -1</clus>
<clus scale="   32.510">  1  5  2 -1</clus>
</clustering>
</event>
<event>
10    4  0.2866397E-005  0.3408690E+03  0.7546771E-02  0.1116027E+00
          2   -1    0    0  503    0 -0.00000000000E+00  0.00000000000E+00  0.15294699671E+04  0.15294699671E+04  0.00000000000E+00 0. -1.
         21   -1    0    0  501  502  0.00000000000E+00 -0.00000000000E+00 -0.36546156521E+02  0.36546156521E+02  0.00000000000E+00 0. -1.
         24    2    1    2    0    0  0.10173123980E+02 -0.43978163008E+02  0.34723401011E+03  0.35951329829E+03  0.81490997035E+02 0.  0.
         23    2    1    2    0    0 -0.10480006808E+03 -0.24818520756E+02  0.18373841978E+03  0.23171753974E+03  0.91291829179E+02 0.  0.
        -13    1    3    3    0    0 -0.35115171767E+02 -0.28146976924E+02  0.17920453988E+03  0.18476903072E+03  0.00000000000E+00 0.  1.
         14    1    3    3    0    0  0.45288295747E+02 -0.15831186084E+02  0.16802947023E+03  0.17474426757E+03  0.00000000000E+00 0. -1.
        -13    1    4    4    0    0 -0.38449922885E+02  0.26644768938E+02  0.11163122215E+03  0.12103664751E+03  0.00000000000E+00 0.  1.
         13    1    4    4    0    0 -0.66350145199E+02 -0.51463289694E+02  0.72107197632E+02  0.11068089223E+03  0.00000000000E+00 0. -1.
         21    1    1    2  503  502 -0.22939467128E+02  0.91839009261E+01  0.19933817381E+03  0.20086381139E+03  0.00000000000E+00 0. -1.
          1    1    1    2  501    0  0.11756641123E+03  0.59612782838E+02  0.76261320687E+03  0.77392147419E+03  0.00000000000E+00 0. -1.
<scales pt_clust_5="13000.00000" pt_clust_6="13000.00000" pt_clust_7="13000.00000" pt_clust_8="13000.00000" pt_clust_9="24.70959" pt_clust_10="13000.00000"></scales>
<clustering>
<clus scale="   24.710">  2  9  1 -1</clus>
<clus scale="   81.491">  5  6 -1 -1</clus>
<clus scale="   91.292">  7  8 -1 -1</clus>
<clus scale="   92.074">  1  5  2 -1</clus>
<clus scale="  122.553">  7 10 -1 -1</clus>
<clus scale="   24.710">  2  5  1 -1</clus>
</clustering>
</event>
<event>
10    4  0.2866397E-005  0.1945439E+03  0.7546771E-02  0.1190707E+00
         21   -1    0    0  501  502  0.00000000000E+00  0.00000000000E+00  0.35462076800E+03  0.35462076800E+03  0.00000000000E+00 0. -1.
         -1   -1    0    0    0  501 -0.00000000000E+00 -0.00000000000E+00 -0.11921698910E+03  0.11921698910E+03  0.00000000000E+00 0.  1.
         24    2    1    2    0    0  0.26915641876E+02 -0.48538131290E+01  0.14603802052E+03  0.16935301790E+03  0.81273181026E+02 0.  0.
         23    2    1    2    0    0  0.31404707589E+02 -0.71378162957E+02 -0.40542442172E+02  0.12731417380E+03  0.92109236387E+02 0.  0.
        -13    1    3    3    0    0  0.20503916471E+02  0.27020832740E+02  0.20411674201E+02  0.39587528797E+02  0.00000000000E+00 0.  1.
         14    1    3    3    0    0  0.64117254054E+01 -0.31874645869E+02  0.12562634632E+03  0.12976548910E+03  0.00000000000E+00 0. -1.
        -13    1    4    4    0    0  0.80499694707E+01 -0.18706101003E+02 -0.62439025402E+02  0.65676115266E+02  0.00000000000E+00 0. -1.
         13    1    4    4    0    0  0.23354738118E+02 -0.52672061954E+02  0.21896583230E+02  0.61638058537E+02  0.00000000000E+00 0.  1.
         21    1    1    2  503  502 -0.11973823486E+02  0.33597917518E+02  0.10243125339E+03  0.10846360763E+03  0.00000000000E+00 0. -1.
         -2    1    1    2    0  503 -0.46346525979E+02  0.42634058568E+02  0.27476947160E+02  0.68706957766E+02  0.00000000000E+00 0.  1.
<scales pt_clust_5="13000.00000" pt_clust_6="13000.00000" pt_clust_7="13000.00000" pt_clust_8="13000.00000" pt_clust_9="35.66781" pt_clust_10="13000.00000"></scales>
<clustering>
<clus scale="   35.668">  1  9  2 -1</clus>
<clus scale="   81.273">  5  6 -1 -1</clus>
<clus scale="   85.138">  2  5  1 -1</clus>
<clus scale="   92.109">  7  8 -1 -1</clus>
<clus scale="   68.940">  7 10 -1 -1</clus>
<clus scale="   35.668">  1  5  2 -1</clus>
</clustering>
</event>
<event>
10    4  0.2866397E-005  0.3278552E+03  0.7546771E-02  0.1095218E+00
          2   -1    0    0  503    0 -0.00000000000E+00  0.00000000000E+00  0.90270682992E+03  0.90270682992E+03  0.00000000000E+00 0. -1.
         21   -1    0    0  501  502  0.00000000000E+00 -0.00000000000E+00 -0.10430765654E+03  0.10430765654E+03  0.00000000000E+00 0. -1.
         24    2    1    2    0    0  0.50415047168E+01 -0.15187361058E+03  0.44332704533E+03  0.47558166530E+03  0.80919965950E+02 0.  0.
         23    2    1    2    0    0  0.11990354749E+03  0.83453872270E+02  0.95760851090E+02  0.20370288220E+03  0.10480130780E+03 0.  0.
        -13    1    3    3    0    0 -0.20887966333E+02 -0.11794383184E+03  0.24503879441E+03  0.27274725549E+03  0.00000000000E+00 0.  1.
         14    1    3    3    0    0  0.25929471050E+02 -0.33929778740E+02  0.19828825091E+03  0.20283440981E+03  0.00000000000E+00 0. -1.
        -11    1    4    4    0    0  0.11983966897E+02 -0.17785538010E+02  0.40349819150E+02  0.45695171849E+02  0.00000000000E+00 0.  1.
         11    1    4    4    0    0  0.10791958059E+03  0.10123941028E+03  0.55411031940E+02  0.15800771035E+03  0.00000000000E+00 0. -1.
         21    1    1    2  503  502 -0.37000821243E+02 -0.26968757839E+02  0.10277065055E+02  0.46925395450E+02  0.00000000000E+00 0. -1.
          1    1    1    2  501    0 -0.87944230964E+02  0.95388496152E+02  0.24903421191E+03  0.28080454351E+03  0.00000000000E+00 0. -1.
<scales pt_clust_5="13000.00000" pt_clust_6="13000.00000" pt_clust_7="13000.00000" pt_clust_8="13000.00000" pt_clust_9="45.78618" pt_clust_10="13000.00000"></scales>
<clustering>
<clus scale="   45.786">  2  9  1 -1</clus>
<clus scale="   80.920">  5  6 -1 -1</clus>
<clus scale="  104.801">  7  8 -1 -1</clus>
<clus scale="  130.983">  7 10 -1 -1</clus>
<clus scale="  176.577">  1  5  2 -1</clus>
<clus scale="   45.786">  2  5  1 -1</clus>
</clustering>
</event>
<event>
10    4  0.2866397E-005  0.2535224E+03  0.7546771E-02  0.1139065E+00
          2   -1    0    0  503    0 -0.00000000000E+00  0.00000000000E+00  0.61533079008E+03  0.61533079008E+03  0.00000000000E+00 0. -1.
         21   -1    0    0  501  502  0.00000000000E+00 -0.00000000000E+00 -0.14869844740E+03  0.14869844740E+03  0.00000000000E+00 0. -1.
         24    2    1    2    0    0  0.30983051335E+02  0.10293978412E+03  0.22797359910E+03  0.26456582200E+03  0.80414946738E+02 0.  0.
         23    2    1    2    0    0  0.25741689823E+02  0.36562892038E+02  0.13642733262E+03  0.16839159548E+03  0.87999049275E+02 0.  0.
        -11    1    3    3    0    0  0.14304649951E+02  0.96671466635E+02  0.22650607421E+03  0.24668805631E+03  0.00000000000E+00 0.  1.
         12    1    3    3    0    0  0.16678401383E+02  0.62683174887E+01  0.14675248910E+01  0.17877765692E+02  0.00000000000E+00 0. -1.
        -11    1    4    4    0    0  0.14973930318E+02 -0.25977759037E+02  0.71830704033E+02  0.77837732467E+02  0.00000000000E+00 0.  1.
         11    1    4    4    0    0  0.10767759505E+02  0.62540651075E+02  0.64596628587E+02  0.90553863012E+02  0.00000000000E+00 0. -1.
         21    1    1    2  503  502  0.96607188377E+02 -0.88434520542E+02 -0.14411780218E+02  0.13176233407E+03  0.00000000000E+00 0. -1.
          1    1    1    2  501    0 -0.15333192953E+03 -0.51068155620E+02  0.11664319118E+03  0.19930948593E+03  0.00000000000E+00 0. -1.
<scales pt_clust_5="13000.00000" pt_clust_6="13000.00000" pt_clust_7="13000.00000" pt_clust_8="13000.00000" pt_clust_9="130.97180" pt_clust_10="13000.00000"></scales>
<clustering>
<clus scale="   80.415">  5  6 -1 -1</clus>
<clus scale="   87.999">  7  8 -1 -1</clus>
<clus scale="  130.972">  2  9  1 -1</clus>
<clus scale="  126.769">  1  5  2 -1</clus>
<clus scale="   98.930">  7 10 -1 -1</clus>
<clus scale="  130.972">  2  5  1 -1</clus>
</clustering>
</event>
<event>
10    4  0.2866397E-005  0.4524093E+03  0.7546771E-02  0.1029463E+00
          2   -1    0    0  502    0 -0.00000000000E+00  0.00000000000E+00  0.17265864559E+04  0.17265864559E+04  0.00000000000E+00 0. -1.
         21   -1    0    0  503  502  0.00000000000E+00 -0.00000000000E+00 -0.20183769371E+03  0.20183769371E+03  0.00000000000E+00 0. -1.
         24    2    1    2    0    0 -0.39896879942E+03 -0.32093036691E+02  0.17024128855E+03  0.44237646755E+03  0.80676990481E+02 0.  0.
         23    2    1    2    0    0  0.39223492178E+03 -0.22690751043E+02  0.11484122646E+04  0.12173096741E+04  0.92892459847E+02 0.  0.
        -13    1    3    3    0    0 -0.20790817406E+03 -0.38376237638E+02  0.12614269298E+03  0.24619204587E+03  0.00000000000E+00 0.  1.
         14    1    3    3    0    0 -0.19106062536E+03  0.62832009468E+01  0.44098595577E+02  0.19618442168E+03  0.00000000000E+00 0. -1.
        -11    1    4    4    0    0  0.70283214033E+02 -0.23141305933E+02  0.13451641665E+03  0.15352497049E+03  0.00000000000E+00 0.  1.
         11    1    4    4    0    0  0.32195170775E+03  0.45055488976E+00  0.10138958480E+04  0.10637847036E+04  0.00000000000E+00 0. -1.
         21    1    1    2  503  501 -0.16823148175E+02  0.16166288626E+02 -0.24450509842E+02  0.33796370131E+02  0.00000000000E+00 0. -1.
          1    1    1    2  501    0  0.23557025816E+02  0.38617499108E+02  0.23054571886E+03  0.23494163783E+03  0.00000000000E+00 0. -1.
<scales pt_clust_5="13000.00000" pt_clust_6="13000.00000" pt_clust_7="13000.00000" pt_clust_8="13000.00000" pt_clust_9="23.33168" pt_clust_10="13000.00000"></scales>
<clustering>
<clus scale="   23.332">  2  9  1 -1</clus>
<clus scale="   80.677">  5  6 -1 -1</clus>
<clus scale="   92.892">  7  8 -1 -1</clus>
<clus scale="   45.301">  7 10 -1 -1</clus>
<clus scale="  420.489">  1  5  2 -1</clus>
<clus scale="   23.332">  2  5  1 -1</clus>
</clustering>
</event>
<event>
10    4  0.2866397E-005  0.6016294E+03  0.7546771E-02  0.1027848E+00
          2   -1    0    0  502    0 -0.00000000000E+00  0.00000000000E+00  0.37602636131E+04  0.37602636131E+04  0.00000000000E+00 0. -1.
         21   -1    0    0  503  502  0.00000000000E+00 -0.00000000000E+00 -0.56811261084E+02  0.56811261084E+02  0.00000000000E+00 0. -1.
         24    2    1    2    0    0  0.28499522319E+02  0.16660502674E+03  0.17465970147E+04  0.17566047827E+04  0.80559128047E+02 0.  0.
         23    2    1    2    0    0 -0.15801239611E+02  0.19830914837E+03  0.96957437143E+03  0.99419931187E+03  0.93710258185E+02 0.  0.
        -13    1    3    3    0    0  0.71928289646E+01  0.82793575943E+02  0.48677125002E+03  0.49381450247E+03  0.00000000000E+00 0.  1.
         14    1    3    3    0    0  0.21306693354E+02  0.83811450792E+02  0.12598257647E+04  0.12627902803E+04  0.00000000000E+00 0. -1.
        -13    1    4    4    0    0 -0.46892573799E+02  0.12139320457E+03  0.70542649578E+03  0.71732960662E+03  0.00000000000E+00 0. -1.
         13    1    4    4    0    0  0.31091334188E+02  0.76915943793E+02  0.26414787565E+03  0.27686970524E+03  0.00000000000E+00 0.  1.
         21    1    1    2  503  501  0.24018690140E+02 -0.18020816432E+00  0.18085880029E+02  0.30067075139E+02  0.00000000000E+00 0.  1.
          1    1    1    2  501    0 -0.36716972848E+02 -0.36473396694E+03  0.96919508585E+03  0.10362037045E+04  0.00000000000E+00 0. -1.
<scales pt_clust_5="13000.00000" pt_clust_6="13000.00000" pt_clust_7="13000.00000" pt_clust_8="13000.00000" pt_clust_9="24.01937" pt_clust_10="13000.00000"></scales>
<clustering>
<clus scale="   24.019">  2  9  1 -1</clus>
<clus scale="   80.559">  5  6 -1 -1</clus>
<clus scale="   93.710">  7  8 -1 -1</clus>
<clus scale="  187.600">  1  5  2 -1</clus>
<clus scale="  280.909">  7 10 -1 -1</clus>
<clus scale="   24.019">  2  5  1 -1</clus>
</clustering>
</event>
<event>
10    4  0.2866397E-005  0.6540019E+03  0.7546771E-02  0.9895007E-01
         21   -1    0    0  501  502  0.00000000000E+00  0.00000000000E+00  0.12991981259E+04  0.12991981259E+04  0.00000000000E+00 0. -1.
          2   -1    0    0  503    0 -0.00000000000E+00 -0.00000000000E+00 -0.94229131218E+03  0.94229131218E+03  0.00000000000E+00 0. -1.
         24    2    1    2    0    0 -0.23974248609E+02 -0.47151263198E+03 -0.28825465012E+03  0.55910222973E+03  0.81275046953E+02 0.  0.
         23    2    1    2    0    0 -0.27949914587E+02  0.50034647285E+01  0.18052769603E+02  0.94740337990E+02  0.88564082829E+02 0.  0.
        -11    1    3    3    0    0  0.23541836630E+02 -0.16618387074E+03 -0.76171692285E+02  0.18431880987E+03  0.00000000000E+00 0.  1.
         12    1    3    3    0    0 -0.47516085239E+02 -0.30532876125E+03 -0.21208295784E+03  0.37478341987E+03  0.00000000000E+00 0. -1.
        -13    1    4    4    0    0  0.13841275562E+02 -0.16947329011E+02 -0.23314373066E+02  0.31974253099E+02  0.00000000000E+00 0.  1.
         13    1    4    4    0    0 -0.41791190150E+02  0.21950793739E+02  0.41367142669E+02  0.62766084891E+02  0.00000000000E+00 0. -1.
         21    1    1    2  503  502 -0.50216951882E+03  0.47426622985E+02  0.72795982112E+03  0.88563480700E+03  0.00000000000E+00 0. -1.
          1    1    1    2  501    0  0.55409368201E+03  0.41908254427E+03 -0.10085112685E+03  0.70201206339E+03  0.00000000000E+00 0. -1.
<scales pt_clust_5="13000.00000" pt_clust_6="13000.00000" pt_clust_7="13000.00000" pt_clust_8="13000.00000" pt_clust_9="506.39500" pt_clust_10="13000.00000"></scales>
<clustering>
<clus scale="   81.275">  5  6 -1 -1</clus>
<clus scale="   88.564">  7  8 -1 -1</clus>
<clus scale="  479.066">  2  5  1 -1</clus>
<clus scale="  506.395">  1  9  2 -1</clus>
<clus scale="  194.021">  7 10 -1 -1</clus>
<clus scale="  506.395">  1  5  2 -1</clus>
</clustering>
</event>
<event>
10    4  0.2866397E-005  0.5164606E+03  0.7546771E-02  0.1070281E+00
          2   -1    0    0  503    0 -0.00000000000E+00  0.00000000000E+00  0.10419245729E+04  0.10419245729E+04  0.00000000000E+00 0. -1.
         21   -1    0    0  501  502  0.00000000000E+00 -0.00000000000E+00 -0.16573255822E+03  0.16573255822E+03  0.00000000000E+00 0.  1.
         24    2    1    2    0    0 -0.56941617306E+00  0.40499482010E+02  0.80246334073E+02  0.12083142620E+03  0.80747923487E+02 0.  0.
         23    2    1    2    0    0 -0.22793430876E+02  0.22693670791E+03  0.28040115914E+03  0.37268898320E+03  0.90843041925E+02 0.  0.
        -13    1    3    3    0    0  0.25255546534E+02  0.26193188940E+02  0.83545255130E+02  0.91124834333E+02  0.00000000000E+00 0.  1.
         14    1    3    3    0    0 -0.25824962707E+02  0.14306293070E+02 -0.32989210563E+01  0.29706591867E+02  0.00000000000E+00 0. -1.
        -11    1    4    4    0    0 -0.46512227893E+02  0.55583493295E+02  0.85885109119E+02  0.11237955347E+03  0.00000000000E+00 0. -1.
         11    1    4    4    0    0  0.23718797017E+02  0.17135321461E+03  0.19451605002E+03  0.26030942973E+03  0.00000000000E+00 0.  1.
         21    1    1    2  503  502 -0.31490960598E+01 -0.23370315527E+02 -0.72854238087E+02  0.76575638823E+02  0.00000000000E+00 0.  1.
          1    1    1    2  501    0  0.26511943108E+02 -0.24406587439E+03  0.58839875955E+03  0.63756108288E+03  0.00000000000E+00 0. -1.
<scales pt_clust_5="13000.00000" pt_clust_6="13000.00000" pt_clust_7="13000.00000" pt_clust_8="13000.00000" pt_clust_9="23.58153" pt_clust_10="13000.00000"></scales>
<clustering>
<clus scale="   23.582">  2  9  1 -1</clus>
<clus scale="   80.748">  5  6 -1 -1</clus>
<clus scale="   88.132">  1  5  2 -1</clus>
<clus scale="   90.843">  7  8 -1 -1</clus>
<clus scale="  227.657">  7 10 -1 -1</clus>
<clus scale="   23.582">  2  5  1 -1</clus>
</clustering>
</event>
<event>
10    4  0.2866397E-005  0.2967955E+03  0.7546771E-02  0.1127022E+00
          4   -1    0    0  503    0 -0.00000000000E+00  0.00000000000E+00  0.17026786953E+03  0.17026786953E+03  0.00000000000E+00 0. -1.
         21   -1    0    0  501  502  0.00000000000E+00 -0.00000000000E+00 -0.30703226735E+03  0.30703226735E+03  0.00000000000E+00 0. -1.
         24    2    1    2    0    0  0.25290364132E+02 -0.55767116680E+02 -0.88940414705E+02  0.13711470905E+03  0.84501315068E+02 0.  0.
         23    2    1    2    0    0  0.17130532829E+02 -0.57046361330E+02 -0.81784702534E+02  0.15543514930E+03  0.11799832868E+03 0.  0.
        -13    1    3    3    0    0 -0.14067534499E+02  0.16683208942E+02 -0.20869454557E+02  0.30195349327E+02  0.00000000000E+00 0.  1.
         14    1    3    3    0    0  0.39357898631E+02 -0.72450325622E+02 -0.68070960148E+02  0.10691935972E+03  0.00000000000E+00 0. -1.
        -11    1    4    4    0    0 -0.49680357880E+02 -0.35180512158E+02 -0.47544782219E+02  0.77241910327E+02  0.00000000000E+00 0.  1.
         11    1    4    4    0    0  0.66810890709E+02 -0.21865849172E+02 -0.34239920315E+02  0.78193238970E+02  0.00000000000E+00 0. -1.
         21    1    1    2  503  502  0.23855824027E+02  0.55353311588E+01 -0.33689315999E+02  0.41649852863E+02  0.00000000000E+00 0.  1.
          3    1    1    2  501    0 -0.66276720988E+02  0.10727814685E+03  0.67650035411E+02  0.14310042567E+03  0.00000000000E+00 0. -1.
<scales pt_clust_5="13000.00000" pt_clust_6="13000.00000" pt_clust_7="13000.00000" pt_clust_8="13000.00000" pt_clust_9="24.48959" pt_clust_10="13000.00000"></scales>
<clustering>
<clus scale="   24.490">  2  9  1 -1</clus>
<clus scale="   84.501">  5  6 -1 -1</clus>
<clus scale="  106.033">  1  5  2 -1</clus>
<clus scale="  117.998">  7  8 -1 -1</clus>
<clus scale="   78.759">  7 10 -1 -1</clus>
<clus scale="   24.490">  2  5  1 -1</clus>
</clustering>
</event>
<event>
10    4  0.2866397E-005  0.2228081E+03  0.7546771E-02  0.1156124E+00
         21   -1    0    0  503  502  0.00000000000E+00  0.00000000000E+00  0.76652664053E+02  0.76652664053E+02  0.00000000000E+00 0.  1.
         -1   -1    0    0    0  501 -0.00000000000E+00 -0.00000000000E+00 -0.92465434083E+03  0.92465434083E+03  0.00000000000E+00 0.  1.
         24    2    1    2    0    0  0.52379044702E+02  0.80992489350E+02 -0.13857241493E+03  0.18624773177E+03  0.78629229648E+02 0.  0.
         23    2    1    2    0    0  0.32672601808E+02 -0.15341589142E+03 -0.44378321734E+03  0.47978334653E+03  0.92976238689E+02 0.  0.
        -11    1    3    3    0    0  0.19233585460E+02  0.80456307131E+02 -0.63838661475E+02  0.10449173587E+03  0.00000000000E+00 0.  1.
         12    1    3    3    0    0  0.33145459241E+02  0.53618221856E+00 -0.74733753454E+02  0.81755995897E+02  0.00000000000E+00 0. -1.
        -11    1    4    4    0    0 -0.26331710389E+02 -0.60271847918E+02 -0.23029355141E+03  0.23950192994E+03  0.00000000000E+00 0. -1.
         11    1    4    4    0    0  0.59004312197E+02 -0.93144043501E+02 -0.21348966593E+03  0.24028141659E+03  0.00000000000E+00 0.  1.
         21    1    1    2  503  501 -0.52536589628E+02  0.12706538887E+03 -0.20867667860E+03  0.24990330628E+03  0.00000000000E+00 0.  1.
         -2    1    1    2    0  502 -0.32515056882E+02 -0.54641986804E+02 -0.56969365907E+02  0.85372620305E+02  0.00000000000E+00 0.  1.
<scales pt_clust_5="13000.00000" pt_clust_6="13000.00000" pt_clust_7="13000.00000" pt_clust_8="13000.00000" pt_clust_9="155.83146" pt_clust_10="13000.00000"></scales>
<clustering>
<clus scale="   78.629">  5  6 -1 -1</clus>
<clus scale="   92.976">  7  8 -1 -1</clus>
<clus scale="   63.584">  7 10 -1 -1</clus>
<clus scale="  124.442">  2  5  1 -1</clus>
<clus scale="  155.831">  1  9  2 -1</clus>
<clus scale="  155.831">  1  5  2 -1</clus>
</clustering>
</event>
<event>
10    4  0.2866397E-005  0.1497832E+03  0.7546771E-02  0.1218435E+00
          2   -1    0    0  502    0 -0.00000000000E+00  0.00000000000E+00  0.24249234514E+03  0.24249234514E+03  0.00000000000E+00 0. -1.
         21   -1    0    0  503  502  0.00000000000E+00 -0.00000000000E+00 -0.50562099996E+03  0.50562099996E+03  0.00000000000E+00 0.  1.
         24    2    1    2    0    0  0.24192158611E+02  0.52236145439E+02  0.23261663918E+02  0.10183817022E+03  0.80721945442E+02 0.  0.
         23    2    1    2    0    0  0.27270412656E+01 -0.66973965994E+02  0.93453464341E+02  0.14832350842E+03  0.93666238735E+02 0.  0.
        -13    1    3    3    0    0  0.32179358703E+02  0.71363515137E+02  0.16213517266E+02  0.79944609333E+02  0.00000000000E+00 0.  1.
         14    1    3    3    0    0 -0.79872000913E+01 -0.19127369698E+02  0.70481466515E+01  0.21893560882E+02  0.00000000000E+00 0. -1.
        -11    1    4    4    0    0  0.43716081838E+02 -0.45349264208E+02  0.30053848933E+02  0.69791728816E+02  0.00000000000E+00 0. -1.
         11    1    4    4    0    0 -0.40989040573E+02 -0.21624701786E+02  0.63399615408E+02  0.78531779607E+02  0.00000000000E+00 0.  1.
         21    1    1    2  503  501 -0.71367166668E+02  0.18876265735E+02 -0.42681480516E+03  0.43315177916E+03  0.00000000000E+00 0.  1.
          1    1    1    2  501    0  0.44447966791E+02 -0.41384451798E+01  0.46971022075E+02  0.64799887308E+02  0.00000000000E+00 0. -1.
<scales pt_clust_5="13000.00000" pt_clust_6="13000.00000" pt_clust_7="13000.00000" pt_clust_8="13000.00000" pt_clust_9="73.82131" pt_clust_10="13000.00000"></scales>
<clustering>
<clus scale="   73.821">  2  9  1 -1</clus>
<clus scale="   80.722">  5  6 -1 -1</clus>
<clus scale="   93.666">  7  8 -1 -1</clus>
<clus scale="   36.088">  7 10 -1 -1</clus>
<clus scale="  102.620">  1  5  2 -1</clus>
<clus scale="   73.821">  2  5  1 -1</clus>
</clustering>
</event>
<event>
10    4  0.2866397E-005  0.1626895E+03  0.7546771E-02  0.1207291E+00
         21   -1    0    0  503  502  0.00000000000E+00  0.00000000000E+00  0.19205561816E+03  0.19205561816E+03  0.00000000000E+00 0. -1.
          2   -1    0    0  502    0 -0.00000000000E+00 -0.00000000000E+00 -0.72061845556E+03  0.72061845556E+03  0.00000000000E+00 0. -1.
         24    2    1    2    0    0  0.56143591957E+02  0.31772639404E+02 -0.30620859973E+03  0.32322778118E+03  0.80937558915E+02 0.  0.
         23    2    1    2    0    0 -0.22801632731E+02 -0.31450427713E+02 -0.14288514370E+03  0.17171774642E+03  0.86958474496E+02 0.  0.
        -13    1    3    3    0    0  0.32716675777E+02  0.22976151495E+02 -0.42551843011E+02  0.58386160647E+02  0.00000000000E+00 0.  1.
         14    1    3    3    0    0  0.23426916180E+02  0.87964879087E+01 -0.26365675672E+03  0.26484162053E+03  0.00000000000E+00 0. -1.
        -11    1    4    4    0    0  0.20297680511E+02  0.18187742740E+02 -0.60221420539E+02  0.66101507637E+02  0.00000000000E+00 0.  1.
         11    1    4    4    0    0 -0.43099313242E+02 -0.49638170452E+02 -0.82663723159E+02  0.10561623878E+03  0.00000000000E+00 0. -1.
         21    1    1    2  503  501  0.41792096543E+00 -0.22216302305E+02  0.16675974065E+03  0.16823361688E+03  0.00000000000E+00 0. -1.
          1    1    1    2  501    0 -0.33759880192E+02  0.21894090614E+02 -0.24622883463E+03  0.24949492924E+03  0.00000000000E+00 0. -1.
<scales pt_clust_5="13000.00000" pt_clust_6="13000.00000" pt_clust_7="13000.00000" pt_clust_8="13000.00000" pt_clust_9="22.22023" pt_clust_10="13000.00000"></scales>
<clustering>
<clus scale="   22.220">  1  9  2 -1</clus>
<clus scale="   80.938">  5  6 -1 -1</clus>
<clus scale="   86.958">  7  8 -1 -1</clus>
<clus scale="   39.430">  7 10 -1 -1</clus>
<clus scale="  101.483">  2  5  1 -1</clus>
<clus scale="   22.220">  1  5  2 -1</clus>
</clustering>
</event>
<event>
10    4  0.2866397E-005  0.2585121E+03  0.7546771E-02  0.1127145E+00
         21   -1    0    0  503  502  0.00000000000E+00  0.00000000000E+00  0.19135465540E+03  0.19135465540E+03  0.00000000000E+00 0.  1.
         -1   -1    0    0    0  501 -0.00000000000E+00 -0.00000000000E+00 -0.30718805007E+03  0.30718805007E+03  0.00000000000E+00 0.  1.
         24    2    1    2    0    0 -0.13332458794E+03  0.46839939161E+02  0.30558691521E+02  0.16179173095E+03  0.72617524939E+02 0.  0.
         23    2    1    2    0    0  0.98772876668E+02 -0.46214291865E+02 -0.20764903277E+03  0.25190619049E+03  0.91906289557E+02 0.  0.
        -13    1    3    3    0    0 -0.13078956537E+03  0.58028654951E+02  0.17093631437E+02  0.14410214239E+03  0.00000000000E+00 0.  1.
         14    1    3    3    0    0 -0.25350225628E+01 -0.11188715790E+02  0.13465060084E+02  0.17689588562E+02  0.00000000000E+00 0. -1.
        -11    1    4    4    0    0  0.11218692703E+03 -0.27396348702E+02 -0.14655397985E+03  0.18658653630E+03  0.00000000000E+00 0.  1.
         11    1    4    4    0    0 -0.13414050366E+02 -0.18817943163E+02 -0.61095052920E+02  0.65319654189E+02  0.00000000000E+00 0. -1.
         21    1    1    2  503  501  0.63662448812E+01  0.21516591294E+02  0.18735103965E+02  0.29231778861E+02  0.00000000000E+00 0. -1.
         -2    1    1    2    0  502  0.28185466386E+02 -0.22142238590E+02  0.42521842607E+02  0.55613005168E+02  0.00000000000E+00 0.  1.
<scales pt_clust_5="13000.00000" pt_clust_6="13000.00000" pt_clust_7="13000.00000" pt_clust_8="13000.00000" pt_clust_9="22.43864" pt_clust_10="13000.00000"></scales>
<clustering>
<clus scale="   22.439">  1  9  2 -1</clus>
<clus scale="   72.618">  5  6 -1 -1</clus>
<clus scale="   91.906">  7  8 -1 -1</clus>
<clus scale="   33.968">  7 10 -1 -1</clus>
<clus scale="  159.974">  2  5  1 -1</clus>
<clus scale="   22.439">  1  5  2 -1</clus>
</clustering>
</event>
<event>
10    4  0.2866397E-005  0.7110721E+03  0.7546771E-02  0.1017987E+00
          2   -1    0    0  502    0 -0.00000000000E+00  0.00000000000E+00  0.18275692993E+04  0.18275692993E+04  0.00000000000E+00 0. -1.
         21   -1    0    0  503  502  0.00000000000E+00 -0.00000000000E+00 -0.53033578138E+03  0.53033578138E+03  0.00000000000E+00 0. -1.
         24    2    1    2    0    0 -0.29706728266E+02  0.12706059834E+03  0.44403452362E+03  0.46961642838E+03  0.79662075542E+02 0.  0.
         23    2    1    2    0    0  0.16994289038E+03 -0.78455337994E+02  0.23335710204E+03  0.31265642655E+03  0.90899273608E+02 0.  0.
        -11    1    3    3    0    0 -0.24188061060E+02  0.44740113570E+01  0.36553426589E+02  0.44059415235E+02  0.00000000000E+00 0.  1.
         12    1    3    3    0    0 -0.55186672061E+01  0.12258658699E+03  0.40748109703E+03  0.42555701314E+03  0.00000000000E+00 0. -1.
        -11    1    4    4    0    0  0.14066797687E+03 -0.19338815043E+02  0.15426295844E+03  0.20966289570E+03  0.00000000000E+00 0.  1.
         11    1    4    4    0    0  0.29274913504E+02 -0.59116522951E+02  0.79094143598E+02  0.10299353086E+03  0.00000000000E+00 0. -1.
         21    1    1    2  503  501  0.26408060184E+03 -0.22634699741E+03 -0.36017166465E+03  0.50069467295E+03  0.00000000000E+00 0. -1.
          1    1    1    2  501    0 -0.40431676395E+03  0.17774173706E+03  0.98001355690E+03  0.10749375528E+04  0.00000000000E+00 0. -1.
<scales pt_clust_5="13000.00000" pt_clust_6="13000.00000" pt_clust_7="13000.00000" pt_clust_8="13000.00000" pt_clust_9="342.43787" pt_clust_10="13000.00000"></scales>
<clustering>
<clus scale="   79.662">  5  6 -1 -1</clus>
<clus scale="   90.899">  7  8 -1 -1</clus>
<clus scale="  152.882">  1  5  2 -1</clus>
<clus scale="  342.438">  2  9  1 -1</clus>
<clus scale="  298.887">  7 10 -1 -1</clus>
<clus scale="  342.438">  2  5  1 -1</clus>
</clustering>
</event>
<event>
10    4  0.2866397E-005  0.2825919E+03  0.7546771E-02  0.1116104E+00
         21   -1    0    0  501  502  0.00000000000E+00  0.00000000000E+00  0.10925377189E+03  0.10925377189E+03  0.00000000000E+00 0. -1.
          2   -1    0    0  503    0 -0.00000000000E+00 -0.00000000000E+00 -0.12397286670E+04  0.12397286670E+04  0.00000000000E+00 0. -1.
         24    2    1    2    0    0  0.13603714472E+03 -0.30815105731E+02 -0.55682578910E+03  0.57951275259E+03  0.79526068193E+02 0.  0.
         23    2    1    2    0    0 -0.15213089919E+02 -0.42679789645E+02 -0.40404258659E+03  0.41708308386E+03  0.93031631814E+02 0.  0.
        -11    1    3    3    0    0  0.14154013720E+03 -0.13288900250E+02 -0.49655458088E+03  0.51650426629E+03  0.00000000000E+00 0.  1.
         12    1    3    3    0    0 -0.55029924796E+01 -0.17526205481E+02 -0.60271208222E+02  0.63008486297E+02  0.00000000000E+00 0. -1.
        -13    1    4    4    0    0 -0.21329758456E+02 -0.69872148251E+02 -0.24665000400E+03  0.25724171546E+03  0.00000000000E+00 0.  1.
         13    1    4    4    0    0  0.61166685365E+01  0.27192358606E+02 -0.15739258259E+03  0.15984136841E+03  0.00000000000E+00 0. -1.
         21    1    1    2  503  502 -0.53313382460E+01 -0.32545583904E+02  0.63443490522E+02  0.71503249498E+02  0.00000000000E+00 0. -1.
          1    1    1    2  501    0 -0.11549271655E+03  0.10604047928E+03 -0.23305000993E+03  0.28088335293E+03  0.00000000000E+00 0. -1.
<scales pt_clust_5="13000.00000" pt_clust_6="13000.00000" pt_clust_7="13000.00000" pt_clust_8="13000.00000" pt_clust_9="32.97936" pt_clust_10="13000.00000"></scales>
<clustering>
<clus scale="   32.979">  1  9  2 -1</clus>
<clus scale="   79.526">  5  6 -1 -1</clus>
<clus scale="   93.032">  7  8 -1 -1</clus>
<clus scale="  147.287">  7 10 -1 -1</clus>
<clus scale="  161.279">  2  5  1 -1</clus>
<clus scale="   32.979">  1  5  2 -1</clus>
</clustering>
</event>
<event>
10    4  0.2866397E-005  0.3760767E+03  0.7546771E-02  0.1089059E+00
         21   -1    0    0  503  502  0.00000000000E+00  0.00000000000E+00  0.41034544844E+03  0.41034544844E+03  0.00000000000E+00 0. -1.
          2   -1    0    0  502    0 -0.00000000000E+00 -0.00000000000E+00 -0.11211634408E+04  0.11211634408E+04  0.00000000000E+00 0. -1.
         24    2    1    2    0    0 -0.10468294387E+03  0.39069208753E+02 -0.62453055689E+03  0.63950727586E+03  0.80288340220E+02 0.  0.
         23    2    1    2    0    0  0.12006248188E+03  0.71568400620E+02 -0.73103092998E+02  0.19664588551E+03  0.11742447172E+03 0.  0.
        -13    1    3    3    0    0 -0.95372611890E+02  0.16430509248E+01 -0.37129744970E+03  0.38335418462E+03  0.00000000000E+00 0.  1.
         14    1    3    3    0    0 -0.93103319809E+01  0.37426157828E+02 -0.25323310719E+03  0.25615309123E+03  0.00000000000E+00 0. -1.
        -11    1    4    4    0    0  0.76511616418E+01  0.30514752360E+02 -0.70211884895E+02  0.76937631667E+02  0.00000000000E+00 0.  1.
         11    1    4    4    0    0  0.11241132024E+03  0.41053648260E+02 -0.28912081029E+01  0.11970825384E+03  0.00000000000E+00 0. -1.
         21    1    1    2  503  501 -0.98331239832E+02 -0.27293036288E+03  0.24472786780E+03  0.37954149310E+03  0.00000000000E+00 0. -1.
          1    1    1    2  501    0  0.82951701824E+02  0.16229275351E+03 -0.25791221031E+03  0.31581423480E+03  0.00000000000E+00 0. -1.
<scales pt_clust_5="13000.00000" pt_clust_6="13000.00000" pt_clust_7="13000.00000" pt_clust_8="13000.00000" pt_clust_9="290.33645" pt_clust_10="13000.00000"></scales>
<clustering>
<clus scale="   80.288">  5  6 -1 -1</clus>
<clus scale="  117.424">  7  8 -1 -1</clus>
<clus scale="  137.590">  2  5  1 -1</clus>
<clus scale="  186.456">  7 10 -1 -1</clus>
<clus scale="  290.336">  1  9  2 -1</clus>
<clus scale="  290.336">  1  5  2 -1</clus>
</clustering>
</event>
<event>
10    4  0.2866397E-005  0.2245464E+03  0.7546771E-02  0.1170699E+00
         21   -1    0    0  503  502  0.00000000000E+00  0.00000000000E+00  0.14538497223E+03  0.14538497223E+03  0.00000000000E+00 0. -1.
          2   -1    0    0  502    0 -0.00000000000E+00 -0.00000000000E+00 -0.48614242365E+03  0.48614242365E+03  0.00000000000E+00 0. -1.
         24    2    1    2    0    0  0.10287272270E+02 -0.35411019094E+02 -0.17256471321E+03  0.19315186065E+03  0.78544845684E+02 0.  0.
         23    2    1    2    0    0 -0.12548082290E+02 -0.39134270846E+02 -0.18542727675E+03  0.21088187847E+03  0.91645764671E+02 0.  0.
        -11    1    3    3    0    0  0.25958541124E+02  0.15273588761E+02 -0.37874904971E+02  0.48390461844E+02  0.00000000000E+00 0.  1.
         12    1    3    3    0    0 -0.15671268854E+02 -0.50684607855E+02 -0.13468980824E+03  0.14476139881E+03  0.00000000000E+00 0. -1.
        -13    1    4    4    0    0  0.32633076045E+02 -0.16058725221E+02 -0.13317664017E+03  0.13805367722E+03  0.00000000000E+00 0.  1.
         13    1    4    4    0    0 -0.45181158335E+02 -0.23075545625E+02 -0.52250636577E+02  0.72828201248E+02  0.00000000000E+00 0. -1.
         21    1    1    2  503  501 -0.90067496582E+02  0.47977809207E+02  0.64189711523E+02  0.12055846375E+03  0.00000000000E+00 0. -1.
          1    1    1    2  501    0  0.92328306602E+02  0.26567480732E+02 -0.46955172984E+02  0.10693519300E+03  0.00000000000E+00 0. -1.
<scales pt_clust_5="13000.00000" pt_clust_6="13000.00000" pt_clust_7="13000.00000" pt_clust_8="13000.00000" pt_clust_9="99.68847" pt_clust_10="13000.00000"></scales>
<clustering>
<clus scale="   78.545">  5  6 -1 -1</clus>
<clus scale="   86.770">  2  5  1 -1</clus>
<clus scale="   91.646">  7  8 -1 -1</clus>
<clus scale="   96.553">  7 10 -1 -1</clus>
<clus scale="   99.688">  1  9  2 -1</clus>
<clus scale="   99.688">  1  5  2 -1</clus>
</clustering>
</event>
<event>
10    4  0.2866397E-005  0.2708076E+03  0.7546771E-02  0.1109403E+00
         21   -1    0    0  501  502  0.00000000000E+00  0.00000000000E+00  0.16907675331E+03  0.16907675331E+03  0.00000000000E+00 0. -1.
          2   -1    0    0  503    0 -0.00000000000E+00 -0.00000000000E+00 -0.15322283210E+04  0.15322283210E+04  0.00000000000E+00 0. -1.
         24    2    1    2    0    0 -0.20463345120E+03  0.85387329873E+02 -0.12163438822E+04  0.12390876571E+04  0.81730879328E+02 0.  0.
         23    2    1    2    0    0  0.69999807987E+00  0.11372443949E+02 -0.31338601557E+02  0.96028144530E+02  0.90052618594E+02 0.  0.
        -13    1    3    3    0    0 -0.45509496885E+02 -0.13963227776E+02 -0.20105021884E+03  0.20660899432E+03  0.00000000000E+00 0.  1.
         14    1    3    3    0    0 -0.15912395431E+03  0.99350557649E+02 -0.10152936634E+04  0.10324786628E+04  0.00000000000E+00 0. -1.
        -11    1    4    4    0    0  0.34612267468E+02  0.24226778359E+02  0.74783139706E+01  0.42905372960E+02  0.00000000000E+00 0.  1.
         11    1    4    4    0    0 -0.33912269389E+02 -0.12854334410E+02 -0.38816915528E+02  0.53122771570E+02  0.00000000000E+00 0. -1.
         21    1    1    2  503  502  0.21809367744E+03  0.10545837048E+02 -0.13427539103E+03  0.25633171371E+03  0.00000000000E+00 0.  1.
          1    1    1    2  501    0 -0.14160224324E+02 -0.10730561087E+03  0.18806307137E+02  0.10985755898E+03  0.00000000000E+00 0. -1.
<scales pt_clust_5="13000.00000" pt_clust_6="13000.00000" pt_clust_7="13000.00000" pt_clust_8="13000.00000" pt_clust_9="218.34850" pt_clust_10="13000.00000"></scales>
<clustering>
<clus scale="   81.731">  5  6 -1 -1</clus>
<clus scale="   90.053">  7  8 -1 -1</clus>
<clus scale="  108.236">  7 10 -1 -1</clus>
<clus scale="  218.348">  1  9  2 -1</clus>
<clus scale="  217.185">  2  5  1 -1</clus>
<clus scale="  218.348">  1  5  2 -1</clus>
</clustering>
</event>
<event>
10    4  0.2866397E-005  0.1990609E+03  0.7546771E-02  0.1185305E+00
         21   -1    0    0  501  502  0.00000000000E+00  0.00000000000E+00  0.72106108879E+02  0.72106108879E+02  0.00000000000E+00 0. -1.
         -3   -1    0    0    0  501 -0.00000000000E+00 -0.00000000000E+00 -0.43872362756E+03  0.43872362756E+03  0.00000000000E+00 0.  1.
         24    2    1    2    0    0  0.25569117852E+02 -0.53046206982E+01 -0.89893329989E+02  0.12613282135E+03  0.84538506358E+02 0.  0.
         23    2    1    2    0    0 -0.56860692769E+00  0.24994728927E+02 -0.28994705839E+03  0.30530118646E+03  0.92273820747E+02 0.  0.
        -11    1    3    3    0    0 -0.23067391321E+02 -0.23531720761E+02 -0.18329343919E+02  0.37706912799E+02  0.00000000000E+00 0.  1.
         12    1    3    3    0    0  0.48636509173E+02  0.18227100062E+02 -0.71563986069E+02  0.88425908553E+02  0.00000000000E+00 0. -1.
        -11    1    4    4    0    0 -0.40739751572E+02  0.15200040897E+02 -0.77475962835E+02  0.88844208695E+02  0.00000000000E+00 0.  1.
         11    1    4    4    0    0  0.40171144644E+02  0.97946880298E+01 -0.21247109556E+03  0.21645697777E+03  0.00000000000E+00 0. -1.
         21    1    1    2  503  502  0.10955022413E+02  0.17143129217E+02  0.18698528553E+02  0.27632125606E+02  0.00000000000E+00 0. -1.
         -4    1    1    2    0  503 -0.35955533337E+02 -0.36833237446E+02 -0.54756588555E+01  0.51763603026E+02  0.00000000000E+00 0.  1.
<scales pt_clust_5="13000.00000" pt_clust_6="13000.00000" pt_clust_7="13000.00000" pt_clust_8="13000.00000" pt_clust_9="20.34452" pt_clust_10="13000.00000"></scales>
<clustering>
<clus scale="   20.345">  1  9  2 -1</clus>
<clus scale="   84.539">  5  6 -1 -1</clus>
<clus scale="   89.585">  2  5  1 -1</clus>
<clus scale="   92.274">  7  8 -1 -1</clus>
<clus scale="   40.603">  7 10 -1 -1</clus>
<clus scale="   20.345">  1  5  2 -1</clus>
</clustering>
</event>
<event>
10    4  0.2866397E-005  0.6147033E+03  0.7546771E-02  0.1012818E+00
         21   -1    0    0  503  502  0.00000000000E+00  0.00000000000E+00  0.12628741119E+03  0.12628741119E+03  0.00000000000E+00 0. -1.
          2   -1    0    0  502    0 -0.00000000000E+00 -0.00000000000E+00 -0.23564441803E+04  0.23564441803E+04  0.00000000000E+00 0. -1.
         24    2    1    2    0    0  0.11756574304E+03 -0.19454705048E+03 -0.18862957279E+03  0.30612729561E+03  0.80389965814E+02 0.  0.
         23    2    1    2    0    0  0.13792729713E+03  0.65091525836E+02 -0.23737954115E+03  0.29710072169E+03  0.93053459078E+02 0.  0.
        -13    1    3    3    0    0  0.17674019280E+02 -0.94849678869E+02 -0.51587012942E+02  0.10940773484E+03  0.00000000000E+00 0.  1.
         14    1    3    3    0    0  0.99891723756E+02 -0.99697371611E+02 -0.13704255984E+03  0.19671956077E+03  0.00000000000E+00 0. -1.
        -11    1    4    4    0    0  0.21468596171E+02 -0.12524759774E+02 -0.42896833550E+01  0.25222442630E+02  0.00000000000E+00 0.  1.
         11    1    4    4    0    0  0.11645870096E+03  0.77616285610E+02 -0.23308985779E+03  0.27187827906E+03  0.00000000000E+00 0. -1.
         21    1    1    2  503  501  0.71641980848E+02 -0.35705819607E+02 -0.67788253936E+02  0.10489388135E+03  0.00000000000E+00 0. -1.
          1    1    1    2  501    0 -0.32713502101E+03  0.16516134425E+03 -0.17363594012E+04  0.17746096928E+04  0.00000000000E+00 0. -1.
<scales pt_clust_5="13000.00000" pt_clust_6="13000.00000" pt_clust_7="13000.00000" pt_clust_8="13000.00000" pt_clust_9="80.04673" pt_clust_10="13000.00000"></scales>
<clustering>
<clus scale="   80.047">  1  9  2 -1</clus>
<clus scale="   80.390">  5  6 -1 -1</clus>
<clus scale="   93.053">  7  8 -1 -1</clus>
<clus scale="  277.128">  2  5  1 -1</clus>
<clus scale="  185.697">  7 10 -1 -1</clus>
<clus scale="   80.047">  1  5  2 -1</clus>
</clustering>
</event>
<event>
10    4  0.2866397E-005  0.1488386E+03  0.7546771E-02  0.1226458E+00
          2   -1    0    0  502    0 -0.00000000000E+00  0.00000000000E+00  0.13928682441E+03  0.13928682441E+03  0.00000000000E+00 0. -1.
         21   -1    0    0  503  502  0.00000000000E+00 -0.00000000000E+00 -0.33813677390E+03  0.33813677390E+03  0.00000000000E+00 0. -1.
         24    2    1    2    0    0  0.28713942034E+02 -0.25981473999E+01  0.61691874461E+02  0.10562658220E+03  0.80745567400E+02 0.  0.
         23    2    1    2    0    0 -0.98268716300E+01  0.96832014127E+01 -0.34049151664E+02  0.98648180613E+02  0.91552099996E+02 0.  0.
        -13    1    3    3    0    0 -0.85213680730E+01  0.28733989742E+02  0.41356594965E+01  0.30254909681E+02  0.00000000000E+00 0.  1.
         14    1    3    3    0    0  0.37235310107E+02 -0.31332137142E+02  0.57556214964E+02  0.75371672514E+02  0.00000000000E+00 0. -1.
        -11    1    4    4    0    0  0.35369879809E+01  0.39043998824E+02 -0.49281943936E+02  0.62973439848E+02  0.00000000000E+00 0. -1.
         11    1    4    4    0    0 -0.13363859611E+02 -0.29360797411E+02  0.15232792272E+02  0.35674740766E+02  0.00000000000E+00 0.  1.
         21    1    1    2  503  501  0.50864263073E+02  0.77144069619E+01 -0.18193204881E+03  0.18906600888E+03  0.00000000000E+00 0. -1.
          1    1    1    2  501    0 -0.69751333477E+02 -0.14799460975E+02 -0.44560623476E+02  0.84082826615E+02  0.00000000000E+00 0. -1.
<scales pt_clust_5="13000.00000" pt_clust_6="13000.00000" pt_clust_7="13000.00000" pt_clust_8="13000.00000" pt_clust_9="51.44595" pt_clust_10="13000.00000"></scales>
<clustering>
<clus scale="   51.446">  2  9  1 -1</clus>
<clus scale="   80.746">  5  6 -1 -1</clus>
<clus scale="   88.434">  1  5  2 -1</clus>
<clus scale="   91.552">  7  8 -1 -1</clus>
<clus scale="   41.151">  7 10 -1 -1</clus>
<clus scale="   51.446">  2  5  1 -1</clus>
</clustering>
</event>
<event>
10    4  0.2866397E-005  0.4649905E+03  0.7546771E-02  0.1074546E+00
          2   -1    0    0  503    0 -0.00000000000E+00  0.00000000000E+00  0.95851665314E+03  0.95851665314E+03  0.00000000000E+00 0. -1.
         21   -1    0    0  501  502  0.00000000000E+00 -0.00000000000E+00 -0.13914993553E+03  0.13914993553E+03  0.00000000000E+00 0. -1.
         24    2    1    2    0    0  0.48213239002E+02  0.55162040441E+02  0.37042879732E+03  0.38615417686E+03  0.80809574310E+02 0.  0.
         23    2    1    2    0    0 -0.43424365691E+02  0.14899314033E+03  0.46970554615E+03  0.50273435466E+03  0.89632024779E+02 0.  0.
        -11    1    3    3    0    0 -0.11160568548E+02  0.46511277282E+02  0.19367787713E+03  0.19949681024E+03  0.00000000000E+00 0.  1.
         12    1    3    3    0    0  0.59373807550E+02  0.86507631595E+01  0.17675092018E+03  0.18665736662E+03  0.00000000000E+00 0. -1.
        -13    1    4    4    0    0 -0.46196488844E+02  0.30446307802E+02  0.21124751568E+03  0.21837263134E+03  0.00000000000E+00 0.  1.
         13    1    4    4    0    0  0.27721231536E+01  0.11854683252E+03  0.25845803048E+03  0.28436172331E+03  0.00000000000E+00 0. -1.
         21    1    1    2  503  502  0.15887624685E+02 -0.58517657518E+02 -0.69245849526E+01  0.61030178897E+02  0.00000000000E+00 0.  1.
          1    1    1    2  501    0 -0.20676497997E+02 -0.14563752325E+03 -0.13843040907E+02  0.14774787826E+03  0.00000000000E+00 0. -1.
<scales pt_clust_5="13000.00000" pt_clust_6="13000.00000" pt_clust_7="13000.00000" pt_clust_8="13000.00000" pt_clust_9="60.63607" pt_clust_10="13000.00000"></scales>
<clustering>
<clus scale="   60.636">  2  9  1 -1</clus>
<clus scale="   80.810">  5  6 -1 -1</clus>
<clus scale="   89.632">  7  8 -1 -1</clus>
<clus scale="  107.471">  1  5  2 -1</clus>
<clus scale="  178.751">  7 10 -1 -1</clus>
<clus scale="   60.636">  2  5  1 -1</clus>
</clustering>
</event>
<event>
10    4  0.2866397E-005  0.1882680E+03  0.7546771E-02  0.1194123E+00
          2   -1    0    0  502    0 -0.00000000000E+00  0.00000000000E+00  0.18585177327E+03  0.18585177327E+03  0.00000000000E+00 0. -1.
         21   -1    0    0  503  502  0.00000000000E+00 -0.00000000000E+00 -0.12922040253E+03  0.12922040253E+03  0.00000000000E+00 0.  1.
         24    2    1    2    0    0 -0.21124622505E+02 -0.26068742369E+01 -0.77631999991E+01  0.84982920499E+02  0.81907167165E+02 0.  0.
         23    2    1    2    0    0  0.50464100172E+02 -0.49178534012E+02  0.15262160169E+02  0.11702827286E+03  0.92182045447E+02 0.  0.
        -13    1    3    3    0    0 -0.27306223533E+01 -0.26697879315E+02 -0.35087610494E+02  0.44174353063E+02  0.00000000000E+00 0.  1.
         14    1    3    3    0    0 -0.18394000152E+02  0.24091005078E+02  0.27324410495E+02  0.40808567436E+02  0.00000000000E+00 0. -1.
        -11    1    4    4    0    0  0.38147297687E+02 -0.74064438385E+02  0.25974511652E+02  0.87266446069E+02  0.00000000000E+00 0.  1.
         11    1    4    4    0    0  0.12316802485E+02  0.24885904373E+02 -0.10712351482E+02  0.29761826795E+02  0.00000000000E+00 0. -1.
         21    1    1    2  503  501 -0.18488194694E+02 -0.10831637396E+02 -0.12270909176E+02  0.24692365697E+02  0.00000000000E+00 0.  1.
          1    1    1    2  501    0 -0.10851282973E+02  0.62617045644E+02  0.61403319749E+02  0.88368616735E+02  0.00000000000E+00 0. -1.
<scales pt_clust_5="13000.00000" pt_clust_6="13000.00000" pt_clust_7="13000.00000" pt_clust_8="13000.00000" pt_clust_9="21.42750" pt_clust_10="13000.00000"></scales>
<clustering>
<clus scale="   21.427">  2  9  1 -1</clus>
<clus scale="   81.907">  5  6 -1 -1</clus>
<clus scale="   87.138">  1  5  2 -1</clus>
<clus scale="   92.182">  7  8 -1 -1</clus>
<clus scale="   64.082">  7 10 -1 -1</clus>
<clus scale="   21.427">  2  5  1 -1</clus>
</clustering>
</event>
<event>
10    4  0.2866397E-005  0.5469016E+03  0.7546771E-02  0.1050909E+00
          2   -1    0    0  502    0 -0.00000000000E+00  0.00000000000E+00  0.59785007520E+03  0.59785007520E+03  0.00000000000E+00 0. -1.
         21   -1    0    0  503  502  0.00000000000E+00 -0.00000000000E+00 -0.27754562971E+03  0.27754562971E+03  0.00000000000E+00 0. -1.
         24    2    1    2    0    0 -0.82508847565E+02  0.38253912996E+02  0.72874069013E+01  0.12059799315E+03  0.78865061130E+02 0.  0.
         23    2    1    2    0    0 -0.12341566670E+03 -0.20091055131E+03  0.20487476790E+03  0.32559889262E+03  0.91893916781E+02 0.  0.
        -11    1    3    3    0    0 -0.40145288539E+02  0.33316471032E+02  0.40903269346E+02  0.66292600470E+02  0.00000000000E+00 0.  1.
         12    1    3    3    0    0 -0.42363559026E+02  0.49374419644E+01 -0.33615862444E+02  0.54305392682E+02  0.00000000000E+00 0. -1.
        -13    1    4    4    0    0 -0.11252129597E+03 -0.10037039459E+03  0.13766185428E+03  0.20417160498E+03  0.00000000000E+00 0. -1.
         13    1    4    4    0    0 -0.10894370728E+02 -0.10054015672E+03  0.67212913620E+02  0.12142728764E+03  0.00000000000E+00 0.  1.
         21    1    1    2  503  501 -0.38488717802E+02 -0.61923753303E+01 -0.71931913338E+02  0.81816422965E+02  0.00000000000E+00 0. -1.
          1    1    1    2  501    0  0.24441323207E+03  0.16884901364E+03  0.18007418403E+03  0.34738239618E+03  0.00000000000E+00 0. -1.
<scales pt_clust_5="13000.00000" pt_clust_6="13000.00000" pt_clust_7="13000.00000" pt_clust_8="13000.00000" pt_clust_9="38.98367" pt_clust_10="13000.00000"></scales>
<clustering>
<clus scale="   38.984">  2  9  1 -1</clus>
<clus scale="   78.865">  5  6 -1 -1</clus>
<clus scale="   91.894">  7  8 -1 -1</clus>
<clus scale="  127.559">  1  5  2 -1</clus>
<clus scale="  260.567">  7 10 -1 -1</clus>
<clus scale="   38.984">  2  5  1 -1</clus>
</clustering>
</event>
<event>
10    4  0.2866397E-005  0.3804721E+03  0.7546771E-02  0.1092933E+00
         21   -1    0    0  503  502  0.00000000000E+00  0.00000000000E+00  0.10601385770E+03  0.10601385770E+03  0.00000000000E+00 0. -1.
          2   -1    0    0  502    0 -0.00000000000E+00 -0.00000000000E+00 -0.13543509076E+04  0.13543509076E+04  0.00000000000E+00 0. -1.
         24    2    1    2    0    0 -0.85831616045E+02 -0.81652109115E+00 -0.39421716361E+03  0.41147754759E+03  0.80863261523E+02 0.  0.
         23    2    1    2    0    0  0.20076269595E+03 -0.42572376142E+02 -0.82478031165E+03  0.85498844679E+03  0.92868801851E+02 0.  0.
        -11    1    3    3    0    0 -0.27556309056E+02 -0.39050491195E+02 -0.14330912979E+03  0.15106885090E+03  0.00000000000E+00 0.  1.
         12    1    3    3    0    0 -0.58275306988E+02  0.38233970104E+02 -0.25090803382E+03  0.26040869668E+03  0.00000000000E+00 0. -1.
        -11    1    4    4    0    0  0.16582531867E+02 -0.14989957355E+02 -0.23835997922E+02  0.32677729137E+02  0.00000000000E+00 0.  1.
         11    1    4    4    0    0  0.18418016409E+03 -0.27582418788E+02 -0.80094431373E+03  0.82231071765E+03  0.00000000000E+00 0. -1.
         21    1    1    2  503  501 -0.14519421900E+02  0.34010978421E+02  0.52364811163E+02  0.64106424901E+02  0.00000000000E+00 0. -1.
          1    1    1    2  501    0 -0.10041165801E+03  0.93779188130E+01 -0.81704385772E+02  0.12979234600E+03  0.00000000000E+00 0. -1.
<scales pt_clust_5="13000.00000" pt_clust_6="13000.00000" pt_clust_7="13000.00000" pt_clust_8="13000.00000" pt_clust_9="36.98054" pt_clust_10="13000.00000"></scales>
<clustering>
<clus scale="   36.981">  1  9  2 -1</clus>
<clus scale="   80.863">  5  6 -1 -1</clus>
<clus scale="   92.869">  7  8 -1 -1</clus>
<clus scale="  110.929">  7 10 -1 -1</clus>
<clus scale="  119.964">  2  5  1 -1</clus>
<clus scale="   36.981">  1  5  2 -1</clus>
</clustering>
</event>
<event>
10    4  0.2866397E-005  0.7851250E+03  0.7546771E-02  0.9676702E-01
          2   -1    0    0  502    0 -0.00000000000E+00  0.00000000000E+00  0.27733450705E+04  0.27733450705E+04  0.00000000000E+00 0. -1.
         21   -1    0    0  503  502  0.00000000000E+00 -0.00000000000E+00 -0.27615087125E+03  0.27615087125E+03  0.00000000000E+00 0. -1.
         24    2    1    2    0    0 -0.37757274076E+03 -0.43439300307E+03  0.78448937375E+03  0.97612534464E+03  0.78349570800E+02 0.  0.
         23    2    1    2    0    0  0.47538698591E+02 -0.11794841519E+03  0.15319783157E+03  0.21909371711E+03  0.91436998909E+02 0.  0.
        -13    1    3    3    0    0 -0.32728981627E+03 -0.34509770224E+03  0.60657961030E+03  0.77081117763E+03  0.00000000000E+00 0.  1.
         14    1    3    3    0    0 -0.50282924488E+02 -0.89295300831E+02  0.17790976345E+03  0.20531416701E+03  0.00000000000E+00 0. -1.
        -13    1    4    4    0    0  0.67700411840E+02 -0.10853121945E+03  0.14912675913E+03  0.19647178334E+03  0.00000000000E+00 0. -1.
         13    1    4    4    0    0 -0.20161713250E+02 -0.94171957329E+01  0.40710724393E+01  0.22621933769E+02  0.00000000000E+00 0.  1.
         21    1    1    2  503  501 -0.13740282594E+03  0.18237409859E+03  0.53427340580E+02  0.23450869736E+03  0.00000000000E+00 0. -1.
          1    1    1    2  501    0  0.46743686811E+03  0.36996731966E+03  0.15060796533E+04  0.16197681826E+04  0.00000000000E+00 0. -1.
<scales pt_clust_5="13000.00000" pt_clust_6="13000.00000" pt_clust_7="13000.00000" pt_clust_8="13000.00000" pt_clust_9="228.34152" pt_clust_10="13000.00000"></scales>
<clustering>
<clus scale="   78.350">  5  6 -1 -1</clus>
<clus scale="   91.437">  7  8 -1 -1</clus>
<clus scale="  228.342">  2  9  1 -1</clus>
<clus scale="  568.386">  1  5  2 -1</clus>
<clus scale="  120.484">  7 10 -1 -1</clus>
<clus scale="  228.342">  2  5  1 -1</clus>
</clustering>
</event>
<event>
10    4  0.2866397E-005  0.4975141E+03  0.7546771E-02  0.1061930E+00
         21   -1    0    0  501  502  0.00000000000E+00  0.00000000000E+00  0.10321660168E+03  0.10321660168E+03  0.00000000000E+00 0.  1.
          2   -1    0    0  503    0 -0.00000000000E+00 -0.00000000000E+00 -0.15346858734E+04  0.15346858734E+04  0.00000000000E+00 0. -1.
         24    2    1    2    0    0 -0.88757947998E+02 -0.62605877521E+01 -0.34792700248E+03  0.36843735375E+03  0.82314739198E+02 0.  0.
         23    2    1    2    0    0  0.47455829677E+02 -0.21148209285E+03 -0.42942241489E+03  0.49045756538E+03  0.95751144470E+02 0.  0.
        -11    1    3    3    0    0 -0.36163134284E+02  0.37955514723E+02 -0.15713260845E+03  0.16564736646E+03  0.00000000000E+00 0.  1.
         12    1    3    3    0    0 -0.52594813714E+02 -0.44216102475E+02 -0.19079439404E+03  0.20278998728E+03  0.00000000000E+00 0. -1.
        -11    1    4    4    0    0 -0.25044496301E+01 -0.64046067222E+02 -0.53187488052E+02  0.83289134224E+02  0.00000000000E+00 0.  1.
         11    1    4    4    0    0  0.49960279307E+02 -0.14743602563E+03 -0.37623492684E+03  0.40716843116E+03  0.00000000000E+00 0. -1.
         21    1    1    2  503  502 -0.22276294368E+02 -0.32839442358E+02  0.28643225692E+02  0.48939724593E+02  0.00000000000E+00 0.  1.
          1    1    1    2  501    0  0.63578412689E+02  0.25058212296E+03 -0.68276308005E+03  0.73006783136E+03  0.00000000000E+00 0. -1.
<scales pt_clust_5="13000.00000" pt_clust_6="13000.00000" pt_clust_7="13000.00000" pt_clust_8="13000.00000" pt_clust_9="39.68201" pt_clust_10="13000.00000"></scales>
<clustering>
<clus scale="   39.682">  1  9  2 -1</clus>
<clus scale="   82.315">  5  6 -1 -1</clus>
<clus scale="   95.751">  7  8 -1 -1</clus>
<clus scale="  124.208">  2  5  1 -1</clus>
<clus scale="  232.212">  7 10 -1 -1</clus>
<clus scale="   39.682">  1  5  2 -1</clus>
</clustering>
</event>
<event>
10    4  0.2866397E-005  0.7219293E+03  0.7546771E-02  0.1010567E+00
         21   -1    0    0  501  502  0.00000000000E+00  0.00000000000E+00  0.47924580614E+03  0.47924580614E+03  0.00000000000E+00 0. -1.
          2   -1    0    0  503    0 -0.00000000000E+00 -0.00000000000E+00 -0.98668169052E+03  0.98668169052E+03  0.00000000000E+00 0. -1.
         24    2    1    2    0    0  0.16355149784E+03  0.18046372227E+02 -0.80767236389E+02  0.20035586887E+03  0.80897241739E+02 0.  0.
         23    2    1    2    0    0  0.28327862632E+03  0.11198524171E+03 -0.17173935913E+03  0.36158729236E+03  0.91997217519E+02 0.  0.
        -11    1    3    3    0    0  0.11499942288E+03 -0.23032200768E+02 -0.67729131186E+02  0.13543479888E+03  0.00000000000E+00 0.  1.
         12    1    3    3    0    0  0.48552074960E+02  0.41078572995E+02 -0.13038105202E+02  0.64921069997E+02  0.00000000000E+00 0. -1.
        -13    1    4    4    0    0  0.20759387288E+03  0.46593418476E+02 -0.14684575449E+03  0.25851467717E+03  0.00000000000E+00 0. -1.
         13    1    4    4    0    0  0.75684753444E+02  0.65391823237E+02 -0.24893604639E+02  0.10307261519E+03  0.00000000000E+00 0.  1.
         21    1    1    2  503  502 -0.29896845387E+03  0.18783582153E+03  0.13647100889E+03  0.37853502946E+03  0.00000000000E+00 0. -1.
          1    1    1    2  501    0 -0.14786167029E+03 -0.31786743547E+03 -0.39140029775E+03  0.52544930598E+03  0.00000000000E+00 0. -1.
<scales pt_clust_5="13000.00000" pt_clust_6="13000.00000" pt_clust_7="13000.00000" pt_clust_8="13000.00000" pt_clust_9="334.96188" pt_clust_10="13000.00000"></scales>
<clustering>
<clus scale="   80.897">  5  6 -1 -1</clus>
<clus scale="   91.997">  7  8 -1 -1</clus>
<clus scale="  183.355">  2  5  1 -1</clus>
<clus scale="  313.736">  7 10 -1 -1</clus>
<clus scale="  334.962">  1  9  2 -1</clus>
<clus scale="  334.962">  1  5  2 -1</clus>
</clustering>
</event>
<event>
10    4  0.2866397E-005  0.5713517E+03  0.7546771E-02  0.1007295E+00
         21   -1    0    0  501  502  0.00000000000E+00  0.00000000000E+00  0.30308150720E+03  0.30308150720E+03  0.00000000000E+00 0. -1.
          2   -1    0    0  503    0 -0.00000000000E+00 -0.00000000000E+00 -0.11902701343E+04  0.11902701343E+04  0.00000000000E+00 0. -1.
         24    2    1    2    0    0 -0.26458924343E+03 -0.32227827230E+03 -0.17954494251E+03  0.46092587926E+03  0.79658817809E+02 0.  0.
         23    2    1    2    0    0  0.12118455897E+03  0.20894145598E+03 -0.75800151601E+03  0.80092564769E+03  0.92592469978E+02 0.  0.
        -13    1    3    3    0    0 -0.43549741700E+02 -0.25007378598E+02 -0.43017135635E+02  0.66124299200E+02  0.00000000000E+00 0.  1.
         14    1    3    3    0    0 -0.22103950173E+03 -0.29727089370E+03 -0.13652780688E+03  0.39480158006E+03  0.00000000000E+00 0. -1.
        -11    1    4    4    0    0  0.66555253822E+02  0.17645343851E+03 -0.63584851119E+03  0.66322601499E+03  0.00000000000E+00 0. -1.
         11    1    4    4    0    0  0.54629305151E+02  0.32488017465E+02 -0.12215300482E+03  0.13769963270E+03  0.00000000000E+00 0.  1.
         21    1    1    2  503  502  0.17380945267E+02  0.18858993094E+02  0.68318388953E+02  0.72973701757E+02  0.00000000000E+00 0.  1.
          1    1    1    2  501    0  0.12602373919E+03  0.94477823230E+02 -0.17960557522E+02  0.15852641278E+03  0.00000000000E+00 0. -1.
<scales pt_clust_5="13000.00000" pt_clust_6="13000.00000" pt_clust_7="13000.00000" pt_clust_8="13000.00000" pt_clust_9="25.64681" pt_clust_10="13000.00000"></scales>
<clustering>
<clus scale="   25.647">  1  9  2 -1</clus>
<clus scale="   79.659">  5  6 -1 -1</clus>
<clus scale="   92.592">  7  8 -1 -1</clus>
<clus scale="  165.137">  7 10 -1 -1</clus>
<clus scale="  409.307">  2  5  1 -1</clus>
<clus scale="   25.647">  1  5  2 -1</clus>
</clustering>
</event>
<event>
10    4  0.2866397E-005  0.4293738E+03  0.7546771E-02  0.1061384E+00
         21   -1    0    0  501  502  0.00000000000E+00  0.00000000000E+00  0.13951877575E+03  0.13951877575E+03  0.00000000000E+00 0.  1.
          2   -1    0    0  503    0 -0.00000000000E+00 -0.00000000000E+00 -0.11996627053E+04  0.11996627053E+04  0.00000000000E+00 0. -1.
         24    2    1    2    0    0 -0.11803906647E+03 -0.12105429131E+03 -0.41533968214E+03  0.45838982992E+03  0.95009588743E+02 0.  0.
         23    2    1    2    0    0 -0.27427758480E+02 -0.11068785156E+03 -0.31289236727E+03  0.34576357393E+03  0.92987811804E+02 0.  0.
        -13    1    3    3    0    0 -0.51612466856E+02 -0.31239231840E+02 -0.56840471358E+02  0.82888934878E+02  0.00000000000E+00 0.  1.
         14    1    3    3    0    0 -0.66426599615E+02 -0.89815059465E+02 -0.35849921078E+03  0.37550089504E+03  0.00000000000E+00 0. -1.
        -11    1    4    4    0    0 -0.12405847586E+02 -0.12537485651E+03 -0.26255074624E+03  0.29121410345E+03  0.00000000000E+00 0.  1.
         11    1    4    4    0    0 -0.15021910894E+02  0.14687004952E+02 -0.50341621031E+02  0.54549470478E+02  0.00000000000E+00 0. -1.
         21    1    1    2  503  502 -0.23689137346E+02  0.98500700780E+01  0.53434484135E+02  0.59274304749E+02  0.00000000000E+00 0.  1.
          1    1    1    2  501    0  0.16915596230E+03  0.22189207279E+03 -0.38534636427E+03  0.47575377246E+03  0.00000000000E+00 0. -1.
<scales pt_clust_5="13000.00000" pt_clust_6="13000.00000" pt_clust_7="13000.00000" pt_clust_8="13000.00000" pt_clust_9="25.65539" pt_clust_10="13000.00000"></scales>
<clustering>
<clus scale="   25.655">  1  9  2 -1</clus>
<clus scale="   92.988">  7  8 -1 -1</clus>
<clus scale="   95.010">  5  6 -1 -1</clus>
<clus scale="  196.185">  2  5  1 -1</clus>
<clus scale="  182.475">  7 10 -1 -1</clus>
<clus scale="   25.655">  1  5  2 -1</clus>
</clustering>
</event>
<event>
10    4  0.2866397E-005  0.3283721E+03  0.7546771E-02  0.1096232E+00
          2   -1    0    0  503    0 -0.00000000000E+00  0.00000000000E+00  0.17481561358E+04  0.17481561358E+04  0.00000000000E+00 0. -1.
         21   -1    0    0  501  502  0.00000000000E+00 -0.00000000000E+00 -0.48950196821E+02  0.48950196821E+02  0.00000000000E+00 0.  1.
         24    2    1    2    0    0  0.69635140896E+02 -0.13096179308E+03  0.29500341095E+03  0.33992549891E+03  0.80760685009E+02 0.  0.
         23    2    1    2    0    0 -0.13354857366E+03  0.19076946126E+02  0.49505843651E+03  0.52125553578E+03  0.91789577977E+02 0.  0.
        -11    1    3    3    0    0  0.49652837140E+02 -0.70874457667E+02  0.87864682674E+02  0.12332394515E+03  0.00000000000E+00 0.  1.
         12    1    3    3    0    0  0.19982303756E+02 -0.60087335414E+02  0.20713872827E+03  0.21660155376E+03  0.00000000000E+00 0. -1.
        -13    1    4    4    0    0 -0.11262699810E+03 -0.58438638542E+01  0.45914919012E+03  0.47279696512E+03  0.00000000000E+00 0.  1.
         13    1    4    4    0    0 -0.20921575551E+02  0.24920809981E+02  0.35909246394E+02  0.48458570658E+02  0.00000000000E+00 0. -1.
         21    1    1    2  503  502 -0.16510504463E+02 -0.13296213534E+02  0.81230483339E+01  0.22701761302E+02  0.00000000000E+00 0.  1.
          1    1    1    2  501    0  0.80423937223E+02  0.12518106049E+03  0.90102104319E+03  0.91322353663E+03  0.00000000000E+00 0. -1.
<scales pt_clust_5="13000.00000" pt_clust_6="13000.00000" pt_clust_7="13000.00000" pt_clust_8="13000.00000" pt_clust_9="21.19873" pt_clust_10="13000.00000"></scales>
<clustering>
<clus scale="   21.199">  2  9  1 -1</clus>
<clus scale="   80.761">  5  6 -1 -1</clus>
<clus scale="   91.790">  7  8 -1 -1</clus>
<clus scale="  145.848">  7 10 -1 -1</clus>
<clus scale="  171.146">  1  5  2 -1</clus>
<clus scale="   21.199">  2  5  1 -1</clus>
</clustering>
</event>
<event>
10    4  0.2866397E-005  0.1593610E+03  0.7546771E-02  0.1215511E+00
          2   -1    0    0  502    0 -0.00000000000E+00  0.00000000000E+00  0.10927992003E+04  0.10927992003E+04  0.00000000000E+00 0. -1.
         21   -1    0    0  503  502  0.00000000000E+00 -0.00000000000E+00 -0.16406376611E+03  0.16406376611E+03  0.00000000000E+00 0. -1.
         24    2    1    2    0    0  0.12657205751E+02 -0.24072782831E+02  0.31140100328E+03  0.32251934882E+03  0.79425699795E+02 0.  0.
         23    2    1    2    0    0 -0.10251429205E+02  0.10293458014E+03  0.55127571472E+03  0.56790132487E+03  0.88917836036E+02 0.  0.
        -13    1    3    3    0    0 -0.28866342696E+02 -0.18636510375E+02  0.75780215500E+02  0.83205927198E+02  0.00000000000E+00 0.  1.
         14    1    3    3    0    0  0.41523548447E+02 -0.54362724556E+01  0.23562078778E+03  0.23931342162E+03  0.00000000000E+00 0. -1.
        -11    1    4    4    0    0  0.37321406789E+02  0.33619852486E+02  0.16016089718E+03  0.16785319440E+03  0.00000000000E+00 0.  1.
         11    1    4    4    0    0 -0.47572835994E+02  0.69314727649E+02  0.39111481754E+03  0.40004813047E+03  0.00000000000E+00 0. -1.
         21    1    1    2  503  501 -0.20698498251E+02 -0.52393912255E+02 -0.14363883656E+03  0.15429084626E+03  0.00000000000E+00 0. -1.
          1    1    1    2  501    0  0.18292721705E+02 -0.26467885050E+02  0.20969755270E+03  0.21215144641E+03  0.00000000000E+00 0. -1.
<scales pt_clust_5="13000.00000" pt_clust_6="13000.00000" pt_clust_7="13000.00000" pt_clust_8="13000.00000" pt_clust_9="56.33427" pt_clust_10="13000.00000"></scales>
<clustering>
<clus scale="   56.334">  2  9  1 -1</clus>
<clus scale="   79.426">  5  6 -1 -1</clus>
<clus scale="   88.918">  7  8 -1 -1</clus>
<clus scale="   34.928">  7 10 -1 -1</clus>
<clus scale="   90.632">  1  5  2 -1</clus>
<clus scale="   56.334">  2  5  1 -1</clus>
</clustering>
</event>
<event>
10    4  0.3087339E-005  0.3172807E+03  0.7546771E-02  0.1113584E+00
         21   -1    0    0  503  502  0.00000000000E+00  0.00000000000E+00  0.38981041030E+03  0.38981041030E+03  0.00000000000E+00 0.  1.
          2   -1    0    0  502    0 -0.00000000000E+00 -0.00000000000E+00 -0.90745485319E+03  0.90745485319E+03  0.00000000000E+00 0. -1.
         24    2    1    2    0    0 -0.89243798109E+02  0.19754761301E+02 -0.19779739328E+03  0.23210166636E+03  0.79954165883E+02 0.  0.
         23    2    1    2    0    0  0.37777252837E+02  0.30823088568E+02 -0.18611464806E+03  0.21280654980E+03  0.90943838669E+02 0.  0.
        -11    1    3    3    0    0 -0.63575998786E+02  0.50318315367E+02 -0.14166622737E+03  0.16322732755E+03  0.00000000000E+00 0.  1.
         12    1    3    3    0    0 -0.25667799323E+02 -0.30563554065E+02 -0.56131165916E+02  0.68874338808E+02  0.00000000000E+00 0. -1.
        -11    1    4    4    0    0  0.16734864408E+02  0.62117778006E+02 -0.13207141661E+03  0.14690654552E+03  0.00000000000E+00 0. -1.
         11    1    4    4    0    0  0.21042388429E+02 -0.31294689438E+02 -0.54043231457E+02  0.65900004280E+02  0.00000000000E+00 0.  1.
         21    1    1    2  503  501  0.17763715203E+03  0.76959200918E+02  0.31463958942E+03  0.36942624110E+03  0.00000000000E+00 0.  1.
          1    1    1    2  501    0 -0.12617060676E+03 -0.12753705079E+03 -0.44837199096E+03  0.48293080623E+03  0.00000000000E+00 0. -1.
<scales pt_clust_5="13000.00000" pt_clust_6="13000.00000" pt_clust_7="13000.00000" pt_clust_8="13000.00000" pt_clust_9="190.67469" pt_clust_10="13000.00000"></scales>
<clustering>
<clus scale="   79.954">  5  6 -1 -1</clus>
<clus scale="   90.944">  7  8 -1 -1</clus>
<clus scale="  121.439">  2  5  1 -1</clus>
<clus scale="  190.675">  1  9  2 -1</clus>
<clus scale="  108.356">  7 10 -1 -1</clus>
<clus scale="  190.675">  1  5  2 -1</clus>
</clustering>
</event>
<event>
10    4  0.2866397E-005  0.2460232E+03  0.7546771E-02  0.1144614E+00
          4   -1    0    0  503    0 -0.00000000000E+00  0.00000000000E+00  0.27866635802E+03  0.27866635802E+03  0.00000000000E+00 0. -1.
         21   -1    0    0  501  502  0.00000000000E+00 -0.00000000000E+00 -0.39802538002E+03  0.39802538002E+03  0.00000000000E+00 0.  1.
         24    2    1    2    0    0 -0.67062034973E+02 -0.28144872266E+02 -0.21777996646E+03  0.24284336580E+03  0.79090683100E+02 0.  0.
         23    2    1    2    0    0  0.56322614493E+02 -0.77904622789E+02  0.20695568047E+03  0.23954167002E+03  0.72857332112E+02 0.  0.
        -13    1    3    3    0    0 -0.35509255012E+02  0.26247975397E+02 -0.10038624894E+03  0.10966887608E+03  0.00000000000E+00 0.  1.
         14    1    3    3    0    0 -0.31552779961E+02 -0.54392847663E+02 -0.11739371752E+03  0.13317448972E+03  0.00000000000E+00 0. -1.
        -11    1    4    4    0    0  0.18580013152E+02 -0.60424843279E+02  0.17791633662E+03  0.18881366849E+03  0.00000000000E+00 0. -1.
         11    1    4    4    0    0  0.37742601340E+02 -0.17479779510E+02  0.29039343850E+02  0.50728001526E+02  0.00000000000E+00 0.  1.
         21    1    1    2  503  502 -0.31454878424E+02  0.37926987703E+02 -0.10276589338E+03  0.11396795433E+03  0.00000000000E+00 0. -1.
          3    1    1    2  501    0  0.42194298904E+02  0.68122507352E+02 -0.57688426278E+01  0.80338747894E+02  0.00000000000E+00 0. -1.
<scales pt_clust_5="13000.00000" pt_clust_6="13000.00000" pt_clust_7="13000.00000" pt_clust_8="13000.00000" pt_clust_9="49.27338" pt_clust_10="13000.00000"></scales>
<clustering>
<clus scale="   49.273">  2  9  1 -1</clus>
<clus scale="   72.857">  7  8 -1 -1</clus>
<clus scale="   79.091">  5  6 -1 -1</clus>
<clus scale="   82.754">  7 10 -1 -1</clus>
<clus scale="  121.395">  1  5  2 -1</clus>
<clus scale="   49.273">  2  5  1 -1</clus>
</clustering>
</event>
<event>
10    4  0.2866397E-005  0.1557919E+03  0.7546771E-02  0.1219526E+00
         -3   -1    0    0    0  501 -0.00000000000E+00  0.00000000000E+00  0.64637188931E+02  0.64637188931E+02  0.00000000000E+00 0.  1.
         21   -1    0    0  501  502  0.00000000000E+00 -0.00000000000E+00 -0.38206455281E+03  0.38206455281E+03  0.00000000000E+00 0.  1.
         24    2    1    2    0    0 -0.21890462278E+02  0.41820256352E+02 -0.98853495757E+02  0.13647243397E+03  0.81391556251E+02 0.  0.
         23    2    1    2    0    0  0.14268805758E+02 -0.55580476285E+02 -0.83186662896E+02  0.14030678397E+03  0.97330286045E+02 0.  0.
        -11    1    3    3    0    0 -0.12808885206E+02 -0.16068597057E+02 -0.66360993717E+02  0.69469769243E+02  0.00000000000E+00 0.  1.
         12    1    3    3    0    0 -0.90815770720E+01  0.57888853409E+02 -0.32492502040E+02  0.67002664722E+02  0.00000000000E+00 0. -1.
        -13    1    4    4    0    0  0.97928084755E+01 -0.81741560196E+02 -0.45057697303E+02  0.93849762106E+02  0.00000000000E+00 0.  1.
         13    1    4    4    0    0  0.44759972823E+01  0.26161083910E+02 -0.38128965593E+02  0.46457021861E+02  0.00000000000E+00 0. -1.
         21    1    1    2  503  502  0.38881325996E+02 -0.12676795090E+02 -0.11898879765E+03  0.12582047771E+03  0.00000000000E+00 0.  1.
         -4    1    1    2    0  503 -0.31259669476E+02  0.26437015023E+02 -0.16398407576E+02  0.44102046098E+02  0.00000000000E+00 0.  1.
<scales pt_clust_5="13000.00000" pt_clust_6="13000.00000" pt_clust_7="13000.00000" pt_clust_8="13000.00000" pt_clust_9="40.89570" pt_clust_10="13000.00000"></scales>
<clustering>
<clus scale="   40.896">  2  9  1 -1</clus>
<clus scale="   81.392">  5  6 -1 -1</clus>
<clus scale="   89.131">  1  5  2 -1</clus>
<clus scale="   97.330">  7  8 -1 -1</clus>
<clus scale="   44.279">  7 10 -1 -1</clus>
<clus scale="   40.896">  2  5  1 -1</clus>
</clustering>
</event>
<event>
10    4  0.2866397E-005  0.2125072E+03  0.7546771E-02  0.1149536E+00
          2   -1    0    0  502    0 -0.00000000000E+00  0.00000000000E+00  0.15037267396E+03  0.15037267396E+03  0.00000000000E+00 0. -1.
         21   -1    0    0  503  502  0.00000000000E+00 -0.00000000000E+00 -0.43947915930E+03  0.43947915930E+03  0.00000000000E+00 0. -1.
         24    2    1    2    0    0 -0.68201391676E+02  0.15198341897E+03  0.14341316001E+02  0.18492233663E+03  0.78994985745E+02 0.  0.
         23    2    1    2    0    0  0.24710906414E+02 -0.50939812368E+01 -0.79300425889E+02  0.12244284793E+03  0.89817124885E+02 0.  0.
        -13    1    3    3    0    0 -0.28343134274E+02  0.57889254513E+01 -0.11636796810E+02  0.31181083342E+02  0.00000000000E+00 0.  1.
         14    1    3    3    0    0 -0.39858257402E+02  0.14619449352E+03  0.25978112812E+02  0.15374125329E+03  0.00000000000E+00 0. -1.
        -11    1    4    4    0    0  0.10289291061E+02 -0.36664236261E+02 -0.79038261240E+02  0.87733588043E+02  0.00000000000E+00 0. -1.
         11    1    4    4    0    0  0.14421615353E+02  0.31570255024E+02 -0.26216464890E+00  0.34709259888E+02  0.00000000000E+00 0.  1.
         21    1    1    2  503  501  0.21508398030E+02 -0.57428907924E+02 -0.15682024385E+03  0.16838432092E+03  0.00000000000E+00 0. -1.
          1    1    1    2  501    0  0.21982087232E+02 -0.89460529809E+02 -0.67327131608E+02  0.11410232777E+03  0.00000000000E+00 0. -1.
<scales pt_clust_5="13000.00000" pt_clust_6="13000.00000" pt_clust_7="13000.00000" pt_clust_8="13000.00000" pt_clust_9="61.32447" pt_clust_10="13000.00000"></scales>
<clustering>
<clus scale="   61.324">  2  9  1 -1</clus>
<clus scale="   78.995">  5  6 -1 -1</clus>
<clus scale="   89.817">  7  8 -1 -1</clus>
<clus scale="  112.100">  7 10 -1 -1</clus>
<clus scale="  167.530">  1  5  2 -1</clus>
<clus scale="   61.324">  2  5  1 -1</clus>
</clustering>
</event>
<event>
10    4  0.2866397E-005  0.3285759E+03  0.7546771E-02  0.1117558E+00
         21   -1    0    0  501  502  0.00000000000E+00  0.00000000000E+00  0.86173211072E+02  0.86173211072E+02  0.00000000000E+00 0. -1.
          2   -1    0    0  503    0 -0.00000000000E+00 -0.00000000000E+00 -0.16502758023E+04  0.16502758023E+04  0.00000000000E+00 0. -1.
         24    2    1    2    0    0 -0.56211804603E+02  0.75567449170E+01 -0.23407949872E+03  0.25412150713E+03  0.81041083988E+02 0.  0.
         23    2    1    2    0    0  0.13870612889E+03  0.42149205033E+02 -0.47504609904E+03  0.50493730149E+03  0.90977670575E+02 0.  0.
        -13    1    3    3    0    0 -0.70446137297E+02  0.26451112103E+02 -0.17637131006E+03  0.19175285814E+03  0.00000000000E+00 0.  1.
         14    1    3    3    0    0  0.14234332694E+02 -0.18894367186E+02 -0.57708188664E+02  0.62368648995E+02  0.00000000000E+00 0. -1.
        -11    1    4    4    0    0  0.70872145059E+02  0.19995994049E+02 -0.37432315346E+03  0.38149773779E+03  0.00000000000E+00 0.  1.
         11    1    4    4    0    0  0.67833983828E+02  0.22153210984E+02 -0.10072294558E+03  0.12343956369E+03  0.00000000000E+00 0. -1.
         21    1    1    2  503  502 -0.12666481705E+03 -0.21708166763E+03 -0.27691574913E+03  0.37396625304E+03  0.00000000000E+00 0. -1.
          1    1    1    2  501    0  0.44170492765E+02  0.16737571768E+03 -0.57806124438E+03  0.60342395176E+03  0.00000000000E+00 0. -1.
<scales pt_clust_5="13000.00000" pt_clust_6="13000.00000" pt_clust_7="13000.00000" pt_clust_8="13000.00000" pt_clust_9="256.66536" pt_clust_10="13000.00000"></scales>
<clustering>
<clus scale="   81.041">  5  6 -1 -1</clus>
<clus scale="   90.978">  7  8 -1 -1</clus>
<clus scale="   98.917">  2  5  1 -1</clus>
<clus scale="  171.785">  7 10 -1 -1</clus>
<clus scale="  256.665">  1  9  2 -1</clus>
<clus scale="  256.665">  1  5  2 -1</clus>
</clustering>
</event>
<event>
10    4  0.2866397E-005  0.2864585E+03  0.7546771E-02  0.1098131E+00
          2   -1    0    0  502    0 -0.00000000000E+00  0.00000000000E+00  0.10025281241E+04  0.10025281241E+04  0.00000000000E+00 0. -1.
         21   -1    0    0  503  502  0.00000000000E+00 -0.00000000000E+00 -0.16448450171E+03  0.16448450171E+03  0.00000000000E+00 0. -1.
         24    2    1    2    0    0  0.93530775498E+02 -0.18497881258E+03 -0.36021512304E+02  0.22605066266E+03  0.82681229264E+02 0.  0.
         23    2    1    2    0    0 -0.15181026216E+02  0.70210339863E+02  0.37905261145E+03  0.39663030405E+03  0.92058462191E+02 0.  0.
        -13    1    3    3    0    0  0.73676210675E+02 -0.76287619961E+02 -0.44975174998E+02  0.11519874715E+03  0.00000000000E+00 0.  1.
         14    1    3    3    0    0  0.19854564823E+02 -0.10869119262E+03  0.89536626931E+01  0.11085191551E+03  0.00000000000E+00 0. -1.
        -11    1    4    4    0    0 -0.49276030689E+01 -0.22499112642E+02  0.90023491608E+02  0.92923196151E+02  0.00000000000E+00 0. -1.
         11    1    4    4    0    0 -0.10253423147E+02  0.92709452505E+02  0.28902911984E+03  0.30370710790E+03  0.00000000000E+00 0.  1.
         21    1    1    2  503  501  0.43003416009E+02 -0.73073893610E+01  0.45699455799E+02  0.63175406512E+02  0.00000000000E+00 0.  1.
          1    1    1    2  501    0 -0.12135316529E+03  0.12207586208E+03  0.44931306747E+03  0.48115625261E+03  0.00000000000E+00 0. -1.
<scales pt_clust_5="13000.00000" pt_clust_6="13000.00000" pt_clust_7="13000.00000" pt_clust_8="13000.00000" pt_clust_9="43.61988" pt_clust_10="13000.00000"></scales>
<clustering>
<clus scale="   43.620">  2  9  1 -1</clus>
<clus scale="   82.681">  5  6 -1 -1</clus>
<clus scale="   92.058">  7  8 -1 -1</clus>
<clus scale="  168.522">  7 10 -1 -1</clus>
<clus scale="  245.338">  1  5  2 -1</clus>
<clus scale="   43.620">  2  5  1 -1</clus>
</clustering>
</event>
<event>
10    4  0.2866397E-005  0.1745732E+03  0.7546771E-02  0.1196075E+00
          2   -1    0    0  503    0 -0.00000000000E+00  0.00000000000E+00  0.95600306163E+03  0.95600306163E+03  0.00000000000E+00 0. -1.
         21   -1    0    0  501  502  0.00000000000E+00 -0.00000000000E+00 -0.56140024714E+02  0.56140024714E+02  0.00000000000E+00 0.  1.
         24    2    1    2    0    0  0.36709366830E+02  0.45356201622E+02  0.74656236857E+03  0.75373963567E+03  0.85809705655E+02 0.  0.
         23    2    1    2    0    0 -0.44500977862E+02 -0.39041930333E+02  0.23568682830E+02  0.11028636428E+03  0.90016609469E+02 0.  0.
        -11    1    3    3    0    0 -0.24316628162E+02  0.86966270813E+01  0.10042998430E+03  0.10369721054E+03  0.00000000000E+00 0.  1.
         12    1    3    3    0    0  0.61025994992E+02  0.36659574541E+02  0.64613238427E+03  0.65004242514E+03  0.00000000000E+00 0. -1.
        -11    1    4    4    0    0  0.19842589650E+02 -0.74784620468E+01 -0.17668328646E+02  0.27601188303E+02  0.00000000000E+00 0. -1.
         11    1    4    4    0    0 -0.64343567512E+02 -0.31563468286E+02  0.41237011476E+02  0.82685175974E+02  0.00000000000E+00 0.  1.
         21    1    1    2  503  502  0.73834940835E+01  0.23343286078E+02  0.13089465024E+02  0.27762548234E+02  0.00000000000E+00 0.  1.
          1    1    1    2  501    0  0.40811694851E+00 -0.29657557368E+02  0.11664252049E+03  0.12035453816E+03  0.00000000000E+00 0. -1.
<scales pt_clust_5="13000.00000" pt_clust_6="13000.00000" pt_clust_7="13000.00000" pt_clust_8="13000.00000" pt_clust_9="24.48316" pt_clust_10="13000.00000"></scales>
<clustering>
<clus scale="   24.483">  2  9  1 -1</clus>
<clus scale="   85.810">  5  6 -1 -1</clus>
<clus scale="   90.017">  7  8 -1 -1</clus>
<clus scale="   28.778">  7 10 -1 -1</clus>
<clus scale="  104.723">  1  5  2 -1</clus>
<clus scale="   24.483">  2  5  1 -1</clus>
</clustering>
</event>
<event>
10    4  0.2866397E-005  0.2369865E+03  0.7546771E-02  0.1157468E+00
         21   -1    0    0  503  502  0.00000000000E+00  0.00000000000E+00  0.11826500320E+03  0.11826500320E+03  0.00000000000E+00 0. -1.
          2   -1    0    0  502    0 -0.00000000000E+00 -0.00000000000E+00 -0.42960816664E+03  0.42960816664E+03  0.00000000000E+00 0. -1.
         24    2    1    2    0    0 -0.37525206422E+02  0.37098259718E+02 -0.87050653125E+02  0.12923696440E+03  0.79623832908E+02 0.  0.
         23    2    1    2    0    0  0.89621333875E+01  0.10294493308E+02 -0.26953530876E+03  0.28471994609E+03  0.90718623241E+02 0.  0.
        -13    1    3    3    0    0 -0.23465477322E+02 -0.19107353318E+02 -0.81320214057E+01  0.31334475405E+02  0.00000000000E+00 0.  1.
         14    1    3    3    0    0 -0.14059729099E+02  0.56205613036E+02 -0.78918631719E+02  0.97902488995E+02  0.00000000000E+00 0. -1.
        -13    1    4    4    0    0  0.46781312041E+02  0.22585065019E+02 -0.15599506028E+03  0.16441725928E+03  0.00000000000E+00 0.  1.
         13    1    4    4    0    0 -0.37819178653E+02 -0.12290571711E+02 -0.11354024848E+03  0.12030268680E+03  0.00000000000E+00 0. -1.
         21    1    1    2  503  501 -0.26323912702E+02  0.95497601019E+01  0.47111454704E+02  0.54805432780E+02  0.00000000000E+00 0. -1.
          1    1    1    2  501    0  0.54886985736E+02 -0.56942513128E+02 -0.18686562552E+01  0.79110826570E+02  0.00000000000E+00 0. -1.
<scales pt_clust_5="13000.00000" pt_clust_6="13000.00000" pt_clust_7="13000.00000" pt_clust_8="13000.00000" pt_clust_9="28.00261" pt_clust_10="13000.00000"></scales>
<clustering>
<clus scale="   28.003">  1  9  2 -1</clus>
<clus scale="   79.624">  5  6 -1 -1</clus>
<clus scale="   90.719">  7  8 -1 -1</clus>
<clus scale="   65.046">  7 10 -1 -1</clus>
<clus scale="  100.213">  2  5  1 -1</clus>
<clus scale="   28.003">  1  5  2 -1</clus>
</clustering>
</event>
<event>
10    4  0.2866397E-005  0.2409343E+03  0.7546771E-02  0.1138604E+00
         21   -1    0    0  503  502  0.00000000000E+00  0.00000000000E+00  0.16286072952E+03  0.16286072952E+03  0.00000000000E+00 0.  1.
          2   -1    0    0  502    0 -0.00000000000E+00 -0.00000000000E+00 -0.76172011612E+03  0.76172011612E+03  0.00000000000E+00 0. -1.
         24    2    1    2    0    0 -0.53521669484E+02 -0.95822908880E+02  0.34444785569E+02  0.14000801399E+03  0.79807278858E+02 0.  0.
         23    2    1    2    0    0 -0.16195265397E+02 -0.12703462003E+02 -0.25855280715E+03  0.27517596089E+03  0.91916216199E+02 0.  0.
        -13    1    3    3    0    0 -0.65583566615E+02 -0.51365216442E+02  0.13991426889E+01  0.83315948475E+02  0.00000000000E+00 0.  1.
         14    1    3    3    0    0  0.12061897131E+02 -0.44457692438E+02  0.33045642880E+02  0.56692065518E+02  0.00000000000E+00 0. -1.
        -13    1    4    4    0    0 -0.37610720213E+02  0.27251977339E+02 -0.99818837219E+02  0.11009558033E+03  0.00000000000E+00 0. -1.
         13    1    4    4    0    0  0.21415454816E+02 -0.39955439342E+02 -0.15873396993E+03  0.16508038057E+03  0.00000000000E+00 0.  1.
         21    1    1    2  503  501 -0.23366311179E+00 -0.22835426326E+02  0.52347038501E+02  0.57111502639E+02  0.00000000000E+00 0. -1.
          1    1    1    2  501    0  0.69950597993E+02  0.13136179721E+03 -0.42709840351E+03  0.45228536811E+03  0.00000000000E+00 0. -1.
<scales pt_clust_5="13000.00000" pt_clust_6="13000.00000" pt_clust_7="13000.00000" pt_clust_8="13000.00000" pt_clust_9="22.83662" pt_clust_10="13000.00000"></scales>
<clustering>
<clus scale="   22.837">  1  9  2 -1</clus>
<clus scale="   79.807">  5  6 -1 -1</clus>
<clus scale="   91.916">  7  8 -1 -1</clus>
<clus scale="  146.470">  7 10 -1 -1</clus>
<clus scale="  149.351">  2  5  1 -1</clus>
<clus scale="   22.837">  1  5  2 -1</clus>
</clustering>
</event>
<event>
10    4  0.2866397E-005  0.2326882E+03  0.7546771E-02  0.1148753E+00
         21   -1    0    0  503  502  0.00000000000E+00  0.00000000000E+00  0.22841792971E+03  0.22841792971E+03  0.00000000000E+00 0. -1.
          2   -1    0    0  502    0 -0.00000000000E+00 -0.00000000000E+00 -0.85745072367E+03  0.85745072367E+03  0.00000000000E+00 0. -1.
         24    2    1    2    0    0  0.13765598552E+03  0.29449600744E+02 -0.52413831689E+03  0.54805148164E+03  0.76308596895E+02 0.  0.
         23    2    1    2    0    0  0.29916269467E+02  0.40308091421E+02 -0.27043336281E+03  0.28918025616E+03  0.89282089027E+02 0.  0.
        -11    1    3    3    0    0  0.59228619883E+02  0.44557366337E+02 -0.32810244263E+03  0.33636973879E+03  0.00000000000E+00 0.  1.
         12    1    3    3    0    0  0.78427365635E+02 -0.15107765593E+02 -0.19603587425E+03  0.21168174285E+03  0.00000000000E+00 0. -1.
        -11    1    4    4    0    0 -0.44451019552E+01  0.60340489634E+02 -0.19085104545E+03  0.20021202554E+03  0.00000000000E+00 0. -1.
         11    1    4    4    0    0  0.34361371422E+02 -0.20032398213E+02 -0.79582317362E+02  0.88968230627E+02  0.00000000000E+00 0.  1.
         21    1    1    2  503  501 -0.13977831645E+03 -0.48300669229E+02  0.14860886485E+03  0.20965573474E+03  0.00000000000E+00 0. -1.
          1    1    1    2  501    0 -0.27793938536E+02 -0.21457022936E+02  0.16930020887E+02  0.38981180842E+02  0.00000000000E+00 0. -1.
<scales pt_clust_5="13000.00000" pt_clust_6="13000.00000" pt_clust_7="13000.00000" pt_clust_8="13000.00000" pt_clust_9="147.88824" pt_clust_10="13000.00000"></scales>
<clustering>
<clus scale="   76.309">  5  6 -1 -1</clus>
<clus scale="   89.282">  7  8 -1 -1</clus>
<clus scale="   35.113">  7 10 -1 -1</clus>
<clus scale="  147.888">  1  9  2 -1</clus>
<clus scale="  130.003">  2  5  1 -1</clus>
<clus scale="  147.888">  1  5  2 -1</clus>
</clustering>
</event>
<event>
10    4  0.2866397E-005  0.2116096E+03  0.7546771E-02  0.1167506E+00
          2   -1    0    0  503    0 -0.00000000000E+00  0.00000000000E+00  0.16069803264E+03  0.16069803264E+03  0.00000000000E+00 0. -1.
         21   -1    0    0  501  502  0.00000000000E+00 -0.00000000000E+00 -0.56644142265E+03  0.56644142265E+03  0.00000000000E+00 0. -1.
         24    2    1    2    0    0  0.57594474278E+02 -0.47794004157E+02  0.10035206369E+03  0.14919120095E+03  0.81154713059E+02 0.  0.
         23    2    1    2    0    0 -0.42381011530E+01  0.57541629441E+01 -0.87131065406E+02  0.12453011762E+03  0.88684021915E+02 0.  0.
        -11    1    3    3    0    0  0.17354431864E+01 -0.41197165188E+02  0.94633495210E+01  0.42305710805E+02  0.00000000000E+00 0.  1.
         12    1    3    3    0    0  0.55859031092E+02 -0.65968389694E+01  0.90888714171E+02  0.10688549014E+03  0.00000000000E+00 0. -1.
        -11    1    4    4    0    0 -0.21543502849E+02 -0.60799349646E+01  0.10463067077E+02  0.24709591192E+02  0.00000000000E+00 0.  1.
         11    1    4    4    0    0  0.17305401696E+02  0.11834097909E+02 -0.97594132483E+02  0.99820526428E+02  0.00000000000E+00 0. -1.
         21    1    1    2  503  502  0.15747617408E+02 -0.37558672877E+02 -0.30431597349E+02  0.50840175841E+02  0.00000000000E+00 0.  1.
          1    1    1    2  501    0 -0.69103990534E+02  0.79598514091E+02 -0.38853279094E+03  0.40257796088E+03  0.00000000000E+00 0. -1.
<scales pt_clust_5="13000.00000" pt_clust_6="13000.00000" pt_clust_7="13000.00000" pt_clust_8="13000.00000" pt_clust_9="40.72642" pt_clust_10="13000.00000"></scales>
<clustering>
<clus scale="   40.726">  2  9  1 -1</clus>
<clus scale="   81.155">  5  6 -1 -1</clus>
<clus scale="   88.684">  7  8 -1 -1</clus>
<clus scale="   76.906">  7 10 -1 -1</clus>
<clus scale="  111.544">  1  5  2 -1</clus>
<clus scale="   40.726">  2  5  1 -1</clus>
</clustering>
</event>
<event>
10    4  0.2866397E-005  0.8819677E+03  0.7546771E-02  0.1013985E+00
          2   -1    0    0  502    0 -0.00000000000E+00  0.00000000000E+00  0.10204965372E+04  0.10204965372E+04  0.00000000000E+00 0. -1.
         21   -1    0    0  503  502  0.00000000000E+00 -0.00000000000E+00 -0.25675494959E+03  0.25675494959E+03  0.00000000000E+00 0.  1.
         24    2    1    2    0    0  0.45567939824E+02  0.52974587427E+00  0.16024890617E+02  0.93209739890E+02  0.79715373176E+02 0.  0.
         23    2    1    2    0    0  0.11309195032E+03  0.57266359145E+02 -0.16244683942E+03  0.23474446176E+03  0.11245782131E+03 0.  0.
        -13    1    3    3    0    0  0.27550101853E+02 -0.39298811075E+02  0.10700412005E+02  0.49172181984E+02  0.00000000000E+00 0.  1.
         14    1    3    3    0    0  0.18017837971E+02  0.39828556949E+02  0.53244786119E+01  0.44037557906E+02  0.00000000000E+00 0. -1.
        -11    1    4    4    0    0  0.12592479739E+02 -0.28969283737E+02 -0.10725562867E+02  0.33359071405E+02  0.00000000000E+00 0. -1.
         11    1    4    4    0    0  0.10049947058E+03  0.86235642882E+02 -0.15172127655E+03  0.20138539035E+03  0.00000000000E+00 0.  1.
         21    1    1    2  503  501 -0.17483127777E+02 -0.22886204426E+02  0.12546032103E+01  0.28827281161E+02  0.00000000000E+00 0.  1.
          1    1    1    2  501    0 -0.14117676237E+03 -0.34909900593E+02  0.90890893324E+03  0.92047000403E+03  0.00000000000E+00 0. -1.
<scales pt_clust_5="13000.00000" pt_clust_6="13000.00000" pt_clust_7="13000.00000" pt_clust_8="13000.00000" pt_clust_9="28.79997" pt_clust_10="13000.00000"></scales>
<clustering>
<clus scale="   28.800">  2  9  1 -1</clus>
<clus scale="   79.715">  5  6 -1 -1</clus>
<clus scale="   90.528">  1  5  2 -1</clus>
<clus scale="  112.458">  7  8 -1 -1</clus>
<clus scale="  107.798">  7 10 -1 -1</clus>
<clus scale="   28.800">  2  5  1 -1</clus>
</clustering>
</event>
<event>
10    4  0.2866397E-005  0.4114215E+03  0.7546771E-02  0.1089669E+00
         -3   -1    0    0    0  501 -0.00000000000E+00  0.00000000000E+00  0.66190758043E+03  0.66190758043E+03  0.00000000000E+00 0.  1.
         21   -1    0    0  503  502  0.00000000000E+00 -0.00000000000E+00 -0.27112892044E+03  0.27112892044E+03  0.00000000000E+00 0.  1.
         24    2    1    2    0    0  0.42533880605E+02  0.21655323658E+00  0.45817737168E+02  0.11158199781E+03  0.92423478084E+02 0.  0.
         23    2    1    2    0    0 -0.66803289102E+02 -0.91618931359E+02  0.51483242222E+03  0.53341739530E+03  0.81394020764E+02 0.  0.
        -11    1    3    3    0    0  0.59776825668E+02 -0.29974183868E+02  0.32506028578E+02  0.74352958781E+02  0.00000000000E+00 0.  1.
         12    1    3    3    0    0 -0.17242945063E+02  0.30190737105E+02  0.13311708590E+02  0.37229039028E+02  0.00000000000E+00 0. -1.
        -11    1    4    4    0    0 -0.73788413145E+02 -0.35186448272E+02  0.33380369869E+03  0.34366804524E+03  0.00000000000E+00 0.  1.
         11    1    4    4    0    0  0.69851240432E+01 -0.56432483088E+02  0.18102872353E+03  0.18974935006E+03  0.00000000000E+00 0. -1.
         21    1    1    2  503  501  0.96640209676E+01 -0.29246865361E+02 -0.16346128453E+03  0.16633810139E+03  0.00000000000E+00 0.  1.
         -4    1    1    2    0  502  0.14605387529E+02  0.12064924348E+03 -0.64102148661E+01  0.12169900638E+03  0.00000000000E+00 0.  1.
<scales pt_clust_5="13000.00000" pt_clust_6="13000.00000" pt_clust_7="13000.00000" pt_clust_8="13000.00000" pt_clust_9="30.80215" pt_clust_10="13000.00000"></scales>
<clustering>
<clus scale="   30.802">  2  9  1 -1</clus>
<clus scale="   81.394">  7  8 -1 -1</clus>
<clus scale="   92.423">  5  6 -1 -1</clus>
<clus scale="  103.406">  1  5  2 -1</clus>
<clus scale="  105.098">  7 10 -1 -1</clus>
<clus scale="   30.802">  2  5  1 -1</clus>
</clustering>
</event>
<event>
10    4  0.2866397E-005  0.7787492E+03  0.7546771E-02  0.1018831E+00
         21   -1    0    0  501  502  0.00000000000E+00  0.00000000000E+00  0.49439727079E+03  0.49439727079E+03  0.00000000000E+00 0. -1.
          2   -1    0    0  503    0 -0.00000000000E+00 -0.00000000000E+00 -0.11268691729E+04  0.11268691729E+04  0.00000000000E+00 0. -1.
         24    2    1    2    0    0 -0.15744176408E+02 -0.81883734918E+02 -0.25483270471E+02  0.11854317000E+03  0.80313516574E+02 0.  0.
         23    2    1    2    0    0 -0.16206225860E+03  0.15312233470E+03 -0.92462575268E+03  0.95602687624E+03  0.96664267033E+02 0.  0.
        -11    1    3    3    0    0 -0.24651342097E+01 -0.33104116464E+02 -0.51819065749E+02  0.61540027532E+02  0.00000000000E+00 0.  1.
         12    1    3    3    0    0 -0.13279042198E+02 -0.48779618453E+02  0.26335795277E+02  0.57003142466E+02  0.00000000000E+00 0. -1.
        -11    1    4    4    0    0 -0.10594716834E+03  0.15215841260E+03 -0.66220681869E+03  0.68767350954E+03  0.00000000000E+00 0.  1.
         11    1    4    4    0    0 -0.56115090261E+02  0.96392210076E+00 -0.26241893399E+03  0.26835336669E+03  0.00000000000E+00 0. -1.
         21    1    1    2  503  502 -0.42389194264E+02  0.25119792191E+02  0.30182527003E+03  0.30582076675E+03  0.00000000000E+00 0. -1.
          1    1    1    2  501    0  0.22019562928E+03 -0.96358391975E+02  0.15811850966E+02  0.24087563075E+03  0.00000000000E+00 0. -1.
<scales pt_clust_5="13000.00000" pt_clust_6="13000.00000" pt_clust_7="13000.00000" pt_clust_8="13000.00000" pt_clust_9="49.27320" pt_clust_10="13000.00000"></scales>
<clustering>
<clus scale="   49.273">  1  9  2 -1</clus>
<clus scale="   80.314">  5  6 -1 -1</clus>
<clus scale="   96.664">  7  8 -1 -1</clus>
<clus scale="  113.443">  2  5  1 -1</clus>
<clus scale="  207.971">  7 10 -1 -1</clus>
<clus scale="   49.273">  1  5  2 -1</clus>
</clustering>
</event>
<event>
10    4  0.2866397E-005  0.3978726E+03  0.7546771E-02  0.1100394E+00
         21   -1    0    0  503  502  0.00000000000E+00  0.00000000000E+00  0.32481732681E+03  0.32481732681E+03  0.00000000000E+00 0. -1.
          2   -1    0    0  502    0 -0.00000000000E+00 -0.00000000000E+00 -0.72912811531E+03  0.72912811531E+03  0.00000000000E+00 0. -1.
         24    2    1    2    0    0  0.19979489622E+02  0.37617634898E+02 -0.12523805209E+03  0.15314416451E+03  0.77164104159E+02 0.  0.
         23    2    1    2    0    0  0.17394301946E+03 -0.94271769427E+02 -0.15278300986E+03  0.26543359018E+03  0.89269267733E+02 0.  0.
        -11    1    3    3    0    0  0.84184901458E+01 -0.21166898014E+02 -0.61909739938E+02  0.65967601495E+02  0.00000000000E+00 0.  1.
         12    1    3    3    0    0  0.11560999476E+02  0.58784532912E+02 -0.63328312150E+02  0.87176563011E+02  0.00000000000E+00 0. -1.
        -13    1    4    4    0    0  0.35521752913E+02 -0.11929899184E+01 -0.71567843587E+02  0.79907286217E+02  0.00000000000E+00 0.  1.
         13    1    4    4    0    0  0.13842126655E+03 -0.93078779509E+02 -0.81215166272E+02  0.18552630396E+03  0.00000000000E+00 0. -1.
         21    1    1    2  503  501 -0.69299811036E+02  0.12431361348E+01  0.23720746401E+03  0.24712626364E+03  0.00000000000E+00 0. -1.
          1    1    1    2  501    0 -0.12462269805E+03  0.55410998394E+02 -0.36349719056E+03  0.38824142381E+03  0.00000000000E+00 0. -1.
<scales pt_clust_5="13000.00000" pt_clust_6="13000.00000" pt_clust_7="13000.00000" pt_clust_8="13000.00000" pt_clust_9="69.31096" pt_clust_10="13000.00000"></scales>
<clustering>
<clus scale="   69.311">  1  9  2 -1</clus>
<clus scale="   77.164">  5  6 -1 -1</clus>
<clus scale="   86.335">  2  5  1 -1</clus>
<clus scale="   89.269">  7  8 -1 -1</clus>
<clus scale="  153.507">  7 10 -1 -1</clus>
<clus scale="   69.311">  1  5  2 -1</clus>
</clustering>
</event>
<event>
10    4  0.2866397E-005  0.2203516E+03  0.7546771E-02  0.1152851E+00
          2   -1    0    0  503    0 -0.00000000000E+00  0.00000000000E+00  0.19681607089E+03  0.19681607089E+03  0.00000000000E+00 0. -1.
         21   -1    0    0  501  502  0.00000000000E+00 -0.00000000000E+00 -0.27492607556E+03  0.27492607556E+03  0.00000000000E+00 0. -1.
         24    2    1    2    0    0 -0.85188489348E+01 -0.10021871650E+03 -0.10814718325E+03  0.16821042125E+03  0.80514412675E+02 0.  0.
         23    2    1    2    0    0 -0.22843059606E+02  0.11248402049E+03  0.58989368652E+00  0.14839738364E+03  0.94058360913E+02 0.  0.
        -11    1    3    3    0    0  0.20916892570E+02 -0.95857776832E+02 -0.91263764143E+02  0.13399740453E+03  0.00000000000E+00 0.  1.
         12    1    3    3    0    0 -0.29435741504E+02 -0.43609396682E+01 -0.16883419103E+02  0.34213016723E+02  0.00000000000E+00 0. -1.
        -13    1    4    4    0    0 -0.40010024431E+02  0.94293256299E+02 -0.32002672592E+02  0.10731351868E+03  0.00000000000E+00 0.  1.
         13    1    4    4    0    0  0.17166964825E+02  0.18190764192E+02  0.32592566278E+02  0.41083864957E+02  0.00000000000E+00 0. -1.
         21    1    1    2  503  502  0.47256908075E+01 -0.19969344566E+02 -0.58987219854E+02  0.62454775495E+02  0.00000000000E+00 0. -1.
          1    1    1    2  501    0  0.26636217733E+02  0.77040405754E+01  0.88434504749E+02  0.92679566067E+02  0.00000000000E+00 0. -1.
<scales pt_clust_5="13000.00000" pt_clust_6="13000.00000" pt_clust_7="13000.00000" pt_clust_8="13000.00000" pt_clust_9="20.52089" pt_clust_10="13000.00000"></scales>
<clustering>
<clus scale="   20.521">  2  9  1 -1</clus>
<clus scale="   80.514">  5  6 -1 -1</clus>
<clus scale="   94.058">  7  8 -1 -1</clus>
<clus scale="   27.719">  7 10 -1 -1</clus>
<clus scale="  138.940">  1  5  2 -1</clus>
<clus scale="   20.521">  2  5  1 -1</clus>
</clustering>
</event>
<event>
10    4  0.2866397E-005  0.6300318E+03  0.7546771E-02  0.1019476E+00
         21   -1    0    0  503  502  0.00000000000E+00  0.00000000000E+00  0.25650427640E+03  0.25650427640E+03  0.00000000000E+00 0. -1.
          2   -1    0    0  502    0 -0.00000000000E+00 -0.00000000000E+00 -0.23883644465E+04  0.23883644465E+04  0.00000000000E+00 0. -1.
         24    2    1    2    0    0 -0.18786819433E+03  0.19777849128E+03 -0.29724633936E+03  0.41115660690E+03  0.79269029775E+02 0.  0.
         23    2    1    2    0    0  0.21311504227E+03  0.13469199236E+03 -0.10429516135E+04  0.10769265904E+04  0.91993798749E+02 0.  0.
        -11    1    3    3    0    0 -0.60734153314E+02  0.88145917311E+02 -0.16837097869E+03  0.19951723380E+03  0.00000000000E+00 0.  1.
         12    1    3    3    0    0 -0.12713404101E+03  0.10963257397E+03 -0.12887536068E+03  0.21163937310E+03  0.00000000000E+00 0. -1.
        -11    1    4    4    0    0  0.40458044440E+02  0.75843219642E+02 -0.33306838291E+03  0.34398196903E+03  0.00000000000E+00 0.  1.
         11    1    4    4    0    0  0.17265699783E+03  0.58848772714E+02 -0.70988323056E+03  0.73294462136E+03  0.00000000000E+00 0. -1.
         21    1    1    2  503  501  0.16653028109E+03 -0.54092157441E+02  0.10108590287E+03  0.20217976105E+03  0.00000000000E+00 0. -1.
          1    1    1    2  501    0 -0.19177712903E+03 -0.27837832619E+03 -0.89274812011E+03  0.95460576453E+03  0.00000000000E+00 0. -1.
<scales pt_clust_5="13000.00000" pt_clust_6="13000.00000" pt_clust_7="13000.00000" pt_clust_8="13000.00000" pt_clust_9="175.09511" pt_clust_10="13000.00000"></scales>
<clustering>
<clus scale="   79.269">  5  6 -1 -1</clus>
<clus scale="   91.994">  7  8 -1 -1</clus>
<clus scale="  175.095">  1  9  2 -1</clus>
<clus scale="  210.082">  2  5  1 -1</clus>
<clus scale="  289.241">  7 10 -1 -1</clus>
<clus scale="  175.095">  1  5  2 -1</clus>
</clustering>
</event>
<event>
10    4  0.2866397E-005  0.5371444E+03  0.7546771E-02  0.1011870E+00
          2   -1    0    0  503    0 -0.00000000000E+00  0.00000000000E+00  0.15547535346E+04  0.15547535346E+04  0.00000000000E+00 0. -1.
         21   -1    0    0  501  502  0.00000000000E+00 -0.00000000000E+00 -0.20967755874E+03  0.20967755874E+03  0.00000000000E+00 0. -1.
         24    2    1    2    0    0  0.30026632680E+03 -0.29818309203E+03  0.10206199217E+04  0.11078258086E+04  0.80870106858E+02 0.  0.
         23    2    1    2    0    0  0.47146864440E+02  0.47750978528E+02  0.11193517404E+03  0.15783912011E+03  0.88773429981E+02 0.  0.
        -11    1    3    3    0    0  0.73159867041E+02 -0.32200938007E+02  0.22305990795E+03  0.23694933865E+03  0.00000000000E+00 0.  1.
         12    1    3    3    0    0  0.22710645976E+03 -0.26598215402E+03  0.79756001378E+03  0.87087646994E+03  0.00000000000E+00 0. -1.
        -11    1    4    4    0    0  0.57058892992E+02  0.65185033622E+02  0.70079220805E+02  0.11142667125E+03  0.00000000000E+00 0. -1.
         11    1    4    4    0    0 -0.99120285528E+01 -0.17434055093E+02  0.41855953239E+02  0.46412448853E+02  0.00000000000E+00 0.  1.
         21    1    1    2  503  502 -0.20797130152E+02 -0.93593385650E+00 -0.17127851924E+02  0.26958484866E+02  0.00000000000E+00 0. -1.
          1    1    1    2  501    0 -0.32661606108E+03  0.25136804735E+03  0.22964873205E+03  0.47180767980E+03  0.00000000000E+00 0. -1.
<scales pt_clust_5="13000.00000" pt_clust_6="13000.00000" pt_clust_7="13000.00000" pt_clust_8="13000.00000" pt_clust_9="20.81818" pt_clust_10="13000.00000"></scales>
<clustering>
<clus scale="   20.818">  2  9  1 -1</clus>
<clus scale="   80.870">  5  6 -1 -1</clus>
<clus scale="   88.773">  7  8 -1 -1</clus>
<clus scale="  422.502">  7 10 -1 -1</clus>
<clus scale="  427.626">  1  5  2 -1</clus>
<clus scale="   20.818">  2  5  1 -1</clus>
</clustering>
</event>
<event>
10    4  0.2866397E-005  0.9052577E+03  0.7546771E-02  0.1010013E+00
         21   -1    0    0  501  502  0.00000000000E+00  0.00000000000E+00  0.79981129877E+03  0.79981129877E+03  0.00000000000E+00 0. -1.
          2   -1    0    0  503    0 -0.00000000000E+00 -0.00000000000E+00 -0.52993044072E+03  0.52993044072E+03  0.00000000000E+00 0. -1.
         24    2    1    2    0    0 -0.21073126095E+02 -0.45180292006E+02 -0.80074856224E+02  0.12393904085E+03  0.80396317194E+02 0.  0.
         23    2    1    2    0    0  0.35336784025E+03  0.28570076697E+03  0.17919045486E+03  0.49698682485E+03  0.91612914976E+02 0.  0.
        -13    1    3    3    0    0 -0.53118383837E+01  0.19465000473E+02 -0.46281984235E+00  0.20182073051E+02  0.00000000000E+00 0.  1.
         14    1    3    3    0    0 -0.15761287711E+02 -0.64645292479E+02 -0.79612036382E+02  0.10375696780E+03  0.00000000000E+00 0. -1.
        -11    1    4    4    0    0  0.52466108357E+02  0.85283488276E+02  0.20755193174E+02  0.10225822188E+03  0.00000000000E+00 0.  1.
         11    1    4    4    0    0  0.30090173190E+03  0.20041727870E+03  0.15843526168E+03  0.39472860297E+03  0.00000000000E+00 0. -1.
         21    1    1    2  503  502  0.56170155810E+02 -0.11464269359E+03  0.26105820987E+03  0.29060182818E+03  0.00000000000E+00 0. -1.
          1    1    1    2  501    0 -0.38846486997E+03 -0.12587778138E+03 -0.90292950463E+02  0.41821404561E+03  0.00000000000E+00 0. -1.
<scales pt_clust_5="13000.00000" pt_clust_6="13000.00000" pt_clust_7="13000.00000" pt_clust_8="13000.00000" pt_clust_9="128.75120" pt_clust_10="13000.00000"></scales>
<clustering>
<clus scale="   80.396">  5  6 -1 -1</clus>
<clus scale="   91.613">  7  8 -1 -1</clus>
<clus scale="   94.599">  2  5  1 -1</clus>
<clus scale="  128.751">  1  9  2 -1</clus>
<clus scale="  427.884">  7 10 -1 -1</clus>
<clus scale="  128.751">  1  5  2 -1</clus>
</clustering>
</event>
<event>
10    4  0.2866397E-005  0.3336192E+03  0.7546771E-02  0.1109811E+00
          2   -1    0    0  502    0 -0.00000000000E+00  0.00000000000E+00  0.67646888154E+03  0.67646888154E+03  0.00000000000E+00 0. -1.
         21   -1    0    0  503  502  0.00000000000E+00 -0.00000000000E+00 -0.17853300792E+03  0.17853300792E+03  0.00000000000E+00 0. -1.
         24    2    1    2    0    0 -0.23592302078E+02 -0.66400061497E+02  0.18219626675E+03  0.21139206740E+03  0.80780948585E+02 0.  0.
         23    2    1    2    0    0 -0.18306267798E+02  0.41413794213E+02 -0.15578472588E+02  0.10139447554E+03  0.89375215080E+02 0.  0.
        -11    1    3    3    0    0  0.17197631075E+02 -0.54204975740E+02  0.14148475221E+03  0.15248564856E+03  0.00000000000E+00 0.  1.
         12    1    3    3    0    0 -0.40789933153E+02 -0.12195085757E+02  0.40711514546E+02  0.58906418834E+02  0.00000000000E+00 0. -1.
        -11    1    4    4    0    0 -0.12523445807E+02 -0.27825030276E+02 -0.76951379846E+01  0.31468780614E+02  0.00000000000E+00 0.  1.
         11    1    4    4    0    0 -0.57828219905E+01  0.69238824489E+02 -0.78833346035E+01  0.69925694929E+02  0.00000000000E+00 0. -1.
         21    1    1    2  503  501 -0.23486938442E+02 -0.57141037383E+02 -0.89360123276E+02  0.10863685407E+03  0.00000000000E+00 0. -1.
          1    1    1    2  501    0  0.65385508318E+02  0.82127304667E+02  0.42067820273E+03  0.43357849246E+03  0.00000000000E+00 0. -1.
<scales pt_clust_5="13000.00000" pt_clust_6="13000.00000" pt_clust_7="13000.00000" pt_clust_8="13000.00000" pt_clust_9="61.77973" pt_clust_10="13000.00000"></scales>
<clustering>
<clus scale="   61.780">  2  9  1 -1</clus>
<clus scale="   80.781">  5  6 -1 -1</clus>
<clus scale="   89.375">  7  8 -1 -1</clus>
<clus scale="  100.175">  7 10 -1 -1</clus>
<clus scale="  114.960">  1  5  2 -1</clus>
<clus scale="   61.780">  2  5  1 -1</clus>
</clustering>
</event>
<event>
10    4  0.2866397E-005  0.2500584E+03  0.7546771E-02  0.1153665E+00
         21   -1    0    0  501  502  0.00000000000E+00  0.00000000000E+00  0.77587353753E+02  0.77587353753E+02  0.00000000000E+00 0. -1.
          2   -1    0    0  503    0 -0.00000000000E+00 -0.00000000000E+00 -0.49387883503E+03  0.49387883503E+03  0.00000000000E+00 0. -1.
         24    2    1    2    0    0  0.32324540602E+02 -0.38804616351E+02 -0.17068012146E+03  0.19542634265E+03  0.80678853267E+02 0.  0.
         23    2    1    2    0    0 -0.73161397912E+01 -0.86061051394E+02 -0.73941218979E+02  0.14578826000E+03  0.91251752969E+02 0.  0.
        -13    1    3    3    0    0 -0.25694097510E+02 -0.11960566448E+02 -0.32159566121E+02  0.42865831261E+02  0.00000000000E+00 0.  1.
         14    1    3    3    0    0  0.58018638113E+02 -0.26844049903E+02 -0.13852055534E+03  0.15256051139E+03  0.00000000000E+00 0. -1.
        -13    1    4    4    0    0 -0.11168596215E+02 -0.57222346383E+02  0.79875360716E+01  0.58846709335E+02  0.00000000000E+00 0. -1.
         13    1    4    4    0    0  0.38524564235E+01 -0.28838705011E+02 -0.81928755050E+02  0.86941550661E+02  0.00000000000E+00 0.  1.
         21    1    1    2  503  502 -0.56844058167E+01  0.20059938394E+02  0.71846021761E+01  0.22052938722E+02  0.00000000000E+00 0.  1.
          1    1    1    2  501    0 -0.19323994994E+02  0.10480572935E+03 -0.17885474302E+03  0.20819864742E+03  0.00000000000E+00 0. -1.
<scales pt_clust_5="13000.00000" pt_clust_6="13000.00000" pt_clust_7="13000.00000" pt_clust_8="13000.00000" pt_clust_9="20.84979" pt_clust_10="13000.00000"></scales>
<clustering>
<clus scale="   20.850">  1  9  2 -1</clus>
<clus scale="   80.679">  5  6 -1 -1</clus>
<clus scale="   91.252">  7  8 -1 -1</clus>
<clus scale="   93.265">  2  5  1 -1</clus>
<clus scale="   86.012">  7 10 -1 -1</clus>
<clus scale="   20.850">  1  5  2 -1</clus>
</clustering>
</event>
<event>
10    4  0.2866397E-005  0.2204566E+03  0.7546771E-02  0.1168790E+00
         21   -1    0    0  501  502  0.00000000000E+00  0.00000000000E+00  0.12682256642E+03  0.12682256642E+03  0.00000000000E+00 0.  1.
          2   -1    0    0  503    0 -0.00000000000E+00 -0.00000000000E+00 -0.10200850960E+04  0.10200850960E+04  0.00000000000E+00 0. -1.
         24    2    1    2    0    0  0.32451460079E+02  0.49268937965E+02 -0.51289391506E+03  0.52162886983E+03  0.74538474783E+02 0.  0.
         23    2    1    2    0    0  0.30490926120E+02 -0.11926055159E+03 -0.40233620809E+03  0.43060910408E+03  0.91635148454E+02 0.  0.
        -13    1    3    3    0    0  0.26928969668E+02  0.63610653001E+02 -0.28632959087E+03  0.29454391725E+03  0.00000000000E+00 0.  1.
         14    1    3    3    0    0  0.55224904112E+01 -0.14341715037E+02 -0.22656432419E+03  0.22708495257E+03  0.00000000000E+00 0. -1.
        -13    1    4    4    0    0 -0.26552373259E+02 -0.11461007068E+02 -0.50001655070E+02  0.57762866259E+02  0.00000000000E+00 0.  1.
         13    1    4    4    0    0  0.57043299379E+02 -0.10779954452E+03 -0.35233455302E+03  0.37284623782E+03  0.00000000000E+00 0. -1.
         21    1    1    2  503  502 -0.23877460774E+02  0.23507526405E+02  0.94390199487E+02  0.10016110368E+03  0.00000000000E+00 0.  1.
          1    1    1    2  501    0 -0.39064925426E+02  0.46484087217E+02 -0.72422605945E+02  0.94508584874E+02  0.00000000000E+00 0. -1.
<scales pt_clust_5="13000.00000" pt_clust_6="13000.00000" pt_clust_7="13000.00000" pt_clust_8="13000.00000" pt_clust_9="33.50727" pt_clust_10="13000.00000"></scales>
<clustering>
<clus scale="   33.507">  1  9  2 -1</clus>
<clus scale="   74.538">  5  6 -1 -1</clus>
<clus scale="   91.635">  7  8 -1 -1</clus>
<clus scale="   73.196">  7 10 -1 -1</clus>
<clus scale="   95.783">  2  5  1 -1</clus>
<clus scale="   33.507">  1  5  2 -1</clus>
</clustering>
</event>
<event>
10    4  0.2866397E-005  0.3470263E+03  0.7546771E-02  0.1108347E+00
         21   -1    0    0  501  502  0.00000000000E+00  0.00000000000E+00  0.58942255316E+02  0.58942255316E+02  0.00000000000E+00 0. -1.
          2   -1    0    0  503    0 -0.00000000000E+00 -0.00000000000E+00 -0.17448508189E+04  0.17448508189E+04  0.00000000000E+00 0. -1.
         24    2    1    2    0    0 -0.67557906213E+01 -0.40272728775E+02 -0.67238583942E+03  0.68103338501E+03  0.10018094155E+03 0.  0.
         23    2    1    2    0    0  0.24584722761E+02 -0.15666096129E+03 -0.60683446235E+03  0.63385630586E+03  0.91535164849E+02 0.  0.
        -11    1    3    3    0    0  0.11627207437E+01  0.26923578172E+02 -0.72547220840E+02  0.77390763226E+02  0.00000000000E+00 0.  1.
         12    1    3    3    0    0 -0.79185113650E+01 -0.67196306947E+02 -0.59983861858E+03  0.60364262179E+03  0.00000000000E+00 0. -1.
        -11    1    4    4    0    0  0.29124372072E+02 -0.15122646187E+02 -0.54147304930E+02  0.63315512376E+02  0.00000000000E+00 0.  1.
         11    1    4    4    0    0 -0.45396493111E+01 -0.14153831510E+03 -0.55268715742E+03  0.57054079349E+03  0.00000000000E+00 0. -1.
         21    1    1    2  503  502  0.27645192200E+02  0.43384074587E+02  0.40432159615E+00  0.51445097487E+02  0.00000000000E+00 0. -1.
          1    1    1    2  501    0 -0.45474124339E+02  0.15354961548E+03 -0.40709258343E+03  0.43745828587E+03  0.00000000000E+00 0. -1.
<scales pt_clust_5="13000.00000" pt_clust_6="13000.00000" pt_clust_7="13000.00000" pt_clust_8="13000.00000" pt_clust_9="51.44351" pt_clust_10="13000.00000"></scales>
<clustering>
<clus scale="   51.444">  1  9  2 -1</clus>
<clus scale="   91.535">  7  8 -1 -1</clus>
<clus scale="  100.181">  5  6 -1 -1</clus>
<clus scale="  106.031">  2  5  1 -1</clus>
<clus scale="  160.342">  7 10 -1 -1</clus>
<clus scale="   51.444">  1  5  2 -1</clus>
</clustering>
</event>
<event>
10    4  0.2866397E-005  0.1067249E+04  0.7546771E-02  0.9940967E-01
          2   -1    0    0  503    0 -0.00000000000E+00  0.00000000000E+00  0.13208366725E+04  0.13208366725E+04  0.00000000000E+00 0. -1.
         21   -1    0    0  501  502  0.00000000000E+00 -0.00000000000E+00 -0.30172868696E+03  0.30172868696E+03  0.00000000000E+00 0. -1.
         24    2    1    2    0    0  0.17559055179E+02  0.48578726261E+02  0.23693896913E+03  0.25556225055E+03  0.80645990315E+02 0.  0.
         23    2    1    2    0    0  0.22109306444E+03  0.34619753093E+03 -0.10805136456E+02  0.42153194571E+03  0.94008280050E+02 0.  0.
        -13    1    3    3    0    0 -0.12918387216E+02  0.16603329318E+02  0.81703913892E+01  0.22567910142E+02  0.00000000000E+00 0.  1.
         14    1    3    3    0    0  0.30477442394E+02  0.31975396943E+02  0.22876857774E+03  0.23299434041E+03  0.00000000000E+00 0. -1.
        -13    1    4    4    0    0  0.21057361406E+03  0.32043348248E+03 -0.34503695701E+02  0.38497969901E+03  0.00000000000E+00 0. -1.
         13    1    4    4    0    0  0.10519450379E+02  0.25764048449E+02  0.23698559245E+02  0.36552246703E+02  0.00000000000E+00 0.  1.
         21    1    1    2  503  502 -0.29116913450E+02 -0.27032484734E+02 -0.70824855270E+01  0.40357297741E+02  0.00000000000E+00 0.  1.
          1    1    1    2  501    0 -0.20953520617E+03 -0.36774377246E+03  0.80005663842E+03  0.90511386548E+03  0.00000000000E+00 0. -1.
<scales pt_clust_5="13000.00000" pt_clust_6="13000.00000" pt_clust_7="13000.00000" pt_clust_8="13000.00000" pt_clust_9="39.73097" pt_clust_10="13000.00000"></scales>
<clustering>
<clus scale="   39.731">  2  9  1 -1</clus>
<clus scale="   80.646">  5  6 -1 -1</clus>
<clus scale="   94.008">  7  8 -1 -1</clus>
<clus scale="   95.140">  1  5  2 -1</clus>
<clus scale="  389.781">  7 10 -1 -1</clus>
<clus scale="   39.731">  2  5  1 -1</clus>
</clustering>
</event>
<event>
10    4  0.2866397E-005  0.3088980E+03  0.7546771E-02  0.1120077E+00
         21   -1    0    0  501  502  0.00000000000E+00  0.00000000000E+00  0.63280865251E+03  0.63280865251E+03  0.00000000000E+00 0.  1.
         -1   -1    0    0    0  501 -0.00000000000E+00 -0.00000000000E+00 -0.88488102980E+02  0.88488102980E+02  0.00000000000E+00 0.  1.
         24    2    1    2    0    0  0.31960869337E+02 -0.65810013076E+02  0.59747856852E+02  0.12471825467E+03  0.81439435525E+02 0.  0.
         23    2    1    2    0    0 -0.96314950225E+02  0.13104675966E+03  0.39832421266E+03  0.43988117491E+03  0.91561164213E+02 0.  0.
        -11    1    3    3    0    0  0.50938713454E+02 -0.11954347129E+02  0.30472759677E+02  0.60549550171E+02  0.00000000000E+00 0.  1.
         12    1    3    3    0    0 -0.18977844117E+02 -0.53855665946E+02  0.29275097175E+02  0.64168704494E+02  0.00000000000E+00 0. -1.
        -13    1    4    4    0    0 -0.58634727618E+01  0.75705835941E+02  0.11960685485E+03  0.14167411068E+03  0.00000000000E+00 0. -1.
         13    1    4    4    0    0 -0.90451477463E+02  0.55340923718E+02  0.27871735781E+03  0.29820706423E+03  0.00000000000E+00 0.  1.
         21    1    1    2  503  502  0.22473319794E+02 -0.11096770234E+02  0.84594446607E+02  0.88229296772E+02  0.00000000000E+00 0.  1.
         -2    1    1    2    0  503  0.41880761094E+02 -0.54139976350E+02  0.16540334146E+01  0.68468029148E+02  0.00000000000E+00 0.  1.
<scales pt_clust_5="13000.00000" pt_clust_6="13000.00000" pt_clust_7="13000.00000" pt_clust_8="13000.00000" pt_clust_9="25.06369" pt_clust_10="13000.00000"></scales>
<clustering>
<clus scale="   25.064">  1  9  2 -1</clus>
<clus scale="   81.439">  5  6 -1 -1</clus>
<clus scale="   91.561">  7  8 -1 -1</clus>
<clus scale="   69.897">  7 10 -1 -1</clus>
<clus scale="  111.767">  2  5  1 -1</clus>
<clus scale="   25.064">  1  5  2 -1</clus>
</clustering>
</event>
<event>
10    4  0.2866397E-005  0.2833709E+03  0.7546771E-02  0.1131799E+00
         21   -1    0    0  501  502  0.00000000000E+00  0.00000000000E+00  0.20953248859E+03  0.20953248859E+03  0.00000000000E+00 0. -1.
          2   -1    0    0  503    0 -0.00000000000E+00 -0.00000000000E+00 -0.46088929431E+03  0.46088929431E+03  0.00000000000E+00 0. -1.
         24    2    1    2    0    0  0.89573699478E+02  0.24497225143E+02 -0.91484510955E+02  0.15337099410E+03  0.80806462665E+02 0.  0.
         23    2    1    2    0    0 -0.59892991744E+02 -0.43333881129E+02 -0.30527890718E+03  0.32759157246E+03  0.93037795899E+02 0.  0.
        -11    1    3    3    0    0  0.28298812213E+02  0.42659777984E+02 -0.14281658500E+02  0.53147391279E+02  0.00000000000E+00 0.  1.
         12    1    3    3    0    0  0.61274887265E+02 -0.18162552841E+02 -0.77202852455E+02  0.10022360282E+03  0.00000000000E+00 0. -1.
        -11    1    4    4    0    0 -0.28224837489E+02 -0.69869364344E+02 -0.22536019849E+03  0.23762489051E+03  0.00000000000E+00 0. -1.
         11    1    4    4    0    0 -0.31668154255E+02  0.26535483215E+02 -0.79918708692E+02  0.89966681957E+02  0.00000000000E+00 0.  1.
         21    1    1    2  503  502 -0.54555361674E+02 -0.26581748740E+02  0.11330108623E+03  0.12853020266E+03  0.00000000000E+00 0. -1.
          1    1    1    2  501    0  0.24874653940E+02  0.45418404726E+02  0.32105526189E+02  0.60929013683E+02  0.00000000000E+00 0. -1.
<scales pt_clust_5="13000.00000" pt_clust_6="13000.00000" pt_clust_7="13000.00000" pt_clust_8="13000.00000" pt_clust_9="60.68671" pt_clust_10="13000.00000"></scales>
<clustering>
<clus scale="   60.687">  1  9  2 -1</clus>
<clus scale="   80.806">  5  6 -1 -1</clus>
<clus scale="   93.038">  7  8 -1 -1</clus>
<clus scale="   31.689">  7 10 -1 -1</clus>
<clus scale="  108.327">  2  5  1 -1</clus>
<clus scale="   60.687">  1  5  2 -1</clus>
</clustering>
</event>
<event>
10    4  0.2866397E-005  0.1835720E+03  0.7546771E-02  0.1176935E+00
         21   -1    0    0  503  502  0.00000000000E+00  0.00000000000E+00  0.33130185176E+03  0.33130185176E+03  0.00000000000E+00 0. -1.
         -3   -1    0    0    0  501 -0.00000000000E+00 -0.00000000000E+00 -0.19066378802E+03  0.19066378802E+03  0.00000000000E+00 0.  1.
         24    2    1    2    0    0  0.29304722065E+02  0.91769053898E+02  0.28159695643E+01  0.12536885239E+03  0.80181628049E+02 0.  0.
         23    2    1    2    0    0  0.47092832503E+02 -0.11418214176E+03 -0.42197586928E+02  0.15930679398E+03  0.91338501710E+02 0.  0.
        -11    1    3    3    0    0 -0.81244535690E+01  0.76520434853E+02  0.22834015014E+02  0.80266904373E+02  0.00000000000E+00 0.  1.
         12    1    3    3    0    0  0.37429175634E+02  0.15248619045E+02 -0.20018045450E+02  0.45101948018E+02  0.00000000000E+00 0. -1.
        -11    1    4    4    0    0  0.24043996565E+01 -0.97945975929E+02 -0.35590288656E+01  0.98040104166E+02  0.00000000000E+00 0. -1.
         11    1    4    4    0    0  0.44688432846E+02 -0.16236165829E+02 -0.38638558063E+02  0.61266689810E+02  0.00000000000E+00 0.  1.
         21    1    1    2  503  501 -0.37154112800E+02  0.43834686636E+02  0.18365349407E+03  0.19243314095E+03  0.00000000000E+00 0. -1.
         -4    1    1    2    0  502 -0.39243441768E+02 -0.21421598776E+02 -0.36338129697E+01  0.44856852460E+02  0.00000000000E+00 0.  1.
<scales pt_clust_5="13000.00000" pt_clust_6="13000.00000" pt_clust_7="13000.00000" pt_clust_8="13000.00000" pt_clust_9="57.46223" pt_clust_10="13000.00000"></scales>
<clustering>
<clus scale="   57.462">  1  9  2 -1</clus>
<clus scale="   80.182">  5  6 -1 -1</clus>
<clus scale="   91.339">  7  8 -1 -1</clus>
<clus scale="   47.081">  7 10 -1 -1</clus>
<clus scale="  137.824">  2  5  1 -1</clus>
<clus scale="   57.462">  1  5  2 -1</clus>
</clustering>
</event>
<event>
10    4  0.2866397E-005  0.1834995E+03  0.7546771E-02  0.1192709E+00
         -1   -1    0    0    0  501 -0.00000000000E+00  0.00000000000E+00  0.66131068181E+03  0.66131068181E+03  0.00000000000E+00 0.  1.
         21   -1    0    0  503  502  0.00000000000E+00 -0.00000000000E+00 -0.55819042591E+02  0.55819042591E+02  0.00000000000E+00 0.  1.
         24    2    1    2    0    0 -0.12241916950E+02  0.59895173757E+02  0.25114985296E+03  0.27060501769E+03  0.80084521524E+02 0.  0.
         23    2    1    2    0    0 -0.34625568063E+02  0.19070973418E+02  0.14164023011E+03  0.17365454854E+03  0.92365120328E+02 0.  0.
        -13    1    3    3    0    0  0.23940155943E+02  0.44174941347E+02  0.19882352221E+03  0.20507400980E+03  0.00000000000E+00 0.  1.
         14    1    3    3    0    0 -0.36182072894E+02  0.15720232409E+02  0.52326330743E+02  0.65531007889E+02  0.00000000000E+00 0. -1.
        -11    1    4    4    0    0 -0.69119000511E+01  0.51453249172E+02  0.10624892160E+03  0.11825415237E+03  0.00000000000E+00 0. -1.
         11    1    4    4    0    0 -0.27713668012E+02 -0.32382275753E+02  0.35391308510E+02  0.55400396169E+02  0.00000000000E+00 0.  1.
         21    1    1    2  503  501  0.22567116750E+02 -0.16493945553E+02 -0.17586670947E+02  0.33024475670E+02  0.00000000000E+00 0.  1.
         -2    1    1    2    0  502  0.24300368263E+02 -0.62472201622E+02  0.23028822711E+03  0.23984568251E+03  0.00000000000E+00 0.  1.
<scales pt_clust_5="13000.00000" pt_clust_6="13000.00000" pt_clust_7="13000.00000" pt_clust_8="13000.00000" pt_clust_9="27.95219" pt_clust_10="13000.00000"></scales>
<clustering>
<clus scale="   27.952">  2  9  1 -1</clus>
<clus scale="   80.085">  5  6 -1 -1</clus>
<clus scale="   92.365">  7  8 -1 -1</clus>
<clus scale="   70.760">  7 10 -1 -1</clus>
<clus scale="   97.078">  1  5  2 -1</clus>
<clus scale="   27.952">  2  5  1 -1</clus>
</clustering>
</event>
<event>
10    4  0.2866397E-005  0.5033199E+03  0.7546771E-02  0.1036863E+00
         21   -1    0    0  501  502  0.00000000000E+00  0.00000000000E+00  0.12817506256E+03  0.12817506256E+03  0.00000000000E+00 0.  1.
          2   -1    0    0  503    0 -0.00000000000E+00 -0.00000000000E+00 -0.24734062867E+04  0.24734062867E+04  0.00000000000E+00 0. -1.
         24    2    1    2    0    0  0.14242503478E+03  0.18668542876E+03 -0.81156943736E+03  0.84853410888E+03  0.78923015933E+02 0.  0.
         23    2    1    2    0    0 -0.90420278703E+02 -0.33161867400E+03 -0.10277204534E+04  0.10873851412E+04  0.89723705342E+02 0.  0.
        -13    1    3    3    0    0  0.11545612624E+03  0.11738451566E+03 -0.65231045388E+03  0.67276903157E+03  0.00000000000E+00 0.  1.
         14    1    3    3    0    0  0.26968908536E+02  0.69300913094E+02 -0.15925898348E+03  0.17576507731E+03  0.00000000000E+00 0. -1.
        -13    1    4    4    0    0 -0.68474149543E+02 -0.31999339666E+03 -0.90935767070E+03  0.96644495773E+03  0.00000000000E+00 0.  1.
         13    1    4    4    0    0 -0.21946129160E+02 -0.11625277341E+02 -0.11836278269E+03  0.12094018349E+03  0.00000000000E+00 0. -1.
         21    1    1    2  503  502 -0.22314529893E+02  0.75181256160E+01  0.69456105190E+02  0.73339014210E+02  0.00000000000E+00 0.  1.
          1    1    1    2  501    0 -0.29690226183E+02  0.13741511962E+03 -0.57539743857E+03  0.59232308493E+03  0.00000000000E+00 0. -1.
<scales pt_clust_5="13000.00000" pt_clust_6="13000.00000" pt_clust_7="13000.00000" pt_clust_8="13000.00000" pt_clust_9="23.54698" pt_clust_10="13000.00000"></scales>
<clustering>
<clus scale="   23.547">  1  9  2 -1</clus>
<clus scale="   78.923">  5  6 -1 -1</clus>
<clus scale="   89.724">  7  8 -1 -1</clus>
<clus scale="  142.416">  7 10 -1 -1</clus>
<clus scale="  245.497">  2  5  1 -1</clus>
<clus scale="   23.547">  1  5  2 -1</clus>
</clustering>
</event>
<event>
10    4  0.2866397E-005  0.4773168E+03  0.7546771E-02  0.1073765E+00
         21   -1    0    0  503  502  0.00000000000E+00  0.00000000000E+00  0.11913727234E+03  0.11913727234E+03  0.00000000000E+00 0. -1.
          2   -1    0    0  502    0 -0.00000000000E+00 -0.00000000000E+00 -0.12427230169E+04  0.12427230169E+04  0.00000000000E+00 0. -1.
         24    2    1    2    0    0  0.18118277214E+02  0.60415973810E+02 -0.68139291873E+03  0.68895956517E+03  0.79941296430E+02 0.  0.
         23    2    1    2    0    0  0.41891791069E+02  0.47873415010E+02  0.69087757327E+02  0.12883108333E+03  0.88190383806E+02 0.  0.
        -13    1    3    3    0    0 -0.14358631397E+02  0.29970993598E+02 -0.90787018142E+02  0.96678402014E+02  0.00000000000E+00 0.  1.
         14    1    3    3    0    0  0.32476908611E+02  0.30444980212E+02 -0.59060590059E+03  0.59228116315E+03  0.00000000000E+00 0. -1.
        -11    1    4    4    0    0  0.22485337486E+02  0.55051425990E+02  0.84289915773E+02  0.10315541579E+03  0.00000000000E+00 0. -1.
         11    1    4    4    0    0  0.19406453583E+02 -0.71780109804E+01 -0.15202158446E+02  0.25675667542E+02  0.00000000000E+00 0.  1.
         21    1    1    2  503  501  0.18329003612E+02 -0.21966640475E+02 -0.11432718809E+02  0.30808971526E+02  0.00000000000E+00 0. -1.
          1    1    1    2  501    0 -0.78339071894E+02 -0.86322748345E+02 -0.49984786433E+03  0.51326066919E+03  0.00000000000E+00 0. -1.
<scales pt_clust_5="13000.00000" pt_clust_6="13000.00000" pt_clust_7="13000.00000" pt_clust_8="13000.00000" pt_clust_9="28.60919" pt_clust_10="13000.00000"></scales>
<clustering>
<clus scale="   28.609">  1  9  2 -1</clus>
<clus scale="   79.941">  5  6 -1 -1</clus>
<clus scale="   88.190">  7  8 -1 -1</clus>
<clus scale="  101.495">  2  5  1 -1</clus>
<clus scale="   68.885">  7 10 -1 -1</clus>
<clus scale="   28.609">  1  5  2 -1</clus>
</clustering>
</event>
<event>
10    4  0.2866397E-005  0.2479042E+03  0.7546771E-02  0.1141648E+00
         21   -1    0    0  501  502  0.00000000000E+00  0.00000000000E+00  0.13199686996E+03  0.13199686996E+03  0.00000000000E+00 0. -1.
          2   -1    0    0  503    0 -0.00000000000E+00 -0.00000000000E+00 -0.63863875503E+03  0.63863875503E+03  0.00000000000E+00 0. -1.
         24    2    1    2    0    0  0.10074574141E+03 -0.17816528462E+01 -0.45573240953E+03  0.47352436907E+03  0.79877533213E+02 0.  0.
         23    2    1    2    0    0  0.21745790332E+02 -0.68071006284E+02 -0.98852254977E+01  0.11520413189E+03  0.89820560159E+02 0.  0.
        -11    1    3    3    0    0 -0.32929302388E+00 -0.22692437450E+02 -0.50703541239E+02  0.55550915793E+02  0.00000000000E+00 0.  1.
         12    1    3    3    0    0  0.10107503443E+03  0.20910784604E+02 -0.40502886829E+03  0.41797345328E+03  0.00000000000E+00 0. -1.
        -11    1    4    4    0    0 -0.35308928948E+02 -0.27898215223E+02 -0.38607530763E+01  0.45165653880E+02  0.00000000000E+00 0.  1.
         11    1    4    4    0    0  0.57054719280E+02 -0.40172791060E+02 -0.60244724213E+01  0.70038478008E+02  0.00000000000E+00 0. -1.
         21    1    1    2  503  502 -0.15997915690E+02  0.13446340587E+02  0.34031205783E+02  0.39935702681E+02  0.00000000000E+00 0. -1.
          1    1    1    2  501    0 -0.10649361605E+03  0.56406318543E+02 -0.75055455824E+02  0.14197142135E+03  0.00000000000E+00 0. -1.
<scales pt_clust_5="13000.00000" pt_clust_6="13000.00000" pt_clust_7="13000.00000" pt_clust_8="13000.00000" pt_clust_9="20.89826" pt_clust_10="13000.00000"></scales>
<clustering>
<clus scale="   20.898">  1  9  2 -1</clus>
<clus scale="   79.878">  5  6 -1 -1</clus>
<clus scale="   89.821">  7  8 -1 -1</clus>
<clus scale="  127.400">  2  5  1 -1</clus>
<clus scale="   75.763">  7 10 -1 -1</clus>
<clus scale="   20.898">  1  5  2 -1</clus>
</clustering>
</event>
<event>
10    4  0.2866397E-005  0.2192653E+03  0.7546771E-02  0.1170235E+00
         21   -1    0    0  501  502  0.00000000000E+00  0.00000000000E+00  0.32890190569E+02  0.32890190569E+02  0.00000000000E+00 0.  1.
          4   -1    0    0  503    0 -0.00000000000E+00 -0.00000000000E+00 -0.10090416076E+04  0.10090416076E+04  0.00000000000E+00 0. -1.
         24    2    1    2    0    0 -0.52626572456E+02 -0.26018609684E+02 -0.30416592146E+03  0.31998627886E+03  0.80173478781E+02 0.  0.
         23    2    1    2    0    0 -0.71215784781E+02  0.24487195404E+02 -0.29240020924E+03  0.31526377779E+03  0.90675556147E+02 0.  0.
        -13    1    3    3    0    0 -0.18132103136E+02 -0.24974817087E+02 -0.27996988264E+02  0.41669485292E+02  0.00000000000E+00 0.  1.
         14    1    3    3    0    0 -0.34494469320E+02 -0.10437925971E+01 -0.27616893320E+03  0.27831679357E+03  0.00000000000E+00 0. -1.
        -11    1    4    4    0    0 -0.77686872778E+02  0.44931777188E+02 -0.26875288373E+03  0.28334118536E+03  0.00000000000E+00 0.  1.
         11    1    4    4    0    0  0.64710879968E+01 -0.20444581784E+02 -0.23647325503E+02  0.31922592432E+02  0.00000000000E+00 0. -1.
         21    1    1    2  503  502  0.30400220594E+02  0.62050206402E+01 -0.24662408344E+02  0.39634708005E+02  0.00000000000E+00 0.  1.
          3    1    1    2  501    0  0.93442136644E+02 -0.46736063600E+01 -0.35492287802E+03  0.36704703355E+03  0.00000000000E+00 0. -1.
<scales pt_clust_5="13000.00000" pt_clust_6="13000.00000" pt_clust_7="13000.00000" pt_clust_8="13000.00000" pt_clust_9="31.02702" pt_clust_10="13000.00000"></scales>
<clustering>
<clus scale="   31.027">  1  9  2 -1</clus>
<clus scale="   80.173">  5  6 -1 -1</clus>
<clus scale="   90.676">  7  8 -1 -1</clus>
<clus scale="   94.185">  2  5  1 -1</clus>
<clus scale="   77.065">  7 10 -1 -1</clus>
<clus scale="   31.027">  1  5  2 -1</clus>
</clustering>
</event>
<event>
10    4  0.2866397E-005  0.1271950E+03  0.7546771E-02  0.1239320E+00
          2   -1    0    0  503    0 -0.00000000000E+00  0.00000000000E+00  0.31301813337E+03  0.31301813337E+03  0.00000000000E+00 0. -1.
         21   -1    0    0  501  502  0.00000000000E+00 -0.00000000000E+00 -0.15416456998E+03  0.15416456998E+03  0.00000000000E+00 0. -1.
         24    2    1    2    0    0  0.50939142361E+02 -0.47259581902E+02  0.52909306310E+02  0.12292895503E+03  0.86509357787E+02 0.  0.
         23    2    1    2    0    0  0.21699237161E+01  0.47877600909E+02  0.15427776778E+03  0.18685259567E+03  0.93889773892E+02 0.  0.
        -11    1    3    3    0    0  0.15619298329E+02  0.20939425508E+02  0.35674806010E+02  0.44216668856E+02  0.00000000000E+00 0.  1.
         12    1    3    3    0    0  0.35319844032E+02 -0.68199007410E+02  0.17234500300E+02  0.78712286174E+02  0.00000000000E+00 0. -1.
        -11    1    4    4    0    0 -0.23798314645E+02  0.16584759969E+02  0.18192197460E+01  0.29064129157E+02  0.00000000000E+00 0.  1.
         11    1    4    4    0    0  0.25968238361E+02  0.31292840940E+02  0.15245854803E+03  0.15778846651E+03  0.00000000000E+00 0. -1.
         21    1    1    2  503  502 -0.45798848038E+02 -0.23456307735E+02 -0.93238321083E+02  0.10649468237E+03  0.00000000000E+00 0. -1.
          1    1    1    2  501    0 -0.73102180391E+01  0.22838288728E+02  0.44904810397E+02  0.50906470282E+02  0.00000000000E+00 0. -1.
<scales pt_clust_5="13000.00000" pt_clust_6="13000.00000" pt_clust_7="13000.00000" pt_clust_8="13000.00000" pt_clust_9="51.45613" pt_clust_10="13000.00000"></scales>
<clustering>
<clus scale="   51.456">  2  9  1 -1</clus>
<clus scale="   86.509">  5  6 -1 -1</clus>
<clus scale="   93.890">  7  8 -1 -1</clus>
<clus scale="   23.684">  7 10 -1 -1</clus>
<clus scale="  108.784">  1  5  2 -1</clus>
<clus scale="   51.456">  2  5  1 -1</clus>
</clustering>
</event>
<event>
10    4  0.2866397E-005  0.4696761E+03  0.7546771E-02  0.1042857E+00
          2   -1    0    0  503    0 -0.00000000000E+00  0.00000000000E+00  0.86580109938E+03  0.86580109938E+03  0.00000000000E+00 0. -1.
         21   -1    0    0  501  502  0.00000000000E+00 -0.00000000000E+00 -0.49391245968E+03  0.49391245968E+03  0.00000000000E+00 0. -1.
         24    2    1    2    0    0 -0.18758430617E+03 -0.13901123170E+03  0.54813657628E+03  0.60387393428E+03  0.98478565123E+02 0.  0.
         23    2    1    2    0    0 -0.14327109925E+02 -0.95162883132E+02  0.11619464180E+03  0.17678027562E+03  0.92134850421E+02 0.  0.
        -11    1    3    3    0    0 -0.99506448852E+02 -0.11437201445E+03  0.41938546824E+03  0.44594468494E+03  0.00000000000E+00 0.  1.
         12    1    3    3    0    0 -0.88077857322E+02 -0.24639217250E+02  0.12875110803E+03  0.15792924934E+03  0.00000000000E+00 0. -1.
        -11    1    4    4    0    0 -0.35062530868E+02 -0.70427477041E+02  0.29074667485E+02  0.83873397943E+02  0.00000000000E+00 0. -1.
         11    1    4    4    0    0  0.20735420942E+02 -0.24735406091E+02  0.87119974310E+02  0.92906877679E+02  0.00000000000E+00 0.  1.
         21    1    1    2  503  502 -0.31950931561E+02  0.38892202984E+02 -0.26879650635E+03  0.27346851246E+03  0.00000000000E+00 0. -1.
          1    1    1    2  501    0  0.23386234766E+03  0.19528191185E+03 -0.23646072019E+02  0.30559083669E+03  0.00000000000E+00 0. -1.
<scales pt_clust_5="13000.00000" pt_clust_6="13000.00000" pt_clust_7="13000.00000" pt_clust_8="13000.00000" pt_clust_9="50.33354" pt_clust_10="13000.00000"></scales>
<clustering>
<clus scale="   50.334">  2  9  1 -1</clus>
<clus scale="   92.135">  7  8 -1 -1</clus>
<clus scale="   98.479">  5  6 -1 -1</clus>
<clus scale="  253.765">  1  5  2 -1</clus>
<clus scale="  192.940">  7 10 -1 -1</clus>
<clus scale="   50.334">  2  5  1 -1</clus>
</clustering>
</event>
<event>
10    4  0.2866397E-005  0.2329960E+03  0.7546771E-02  0.1168083E+00
          2   -1    0    0  502    0 -0.00000000000E+00  0.00000000000E+00  0.30298192494E+03  0.30298192494E+03  0.00000000000E+00 0. -1.
         21   -1    0    0  503  502  0.00000000000E+00 -0.00000000000E+00 -0.19893879209E+03  0.19893879209E+03  0.00000000000E+00 0. -1.
         24    2    1    2    0    0 -0.45051522925E+02  0.96917207287E+01 -0.15759779134E+02  0.93917060389E+02  0.80302393645E+02 0.  0.
         23    2    1    2    0    0 -0.86712317912E+02  0.49551206716E+02  0.15290305621E+03  0.20337803880E+03  0.89492647203E+02 0.  0.
        -13    1    3    3    0    0  0.21226231464E+02 -0.40050848171E+01  0.66891632032E+01  0.22612795292E+02  0.00000000000E+00 0.  1.
         14    1    3    3    0    0 -0.66277754389E+02  0.13696805546E+02 -0.22448942338E+02  0.71304265097E+02  0.00000000000E+00 0. -1.
        -13    1    4    4    0    0 -0.73348885231E+02  0.17396470485E+01  0.49008971419E+02  0.88232446503E+02  0.00000000000E+00 0. -1.
         13    1    4    4    0    0 -0.13363432682E+02  0.47811559668E+02  0.10389408479E+03  0.11514559230E+03  0.00000000000E+00 0.  1.
         21    1    1    2  503  501  0.79004015505E+02  0.16262614711E+02 -0.68622010186E+02  0.10590130965E+03  0.00000000000E+00 0. -1.
          1    1    1    2  501    0  0.52759825333E+02 -0.75505542156E+02  0.35521865962E+02  0.98724308186E+02  0.00000000000E+00 0. -1.
<scales pt_clust_5="13000.00000" pt_clust_6="13000.00000" pt_clust_7="13000.00000" pt_clust_8="13000.00000" pt_clust_9="80.66044" pt_clust_10="13000.00000"></scales>
<clustering>
<clus scale="   80.302">  5  6 -1 -1</clus>
<clus scale="   80.660">  2  9  1 -1</clus>
<clus scale="   82.463">  1  5  2 -1</clus>
<clus scale="   89.493">  7  8 -1 -1</clus>
<clus scale="   97.283">  7 10 -1 -1</clus>
<clus scale="   80.660">  2  5  1 -1</clus>
</clustering>
</event>
<event>
10    4  0.2866397E-005  0.1979357E+03  0.7546771E-02  0.1186364E+00
          2   -1    0    0  503    0 -0.00000000000E+00  0.00000000000E+00  0.32094370572E+03  0.32094370572E+03  0.00000000000E+00 0. -1.
         21   -1    0    0  501  502  0.00000000000E+00 -0.00000000000E+00 -0.18540772931E+03  0.18540772931E+03  0.00000000000E+00 0. -1.
         24    2    1    2    0    0  0.35274524486E+01 -0.30664291244E+02  0.15065817211E+03  0.17377473642E+03  0.80913735036E+02 0.  0.
         23    2    1    2    0    0  0.36169240005E+02 -0.43580599476E+02  0.49917836805E+02  0.98016909758E+02  0.62514331110E+02 0.  0.
        -11    1    3    3    0    0 -0.85571888537E+01  0.23401020114E+02  0.20320831426E+02  0.32152284729E+02  0.00000000000E+00 0.  1.
         12    1    3    3    0    0  0.12084641302E+02 -0.54065311358E+02  0.13033734068E+03  0.14162245170E+03  0.00000000000E+00 0. -1.
        -11    1    4    4    0    0  0.17459707543E+02 -0.34586926815E+02 -0.52262588103E+01  0.39094893211E+02  0.00000000000E+00 0. -1.
         11    1    4    4    0    0  0.18709532461E+02 -0.89936726608E+01  0.55144095615E+02  0.58922016548E+02  0.00000000000E+00 0.  1.
         21    1    1    2  503  502 -0.15114168687E+02 -0.45809909541E+02 -0.96635513089E+02  0.10800651970E+03  0.00000000000E+00 0. -1.
          1    1    1    2  501    0 -0.24582523766E+02  0.12005480026E+03  0.31595480579E+02  0.12655326915E+03  0.00000000000E+00 0. -1.
<scales pt_clust_5="13000.00000" pt_clust_6="13000.00000" pt_clust_7="13000.00000" pt_clust_8="13000.00000" pt_clust_9="48.23884" pt_clust_10="13000.00000"></scales>
<clustering>
<clus scale="   48.239">  2  9  1 -1</clus>
<clus scale="   62.514">  7  8 -1 -1</clus>
<clus scale="   80.914">  5  6 -1 -1</clus>
<clus scale="   88.999">  1  5  2 -1</clus>
<clus scale="   85.826">  7 10 -1 -1</clus>
<clus scale="   48.239">  2  5  1 -1</clus>
</clustering>
</event>
<event>
10    4  0.2866397E-005  0.3743853E+03  0.7546771E-02  0.1063746E+00
          2   -1    0    0  502    0 -0.00000000000E+00  0.00000000000E+00  0.10503346422E+04  0.10503346422E+04  0.00000000000E+00 0. -1.
         21   -1    0    0  503  502  0.00000000000E+00 -0.00000000000E+00 -0.20422891677E+03  0.20422891677E+03  0.00000000000E+00 0. -1.
         24    2    1    2    0    0 -0.26108233503E+03  0.99083824027E+02  0.74150711467E+03  0.79725507254E+03  0.88324740180E+02 0.  0.
         23    2    1    2    0    0  0.86320456547E+01  0.29894903271E+01  0.14759068867E+03  0.17292149724E+03  0.89640300990E+02 0.  0.
        -13    1    3    3    0    0 -0.10464662983E+03  0.47561740566E+02  0.42738364712E+03  0.44257182257E+03  0.00000000000E+00 0.  1.
         14    1    3    3    0    0 -0.15643570520E+03  0.51522083462E+02  0.31412346755E+03  0.35468324997E+03  0.00000000000E+00 0. -1.
        -13    1    4    4    0    0 -0.30700936913E+02 -0.20615502462E+02  0.10091620182E+03  0.10747849208E+03  0.00000000000E+00 0. -1.
         13    1    4    4    0    0  0.39332982568E+02  0.23604992789E+02  0.46674486843E+02  0.65443005160E+02  0.00000000000E+00 0.  1.
         21    1    1    2  503  501  0.76657280395E+02 -0.25128901868E+02 -0.45217398287E+02  0.92479259591E+02  0.00000000000E+00 0.  1.
          1    1    1    2  501    0  0.17579300898E+03 -0.76944412487E+02  0.22253203430E+01  0.19190772957E+03  0.00000000000E+00 0. -1.
<scales pt_clust_5="13000.00000" pt_clust_6="13000.00000" pt_clust_7="13000.00000" pt_clust_8="13000.00000" pt_clust_9="80.67094" pt_clust_10="13000.00000"></scales>
<clustering>
<clus scale="   80.671">  2  9  1 -1</clus>
<clus scale="   88.325">  5  6 -1 -1</clus>
<clus scale="   89.640">  7  8 -1 -1</clus>
<clus scale="  248.209">  7 10 -1 -1</clus>
<clus scale="  277.114">  1  5  2 -1</clus>
<clus scale="   80.671">  2  5  1 -1</clus>
</clustering>
</event>
<event>
10    4  0.2866397E-005  0.2514722E+03  0.7546771E-02  0.1141068E+00
          2   -1    0    0  502    0 -0.00000000000E+00  0.00000000000E+00  0.54510389387E+03  0.54510389387E+03  0.00000000000E+00 0. -1.
         21   -1    0    0  503  502  0.00000000000E+00 -0.00000000000E+00 -0.15775104409E+03  0.15775104409E+03  0.00000000000E+00 0. -1.
         24    2    1    2    0    0  0.91290043215E+02  0.28332409152E+02  0.34254234765E+03  0.36449204409E+03  0.79891131376E+02 0.  0.
         23    2    1    2    0    0 -0.59989137507E+02 -0.14166698731E+03  0.58980793725E+02  0.18794294316E+03  0.90418935755E+02 0.  0.
        -11    1    3    3    0    0  0.51305548777E+02 -0.25635715143E+02  0.16323217387E+03  0.17301500459E+03  0.00000000000E+00 0.  1.
         12    1    3    3    0    0  0.39984494437E+02  0.53968124295E+02  0.17931017378E+03  0.19147703950E+03  0.00000000000E+00 0. -1.
        -13    1    4    4    0    0  0.12665627800E+02 -0.85932675078E+02  0.30027895583E+02  0.91904936140E+02  0.00000000000E+00 0. -1.
         13    1    4    4    0    0 -0.72654765307E+02 -0.55734312233E+02  0.28952898141E+02  0.96038007021E+02  0.00000000000E+00 0.  1.
         21    1    1    2  503  501 -0.23753183058E+02  0.40554677067E+02 -0.50279123439E+02  0.68825037531E+02  0.00000000000E+00 0.  1.
          1    1    1    2  501    0 -0.75477226496E+01  0.72779901092E+02  0.36108831841E+02  0.81594913182E+02  0.00000000000E+00 0. -1.
<scales pt_clust_5="13000.00000" pt_clust_6="13000.00000" pt_clust_7="13000.00000" pt_clust_8="13000.00000" pt_clust_9="46.99889" pt_clust_10="13000.00000"></scales>
<clustering>
<clus scale="   46.999">  2  9  1 -1</clus>
<clus scale="   79.891">  5  6 -1 -1</clus>
<clus scale="   90.419">  7  8 -1 -1</clus>
<clus scale="   83.202">  7 10 -1 -1</clus>
<clus scale="  123.770">  1  5  2 -1</clus>
<clus scale="   46.999">  2  5  1 -1</clus>
</clustering>
</event>
<event>
10    4  0.2866397E-005  0.5524824E+03  0.7546771E-02  0.1018490E+00
         21   -1    0    0  501  502  0.00000000000E+00  0.00000000000E+00  0.11354329336E+03  0.11354329336E+03  0.00000000000E+00 0. -1.
          2   -1    0    0  503    0 -0.00000000000E+00 -0.00000000000E+00 -0.35048005076E+04  0.35048005076E+04  0.00000000000E+00 0. -1.
         24    2    1    2    0    0  0.21659782110E+03  0.22931427186E+03 -0.25453674447E+04  0.25661131490E+04  0.80880244304E+02 0.  0.
         23    2    1    2    0    0 -0.11531053408E+00  0.10354288414E+03 -0.44844873557E+03  0.46901162719E+03  0.90246860652E+02 0.  0.
        -11    1    3    3    0    0  0.54060806620E+02  0.31326756602E+02 -0.31930581341E+03  0.32536155115E+03  0.00000000000E+00 0.  1.
         12    1    3    3    0    0  0.16253701448E+03  0.19798751526E+03 -0.22260616312E+04  0.22407515979E+04  0.00000000000E+00 0. -1.
        -11    1    4    4    0    0 -0.21083617369E+02  0.11042033318E+03 -0.33271620876E+03  0.35119402682E+03  0.00000000000E+00 0. -1.
         11    1    4    4    0    0  0.20968306835E+02 -0.68774490411E+01 -0.11573252681E+03  0.11781760038E+03  0.00000000000E+00 0.  1.
         21    1    1    2  503  502  0.13542379672E+02 -0.71303348687E+02 -0.35124475679E+02  0.80630592041E+02  0.00000000000E+00 0. -1.
          1    1    1    2  501    0 -0.23002489024E+03 -0.26155380732E+03 -0.36231655836E+03  0.50258843273E+03  0.00000000000E+00 0. -1.
<scales pt_clust_5="13000.00000" pt_clust_6="13000.00000" pt_clust_7="13000.00000" pt_clust_8="13000.00000" pt_clust_9="72.57798" pt_clust_10="13000.00000"></scales>
<clustering>
<clus scale="   72.578">  1  9  2 -1</clus>
<clus scale="   80.880">  5  6 -1 -1</clus>
<clus scale="   90.247">  7  8 -1 -1</clus>
<clus scale="  321.005">  2  5  1 -1</clus>
<clus scale="  218.360">  7 10 -1 -1</clus>
<clus scale="   72.578">  1  5  2 -1</clus>
</clustering>
</event>
<event>
10    4  0.2866397E-005  0.4361770E+03  0.7546771E-02  0.1071457E+00
         21   -1    0    0  503  502  0.00000000000E+00  0.00000000000E+00  0.32636766968E+03  0.32636766968E+03  0.00000000000E+00 0. -1.
          2   -1    0    0  502    0 -0.00000000000E+00 -0.00000000000E+00 -0.10391259386E+04  0.10391259386E+04  0.00000000000E+00 0. -1.
         24    2    1    2    0    0  0.11833968759E+02  0.11889300705E+03 -0.68997903529E+03  0.70437166824E+03  0.76110366868E+02 0.  0.
         23    2    1    2    0    0 -0.11426700162E+03  0.16540700239E+03 -0.10544357258E+03  0.24960370812E+03  0.10376531218E+03 0.  0.
        -13    1    3    3    0    0 -0.84498275748E+01  0.50962802879E+02 -0.12944457952E+03  0.13937182653E+03  0.00000000000E+00 0.  1.
         14    1    3    3    0    0  0.20283796333E+02  0.67930204169E+02 -0.56053445576E+03  0.56499984171E+03  0.00000000000E+00 0. -1.
        -11    1    4    4    0    0  0.40438723325E+01  0.42519067864E+02  0.96962931010E+01  0.43797741213E+02  0.00000000000E+00 0.  1.
         11    1    4    4    0    0 -0.11831087395E+03  0.12288793452E+03 -0.11513986568E+03  0.20580596691E+03  0.00000000000E+00 0. -1.
         21    1    1    2  503  501  0.13576734738E+03 -0.80523356949E+02  0.12425239900E+03  0.20088664039E+03  0.00000000000E+00 0. -1.
          1    1    1    2  501    0 -0.33334314518E+02 -0.20377665248E+03 -0.41588060092E+02  0.21063159156E+03  0.00000000000E+00 0. -1.
<scales pt_clust_5="13000.00000" pt_clust_6="13000.00000" pt_clust_7="13000.00000" pt_clust_8="13000.00000" pt_clust_9="152.67794" pt_clust_10="13000.00000"></scales>
<clustering>
<clus scale="   76.110">  5  6 -1 -1</clus>
<clus scale="  103.765">  7  8 -1 -1</clus>
<clus scale="  141.663">  2  5  1 -1</clus>
<clus scale="  152.678">  1  9  2 -1</clus>
<clus scale="  184.829">  7 10 -1 -1</clus>
<clus scale="  152.678">  1  5  2 -1</clus>
</clustering>
</event>
<event>
10    4  0.2866397E-005  0.4714568E+03  0.7546771E-02  0.1082046E+00
          2   -1    0    0  502    0 -0.00000000000E+00  0.00000000000E+00  0.39146134702E+03  0.39146134702E+03  0.00000000000E+00 0. -1.
         21   -1    0    0  503  502  0.00000000000E+00 -0.00000000000E+00 -0.26754183880E+03  0.26754183880E+03  0.00000000000E+00 0. -1.
         24    2    1    2    0    0 -0.28261674938E+02  0.10442333285E+02  0.97267073971E+02  0.12823005024E+03  0.77937779738E+02 0.  0.
         23    2    1    2    0    0 -0.13544573875E+03  0.20308824813E+02 -0.14111646432E+03  0.21653364899E+03  0.90636461377E+02 0.  0.
        -11    1    3    3    0    0  0.21848902304E+02  0.21283595744E+02  0.49579211543E+02  0.58210516206E+02  0.00000000000E+00 0.  1.
         12    1    3    3    0    0 -0.50110577242E+02 -0.10841262459E+02  0.47687862428E+02  0.70019534033E+02  0.00000000000E+00 0. -1.
        -13    1    4    4    0    0 -0.52453302655E+02  0.13901565248E+02 -0.11841158858E+03  0.13025324098E+03  0.00000000000E+00 0.  1.
         13    1    4    4    0    0 -0.82992436094E+02  0.64072595644E+01 -0.22704875746E+02  0.86280408012E+02  0.00000000000E+00 0. -1.
         21    1    1    2  503  501 -0.62177947924E+01  0.51747262315E+02 -0.11992611790E+02  0.53481425436E+02  0.00000000000E+00 0. -1.
          1    1    1    2  501    0  0.16992520848E+03 -0.82498420412E+02  0.17976151037E+03  0.26075806115E+03  0.00000000000E+00 0. -1.
<scales pt_clust_5="13000.00000" pt_clust_6="13000.00000" pt_clust_7="13000.00000" pt_clust_8="13000.00000" pt_clust_9="52.11948" pt_clust_10="13000.00000"></scales>
<clustering>
<clus scale="   52.119">  2  9  1 -1</clus>
<clus scale="   77.938">  5  6 -1 -1</clus>
<clus scale="   84.192">  1  5  2 -1</clus>
<clus scale="   90.636">  7  8 -1 -1</clus>
<clus scale="  159.633">  7 10 -1 -1</clus>
<clus scale="   52.119">  2  5  1 -1</clus>
</clustering>
</event>
<event>
10    4  0.2866397E-005  0.4707925E+03  0.7546771E-02  0.1080207E+00
          2   -1    0    0  502    0 -0.00000000000E+00  0.00000000000E+00  0.84738169578E+03  0.84738169578E+03  0.00000000000E+00 0. -1.
         21   -1    0    0  503  502  0.00000000000E+00 -0.00000000000E+00 -0.19981643700E+03  0.19981643700E+03  0.00000000000E+00 0. -1.
         24    2    1    2    0    0  0.49974240418E+02 -0.18426523469E+02  0.72477145009E+02  0.12024274408E+03  0.79802377679E+02 0.  0.
         23    2    1    2    0    0  0.23061550132E+03 -0.20942357770E+02  0.35274933024E+03  0.43162380608E+03  0.90801586918E+02 0.  0.
        -11    1    3    3    0    0  0.43409002750E+02  0.17065565957E+02  0.94180977713E+01  0.47584405290E+02  0.00000000000E+00 0.  1.
         12    1    3    3    0    0  0.65652376671E+01 -0.35492089426E+02  0.63059047237E+02  0.72658338792E+02  0.00000000000E+00 0. -1.
        -11    1    4    4    0    0  0.21641453511E+03  0.77123645552E+01  0.31292481817E+03  0.38054785953E+03  0.00000000000E+00 0. -1.
         11    1    4    4    0    0  0.14200966215E+02 -0.28654722326E+02  0.39824512078E+02  0.51075946543E+02  0.00000000000E+00 0.  1.
         21    1    1    2  503  501 -0.62816805475E+02  0.23867357906E+01 -0.91827517032E+02  0.11128315435E+03  0.00000000000E+00 0. -1.
          1    1    1    2  501    0 -0.21777293626E+03  0.36982145449E+02  0.31416630056E+03  0.38404842827E+03  0.00000000000E+00 0. -1.
<scales pt_clust_5="13000.00000" pt_clust_6="13000.00000" pt_clust_7="13000.00000" pt_clust_8="13000.00000" pt_clust_9="62.86213" pt_clust_10="13000.00000"></scales>
<clustering>
<clus scale="   62.862">  2  9  1 -1</clus>
<clus scale="   79.802">  5  6 -1 -1</clus>
<clus scale="   88.834">  1  5  2 -1</clus>
<clus scale="   90.802">  7  8 -1 -1</clus>
<clus scale="  222.273">  7 10 -1 -1</clus>
<clus scale="   62.862">  2  5  1 -1</clus>
</clustering>
</event>
<event>
10    4  0.2866397E-005  0.2572859E+03  0.7546771E-02  0.1118760E+00
         21   -1    0    0  503  502  0.00000000000E+00  0.00000000000E+00  0.19877250721E+03  0.19877250721E+03  0.00000000000E+00 0. -1.
          2   -1    0    0  502    0 -0.00000000000E+00 -0.00000000000E+00 -0.76462594592E+03  0.76462594592E+03  0.00000000000E+00 0. -1.
         24    2    1    2    0    0  0.11548609635E+03  0.23851055945E+03 -0.16324261231E+03  0.32300925221E+03  0.86385769198E+02 0.  0.
         23    2    1    2    0    0 -0.46322535591E+02 -0.17177935697E+02 -0.89953715751E+02  0.13752389815E+03  0.91543939217E+02 0.  0.
        -13    1    3    3    0    0 -0.11180217125E+02  0.35259153522E+02 -0.36853014792E+02  0.52214460270E+02  0.00000000000E+00 0.  1.
         14    1    3    3    0    0  0.12666631347E+03  0.20325140593E+03 -0.12638959752E+03  0.27079479194E+03  0.00000000000E+00 0. -1.
        -13    1    4    4    0    0  0.20089269604E+01  0.29983739033E+02 -0.52003466055E+02  0.60061808795E+02  0.00000000000E+00 0.  1.
         13    1    4    4    0    0 -0.48331462551E+02 -0.47161674731E+02 -0.37950249696E+02  0.77462089358E+02  0.00000000000E+00 0. -1.
         21    1    1    2  503  501  0.19919162012E+02 -0.15945716767E+03  0.11437283225E+02  0.16110298813E+03  0.00000000000E+00 0. -1.
          1    1    1    2  501    0 -0.89082722769E+02 -0.61875456080E+02 -0.32409439389E+03  0.34176231464E+03  0.00000000000E+00 0. -1.
<scales pt_clust_5="13000.00000" pt_clust_6="13000.00000" pt_clust_7="13000.00000" pt_clust_8="13000.00000" pt_clust_9="160.69649" pt_clust_10="13000.00000"></scales>
<clustering>
<clus scale="   86.386">  5  6 -1 -1</clus>
<clus scale="   91.544">  7  8 -1 -1</clus>
<clus scale="  108.463">  7 10 -1 -1</clus>
<clus scale="  160.696">  1  9  2 -1</clus>
<clus scale="  199.908">  2  5  1 -1</clus>
<clus scale="  160.696">  1  5  2 -1</clus>
</clustering>
</event>
<event>
10    4  0.2866397E-005  0.2880173E+03  0.7546771E-02  0.1140147E+00
         21   -1    0    0  501  502  0.00000000000E+00  0.00000000000E+00  0.48086884672E+02  0.48086884672E+02  0.00000000000E+00 0. -1.
          2   -1    0    0  503    0 -0.00000000000E+00 -0.00000000000E+00 -0.15228603642E+04  0.15228603642E+04  0.00000000000E+00 0. -1.
         24    2    1    2    0    0  0.16728047779E+02  0.30433884137E+01 -0.22937630335E+03  0.24435205805E+03  0.82494544912E+02 0.  0.
         23    2    1    2    0    0 -0.61135812164E+01 -0.31962079605E+02 -0.74017100641E+02  0.12294634619E+03  0.92619233671E+02 0.  0.
        -11    1    3    3    0    0  0.39313328876E+02  0.24268015056E+02 -0.18174267258E+03  0.18752299437E+03  0.00000000000E+00 0.  1.
         12    1    3    3    0    0 -0.22585281097E+02 -0.21224626642E+02 -0.47633630770E+02  0.56829063679E+02  0.00000000000E+00 0. -1.
        -13    1    4    4    0    0  0.27960303831E+02 -0.72033050351E+01 -0.75467394882E+02  0.80802189846E+02  0.00000000000E+00 0.  1.
         13    1    4    4    0    0 -0.34073885047E+02 -0.24758774570E+02  0.14502942402E+01  0.42144156342E+02  0.00000000000E+00 0. -1.
         21    1    1    2  503  502 -0.30504924226E+02  0.15019883139E+03 -0.60811022334E+03  0.62712700714E+03  0.00000000000E+00 0. -1.
          1    1    1    2  501    0  0.19890457663E+02 -0.12128014020E+03 -0.56326985222E+03  0.57652183752E+03  0.00000000000E+00 0. -1.
<scales pt_clust_5="13000.00000" pt_clust_6="13000.00000" pt_clust_7="13000.00000" pt_clust_8="13000.00000" pt_clust_9="153.31623" pt_clust_10="13000.00000"></scales>
<clustering>
<clus scale="   82.495">  5  6 -1 -1</clus>
<clus scale="   84.229">  2  5  1 -1</clus>
<clus scale="   92.619">  7  8 -1 -1</clus>
<clus scale="  123.000">  7 10 -1 -1</clus>
<clus scale="  153.316">  1  9  2 -1</clus>
<clus scale="  153.316">  1  5  2 -1</clus>
</clustering>
</event>
<event>
10    4  0.2866397E-005  0.3132512E+03  0.7546771E-02  0.1127668E+00
          2   -1    0    0  502    0 -0.00000000000E+00  0.00000000000E+00  0.40146117195E+03  0.40146117195E+03  0.00000000000E+00 0. -1.
         21   -1    0    0  503  502  0.00000000000E+00 -0.00000000000E+00 -0.14067789442E+03  0.14067789442E+03  0.00000000000E+00 0. -1.
         24    2    1    2    0    0  0.29244388940E+02  0.29145507051E+02  0.11045978261E+03  0.14282569704E+03  0.80579906277E+02 0.  0.
         23    2    1    2    0    0  0.47034188149E+02 -0.27262829570E+01 -0.58519972427E+02  0.11894126929E+03  0.92210579080E+02 0.  0.
        -11    1    3    3    0    0  0.31865650359E+01 -0.27549251531E+02  0.40472011745E+02  0.49062197172E+02  0.00000000000E+00 0.  1.
         12    1    3    3    0    0  0.26057823904E+02  0.56694758582E+02  0.69987770863E+02  0.93763499869E+02  0.00000000000E+00 0. -1.
        -11    1    4    4    0    0  0.49471167197E+02 -0.33539113568E+02 -0.63979598923E+02  0.87553741217E+02  0.00000000000E+00 0. -1.
         11    1    4    4    0    0 -0.24369790479E+01  0.30812830611E+02  0.54596264963E+01  0.31387528075E+02  0.00000000000E+00 0.  1.
         21    1    1    2  503  501  0.36701077052E+01 -0.47432372107E+02 -0.80585235188E+01  0.48251833287E+02  0.00000000000E+00 0.  1.
          1    1    1    2  501    0 -0.79948684794E+02  0.21013148014E+02  0.21690199087E+03  0.23212026674E+03  0.00000000000E+00 0. -1.
<scales pt_clust_5="13000.00000" pt_clust_6="13000.00000" pt_clust_7="13000.00000" pt_clust_8="13000.00000" pt_clust_9="47.57415" pt_clust_10="13000.00000"></scales>
<clustering>
<clus scale="   47.574">  2  9  1 -1</clus>
<clus scale="   80.580">  5  6 -1 -1</clus>
<clus scale="   88.757">  1  5  2 -1</clus>
<clus scale="   92.211">  7  8 -1 -1</clus>
<clus scale="   66.315">  7 10 -1 -1</clus>
<clus scale="   47.574">  2  5  1 -1</clus>
</clustering>
</event>
<event>
10    4  0.2866397E-005  0.5244700E+03  0.7546771E-02  0.1058938E+00
          2   -1    0    0  502    0 -0.00000000000E+00  0.00000000000E+00  0.23767975237E+04  0.23767975237E+04  0.00000000000E+00 0. -1.
         21   -1    0    0  503  502  0.00000000000E+00 -0.00000000000E+00 -0.40218476556E+03  0.40218476556E+03  0.00000000000E+00 0.  1.
         24    2    1    2    0    0  0.21826218903E+02  0.81843269069E+02  0.12422951948E+03  0.17028420534E+03  0.79931424073E+02 0.  0.
         23    2    1    2    0    0 -0.22832019376E+03 -0.26139805482E+01  0.11827568938E+04  0.12081146091E+04  0.92141712685E+02 0.  0.
        -13    1    3    3    0    0  0.45176026875E+02  0.77651074592E+02  0.11205147742E+03  0.14361788322E+03  0.00000000000E+00 0.  1.
         14    1    3    3    0    0 -0.23349807972E+02  0.41921944771E+01  0.12178042065E+02  0.26666322120E+02  0.00000000000E+00 0. -1.
        -11    1    4    4    0    0 -0.72862428588E+02  0.41999931511E+02  0.43755550968E+03  0.44556453158E+03  0.00000000000E+00 0.  1.
         11    1    4    4    0    0 -0.15545776517E+03 -0.44613912059E+02  0.74520138408E+03  0.76255007753E+03  0.00000000000E+00 0. -1.
         21    1    1    2  503  501 -0.56271307762E+02  0.27993068679E+01 -0.34583967983E+03  0.35039888747E+03  0.00000000000E+00 0.  1.
          1    1    1    2  501    0  0.26276528262E+03 -0.82028595389E+02  0.10134660247E+04  0.10501845873E+04  0.00000000000E+00 0. -1.
<scales pt_clust_5="13000.00000" pt_clust_6="13000.00000" pt_clust_7="13000.00000" pt_clust_8="13000.00000" pt_clust_9="56.34089" pt_clust_10="13000.00000"></scales>
<clustering>
<clus scale="   56.341">  2  9  1 -1</clus>
<clus scale="   79.931">  5  6 -1 -1</clus>
<clus scale="   92.142">  7  8 -1 -1</clus>
<clus scale="  115.276">  1  5  2 -1</clus>
<clus scale="  247.366">  7 10 -1 -1</clus>
<clus scale="   56.341">  2  5  1 -1</clus>
</clustering>
</event>
<event>
10    4  0.2866397E-005  0.2698007E+03  0.7546771E-02  0.1121358E+00
         21   -1    0    0  501  502  0.00000000000E+00  0.00000000000E+00  0.11305807159E+04  0.11305807159E+04  0.00000000000E+00 0. -1.
          2   -1    0    0  503    0 -0.00000000000E+00 -0.00000000000E+00 -0.54680131716E+02  0.54680131716E+02  0.00000000000E+00 0. -1.
         24    2    1    2    0    0  0.94818962361E+02  0.95976291367E+02  0.60403189439E+03  0.62408169726E+03  0.80133334453E+02 0.  0.
         23    2    1    2    0    0 -0.43682234573E+01 -0.12038524069E+03  0.25177382738E+03  0.29391675987E+03  0.92115764243E+02 0.  0.
        -11    1    3    3    0    0  0.15474160227E+02 -0.14086072873E+02  0.95010509620E+02  0.97287532716E+02  0.00000000000E+00 0.  1.
         12    1    3    3    0    0  0.79344802134E+02  0.11006236424E+03  0.50902138477E+03  0.52679416455E+03  0.00000000000E+00 0. -1.
        -13    1    4    4    0    0 -0.27437738827E+02 -0.12438379606E+03  0.22307670143E+03  0.25688007505E+03  0.00000000000E+00 0. -1.
         13    1    4    4    0    0  0.23069515370E+02  0.39985553701E+01  0.28697125953E+02  0.37036684819E+02  0.00000000000E+00 0.  1.
         21    1    1    2  503  502  0.25591168610E+02 -0.11049698439E+02  0.24625548813E+02  0.37194373241E+02  0.00000000000E+00 0.  1.
          1    1    1    2  501    0 -0.11604190751E+03  0.35458647762E+02  0.19546931357E+03  0.23006801722E+03  0.00000000000E+00 0. -1.
<scales pt_clust_5="13000.00000" pt_clust_6="13000.00000" pt_clust_7="13000.00000" pt_clust_8="13000.00000" pt_clust_9="27.87480" pt_clust_10="13000.00000"></scales>
<clustering>
<clus scale="   27.875">  1  9  2 -1</clus>
<clus scale="   80.133">  5  6 -1 -1</clus>
<clus scale="   92.116">  7  8 -1 -1</clus>
<clus scale="  115.980">  7 10 -1 -1</clus>
<clus scale="  162.454">  2  5  1 -1</clus>
<clus scale="   27.875">  1  5  2 -1</clus>
</clustering>
</event>
<event>
10    4  0.2866397E-005  0.4024075E+03  0.7546771E-02  0.1069473E+00
          2   -1    0    0  502    0 -0.00000000000E+00  0.00000000000E+00  0.79657595399E+03  0.79657595399E+03  0.00000000000E+00 0. -1.
         21   -1    0    0  503  502  0.00000000000E+00 -0.00000000000E+00 -0.21863050944E+03  0.21863050944E+03  0.00000000000E+00 0. -1.
         24    2    1    2    0    0  0.16394600408E+03  0.15573057948E+02  0.34934166548E+00  0.18351686764E+03  0.80978430957E+02 0.  0.
         23    2    1    2    0    0 -0.14674053711E+03  0.16523565324E+03  0.42047750210E+03  0.48378291168E+03  0.91700433653E+02 0.  0.
        -13    1    3    3    0    0  0.11929506676E+03 -0.77193849139E+01  0.32355489272E+02  0.12384578936E+03  0.00000000000E+00 0.  1.
         14    1    3    3    0    0  0.44650937323E+02  0.23292442862E+02 -0.32006147606E+02  0.59671078279E+02  0.00000000000E+00 0. -1.
        -11    1    4    4    0    0 -0.26210651656E+02  0.13483661665E+02  0.13869451955E+03  0.14179202074E+03  0.00000000000E+00 0.  1.
         11    1    4    4    0    0 -0.12052988545E+03  0.15175199158E+03  0.28178298255E+03  0.34199089094E+03  0.00000000000E+00 0. -1.
         21    1    1    2  503  501  0.13837653443E+02 -0.20421280897E+02 -0.66525030229E+02  0.70951314387E+02  0.00000000000E+00 0.  1.
          1    1    1    2  501    0 -0.31043120415E+02 -0.16038743029E+03  0.22364363102E+03  0.27695536972E+03  0.00000000000E+00 0. -1.
<scales pt_clust_5="13000.00000" pt_clust_6="13000.00000" pt_clust_7="13000.00000" pt_clust_8="13000.00000" pt_clust_9="24.66798" pt_clust_10="13000.00000"></scales>
<clustering>
<clus scale="   24.668">  2  9  1 -1</clus>
<clus scale="   80.978">  5  6 -1 -1</clus>
<clus scale="   91.700">  7  8 -1 -1</clus>
<clus scale="  166.491">  7 10 -1 -1</clus>
<clus scale="  190.497">  1  5  2 -1</clus>
<clus scale="   24.668">  2  5  1 -1</clus>
</clustering>
</event>
<event>
10    4  0.2866397E-005  0.2946325E+03  0.7546771E-02  0.1129569E+00
         21   -1    0    0  501  502  0.00000000000E+00  0.00000000000E+00  0.11651503567E+03  0.11651503567E+03  0.00000000000E+00 0. -1.
          2   -1    0    0  503    0 -0.00000000000E+00 -0.00000000000E+00 -0.96609926113E+03  0.96609926113E+03  0.00000000000E+00 0. -1.
         24    2    1    2    0    0  0.59066473968E+02  0.11071473537E+02 -0.21301230569E+03  0.23608504973E+03  0.82161319731E+02 0.  0.
         23    2    1    2    0    0  0.71900947911E+02  0.17681406987E+03 -0.31296930036E+03  0.37784172830E+03  0.91551226433E+02 0.  0.
        -13    1    3    3    0    0 -0.80031717858E+01  0.30654569129E+02 -0.59115704312E+02  0.67070260648E+02  0.00000000000E+00 0.  1.
         14    1    3    3    0    0  0.67069645754E+02 -0.19583095592E+02 -0.15389660137E+03  0.16901478908E+03  0.00000000000E+00 0. -1.
        -13    1    4    4    0    0 -0.20120262552E+02  0.40288289228E+02 -0.47435985386E+02  0.65407521919E+02  0.00000000000E+00 0.  1.
         13    1    4    4    0    0  0.92021210463E+02  0.13652578065E+03 -0.26553331497E+03  0.31243420638E+03  0.00000000000E+00 0. -1.
         21    1    1    2  503  502 -0.82459389744E+02 -0.21646114905E+03 -0.12696626906E+03  0.26415036151E+03  0.00000000000E+00 0. -1.
          1    1    1    2  501    0 -0.48508032135E+02  0.28575605643E+02 -0.19663635035E+03  0.20453715725E+03  0.00000000000E+00 0. -1.
<scales pt_clust_5="13000.00000" pt_clust_6="13000.00000" pt_clust_7="13000.00000" pt_clust_8="13000.00000" pt_clust_9="223.77049" pt_clust_10="13000.00000"></scales>
<clustering>
<clus scale="   82.161">  5  6 -1 -1</clus>
<clus scale="   91.551">  7  8 -1 -1</clus>
<clus scale="   56.299">  7 10 -1 -1</clus>
<clus scale="  101.793">  2  5  1 -1</clus>
<clus scale="  223.770">  1  9  2 -1</clus>
<clus scale="  223.770">  1  5  2 -1</clus>
</clustering>
</event>
<event>
10    4  0.2866397E-005  0.3780911E+03  0.7546771E-02  0.1099458E+00
          2   -1    0    0  503    0 -0.00000000000E+00  0.00000000000E+00  0.16509799882E+04  0.16509799882E+04  0.00000000000E+00 0. -1.
         21   -1    0    0  501  502  0.00000000000E+00 -0.00000000000E+00 -0.35670819565E+03  0.35670819565E+03  0.00000000000E+00 0. -1.
         24    2    1    2    0    0 -0.33695978986E+02  0.51651221175E+02  0.35267399135E+03  0.36742967938E+03  0.82597563314E+02 0.  0.
         23    2    1    2    0    0 -0.20205057809E+03 -0.10208335618E+03  0.71760496191E+03  0.75800439162E+03  0.91478569283E+02 0.  0.
        -13    1    3    3    0    0  0.24450147574E+02  0.12892603177E+02  0.53684300127E+02  0.60382389926E+02  0.00000000000E+00 0.  1.
         14    1    3    3    0    0 -0.58146126560E+02  0.38758617998E+02  0.29898969122E+03  0.30704728945E+03  0.00000000000E+00 0. -1.
        -13    1    4    4    0    0 -0.23293775334E+02  0.12991514045E+02  0.42119498077E+02  0.49854102386E+02  0.00000000000E+00 0.  1.
         13    1    4    4    0    0 -0.17875680275E+03 -0.11507487022E+03  0.67548546384E+03  0.70815028923E+03  0.00000000000E+00 0. -1.
         21    1    1    2  503  502  0.19748684586E+03 -0.48471243382E+02 -0.29180417528E+03  0.35566865540E+03  0.00000000000E+00 0. -1.
          1    1    1    2  501    0  0.38259711213E+02  0.98903378382E+02  0.51579701455E+03  0.52658545743E+03  0.00000000000E+00 0. -1.
<scales pt_clust_5="13000.00000" pt_clust_6="13000.00000" pt_clust_7="13000.00000" pt_clust_8="13000.00000" pt_clust_9="202.23693" pt_clust_10="13000.00000"></scales>
<clustering>
<clus scale="   82.598">  5  6 -1 -1</clus>
<clus scale="   91.479">  7  8 -1 -1</clus>
<clus scale="  103.081">  1  5  2 -1</clus>
<clus scale="  122.268">  7 10 -1 -1</clus>
<clus scale="  202.237">  2  9  1 -1</clus>
<clus scale="  202.237">  2  5  1 -1</clus>
</clustering>
</event>
<event>
10    4  0.2866397E-005  0.3042618E+03  0.7546771E-02  0.1113012E+00
          2   -1    0    0  502    0 -0.00000000000E+00  0.00000000000E+00  0.60530586632E+03  0.60530586632E+03  0.00000000000E+00 0. -1.
         21   -1    0    0  503  502  0.00000000000E+00 -0.00000000000E+00 -0.14332361255E+03  0.14332361255E+03  0.00000000000E+00 0.  1.
         24    2    1    2    0    0 -0.43784763732E+02 -0.11360263859E+03  0.14065648861E+03  0.20258524769E+03  0.80211406705E+02 0.  0.
         23    2    1    2    0    0 -0.84034124053E+02  0.81583951884E+01  0.80752599425E+02  0.15085236270E+03  0.95431439274E+02 0.  0.
        -11    1    3    3    0    0 -0.12523265768E+02 -0.10217213542E+03  0.13343429824E+03  0.16852504083E+03  0.00000000000E+00 0.  1.
         12    1    3    3    0    0 -0.31261497964E+02 -0.11430503173E+02  0.72221903716E+01  0.34060206862E+02  0.00000000000E+00 0. -1.
        -13    1    4    4    0    0 -0.66613070047E+02  0.37394812924E+02  0.87502075485E+02  0.11615630137E+03  0.00000000000E+00 0.  1.
         13    1    4    4    0    0 -0.17421054006E+02 -0.29236417735E+02 -0.67494760604E+01  0.34696061329E+02  0.00000000000E+00 0. -1.
         21    1    1    2  503  501  0.11025308115E+02  0.16903780474E+02 -0.58638126884E+02  0.62013910841E+02  0.00000000000E+00 0.  1.
          1    1    1    2  501    0  0.11679357967E+03  0.88540462926E+02  0.29921129262E+03  0.33317795764E+03  0.00000000000E+00 0. -1.
<scales pt_clust_5="13000.00000" pt_clust_6="13000.00000" pt_clust_7="13000.00000" pt_clust_8="13000.00000" pt_clust_9="20.18156" pt_clust_10="13000.00000"></scales>
<clustering>
<clus scale="   20.182">  2  9  1 -1</clus>
<clus scale="   80.211">  5  6 -1 -1</clus>
<clus scale="   95.431">  7  8 -1 -1</clus>
<clus scale="  139.715">  1  5  2 -1</clus>
<clus scale="   90.196">  7 10 -1 -1</clus>
<clus scale="   20.182">  2  5  1 -1</clus>
</clustering>
</event>
<event>
10    4  0.2866397E-005  0.2126402E+03  0.7546771E-02  0.1171550E+00
          2   -1    0    0  502    0 -0.00000000000E+00  0.00000000000E+00  0.66635424149E+03  0.66635424149E+03  0.00000000000E+00 0. -1.
         21   -1    0    0  503  502  0.00000000000E+00 -0.00000000000E+00 -0.45816065835E+03  0.45816065835E+03  0.00000000000E+00 0. -1.
         24    2    1    2    0    0 -0.18015347687E+02  0.57102240825E+02  0.28102042674E+03  0.29835323510E+03  0.80355174019E+02 0.  0.
         23    2    1    2    0    0 -0.78655007255E+01 -0.32665242874E+02  0.11317243294E+03  0.14798684221E+03  0.89236885284E+02 0.  0.
        -13    1    3    3    0    0  0.48836886638E+01  0.24319127268E+02  0.14258565431E+02  0.28610785627E+02  0.00000000000E+00 0.  1.
         14    1    3    3    0    0 -0.22899036350E+02  0.32783113556E+02  0.26676186130E+03  0.26974244947E+03  0.00000000000E+00 0. -1.
        -11    1    4    4    0    0 -0.34019124682E+02 -0.52478745141E+02  0.74479638659E+02  0.97255005581E+02  0.00000000000E+00 0.  1.
         11    1    4    4    0    0  0.26153623957E+02  0.19813502268E+02  0.38692794284E+02  0.50731836628E+02  0.00000000000E+00 0. -1.
         21    1    1    2  503  501 -0.60841493083E+02  0.10292236187E+03 -0.39829733331E+03  0.41585510166E+03  0.00000000000E+00 0. -1.
          1    1    1    2  501    0  0.86722341495E+02 -0.12735935982E+03  0.21229805678E+03  0.26231972087E+03  0.00000000000E+00 0. -1.
<scales pt_clust_5="13000.00000" pt_clust_6="13000.00000" pt_clust_7="13000.00000" pt_clust_8="13000.00000" pt_clust_9="120.92019" pt_clust_10="13000.00000"></scales>
<clustering>
<clus scale="   80.355">  5  6 -1 -1</clus>
<clus scale="   89.237">  7  8 -1 -1</clus>
<clus scale="  100.211">  1  5  2 -1</clus>
<clus scale="  118.457">  7 10 -1 -1</clus>
<clus scale="  120.920">  2  9  1 -1</clus>
<clus scale="  120.920">  2  5  1 -1</clus>
</clustering>
</event>
<event>
10    4  0.2866397E-005  0.2861780E+03  0.7546771E-02  0.1109991E+00
          2   -1    0    0  503    0 -0.00000000000E+00  0.00000000000E+00  0.19625389564E+04  0.19625389564E+04  0.00000000000E+00 0. -1.
         21   -1    0    0  501  502  0.00000000000E+00 -0.00000000000E+00 -0.42575365920E+02  0.42575365920E+02  0.00000000000E+00 0.  1.
         24    2    1    2    0    0  0.15313575983E+02  0.17081849110E+03  0.53326148393E+03  0.56598550304E+03  0.80983435941E+02 0.  0.
         23    2    1    2    0    0  0.55333095924E+02 -0.16049086531E+02  0.35979757747E+03  0.37564420000E+03  0.91295912055E+02 0.  0.
        -13    1    3    3    0    0 -0.14909948022E+02  0.12227574991E+03  0.43691489924E+03  0.45394745813E+03  0.00000000000E+00 0.  1.
         14    1    3    3    0    0  0.30223524005E+02  0.48542741186E+02  0.96346584687E+02  0.11203804490E+03  0.00000000000E+00 0. -1.
        -13    1    4    4    0    0  0.11744925408E+02  0.36067856294E+02  0.95598924361E+02  0.10284934550E+03  0.00000000000E+00 0.  1.
         13    1    4    4    0    0  0.43588170516E+02 -0.52116942825E+02  0.26419865311E+03  0.27279485450E+03  0.00000000000E+00 0. -1.
         21    1    1    2  503  502  0.16653479967E+02 -0.19487915176E+02  0.16740405668E+01  0.25688901198E+02  0.00000000000E+00 0.  1.
          1    1    1    2  501    0 -0.87300151874E+02 -0.13528148939E+03  0.10252304885E+04  0.10377957181E+04  0.00000000000E+00 0. -1.
<scales pt_clust_5="13000.00000" pt_clust_6="13000.00000" pt_clust_7="13000.00000" pt_clust_8="13000.00000" pt_clust_9="25.63430" pt_clust_10="13000.00000"></scales>
<clustering>
<clus scale="   25.634">  2  9  1 -1</clus>
<clus scale="   80.983">  5  6 -1 -1</clus>
<clus scale="   91.296">  7  8 -1 -1</clus>
<clus scale="  162.592">  7 10 -1 -1</clus>
<clus scale="  181.299">  1  5  2 -1</clus>
<clus scale="   25.634">  2  5  1 -1</clus>
</clustering>
</event>
<event>
10    4  0.2866397E-005  0.3344893E+03  0.7546771E-02  0.1099801E+00
          2   -1    0    0  503    0 -0.00000000000E+00  0.00000000000E+00  0.58549122756E+03  0.58549122756E+03  0.00000000000E+00 0. -1.
         21   -1    0    0  501  502  0.00000000000E+00 -0.00000000000E+00 -0.13208864680E+03  0.13208864680E+03  0.00000000000E+00 0.  1.
         24    2    1    2    0    0 -0.10709216418E+01  0.12422201131E+03  0.24118415009E+03  0.28306763486E+03  0.80778937118E+02 0.  0.
         23    2    1    2    0    0 -0.20932639264E+02  0.49156158326E+02 -0.78921498101E+01  0.11289653863E+03  0.99140501902E+02 0.  0.
        -13    1    3    3    0    0  0.37959188728E+01  0.10886377888E+03  0.24353465045E+03  0.26678616404E+03  0.00000000000E+00 0.  1.
         14    1    3    3    0    0 -0.48668405146E+01  0.15358232430E+02 -0.23505003640E+01  0.16281470816E+02  0.00000000000E+00 0. -1.
        -13    1    4    4    0    0 -0.21082930649E+02  0.20254919223E+02  0.44392851818E+02  0.53155216207E+02  0.00000000000E+00 0. -1.
         13    1    4    4    0    0  0.15029138509E+00  0.28901239103E+02 -0.52285001628E+02  0.59741322420E+02  0.00000000000E+00 0.  1.
         21    1    1    2  503  502 -0.36226855746E+02 -0.53113749974E+01 -0.24681670725E+01  0.36697242816E+02  0.00000000000E+00 0.  1.
          1    1    1    2  501    0  0.58230416652E+02 -0.16806679464E+03  0.22257874755E+03  0.28491845806E+03  0.00000000000E+00 0. -1.
<scales pt_clust_5="13000.00000" pt_clust_6="13000.00000" pt_clust_7="13000.00000" pt_clust_8="13000.00000" pt_clust_9="36.61415" pt_clust_10="13000.00000"></scales>
<clustering>
<clus scale="   36.614">  2  9  1 -1</clus>
<clus scale="   80.779">  5  6 -1 -1</clus>
<clus scale="   99.141">  7  8 -1 -1</clus>
<clus scale="  147.556">  1  5  2 -1</clus>
<clus scale="   84.251">  7 10 -1 -1</clus>
<clus scale="   36.614">  2  5  1 -1</clus>
</clustering>
</event>
<event>
10    4  0.2866397E-005  0.3137936E+03  0.7546771E-02  0.1113549E+00
         21   -1    0    0  503  502  0.00000000000E+00  0.00000000000E+00  0.17915818563E+03  0.17915818563E+03  0.00000000000E+00 0. -1.
          2   -1    0    0  502    0 -0.00000000000E+00 -0.00000000000E+00 -0.61283827535E+03  0.61283827535E+03  0.00000000000E+00 0. -1.
         24    2    1    2    0    0  0.55561450571E+02 -0.45337859401E+02  0.69855929690E+02  0.12786081501E+03  0.79535783247E+02 0.  0.
         23    2    1    2    0    0  0.22403827954E+02  0.12157471299E+03 -0.37393020816E+03  0.40422309532E+03  0.91050358970E+02 0.  0.
        -11    1    3    3    0    0  0.62870793919E+02 -0.43207172757E+01  0.28524088019E+02  0.69173903483E+02  0.00000000000E+00 0.  1.
         12    1    3    3    0    0 -0.73093433475E+01 -0.41017142126E+02  0.41331841671E+02  0.58686911524E+02  0.00000000000E+00 0. -1.
        -11    1    4    4    0    0 -0.13612593039E+02  0.18429432800E+02 -0.11405492355E+02  0.25593591746E+02  0.00000000000E+00 0.  1.
         11    1    4    4    0    0  0.36016420993E+02  0.10314528019E+03 -0.36252471581E+03  0.37862950358E+03  0.00000000000E+00 0. -1.
         21    1    1    2  503  501  0.44844022253E+02  0.13121433995E+01  0.21993467342E+02  0.49964193758E+02  0.00000000000E+00 0. -1.
          1    1    1    2  501    0 -0.12280930078E+03 -0.77548996992E+02 -0.15159927859E+03  0.20994835689E+03  0.00000000000E+00 0. -1.
<scales pt_clust_5="13000.00000" pt_clust_6="13000.00000" pt_clust_7="13000.00000" pt_clust_8="13000.00000" pt_clust_9="44.86321" pt_clust_10="13000.00000"></scales>
<clustering>
<clus scale="   44.863">  1  9  2 -1</clus>
<clus scale="   79.536">  5  6 -1 -1</clus>
<clus scale="   91.050">  7  8 -1 -1</clus>
<clus scale="  125.645">  2  5  1 -1</clus>
<clus scale="  126.273">  7 10 -1 -1</clus>
<clus scale="   44.863">  1  5  2 -1</clus>
</clustering>
</event>
<event>
10    4  0.2866397E-005  0.3862070E+03  0.7546771E-02  0.1098596E+00
         21   -1    0    0  501  502  0.00000000000E+00  0.00000000000E+00  0.72320040147E+02  0.72320040147E+02  0.00000000000E+00 0.  1.
          2   -1    0    0  503    0 -0.00000000000E+00 -0.00000000000E+00 -0.10840295860E+04  0.10840295860E+04  0.00000000000E+00 0. -1.
         24    2    1    2    0    0  0.31612834100E+02  0.20899437653E+02 -0.29498851667E+03  0.31069115779E+03  0.89858849259E+02 0.  0.
         23    2    1    2    0    0 -0.12032587154E+03 -0.16183436489E+03 -0.26932640318E+03  0.34892459279E+03  0.92428258549E+02 0.  0.
        -13    1    3    3    0    0  0.47758764611E+02 -0.19022957269E+02 -0.19813374109E+03  0.20469428878E+03  0.00000000000E+00 0.  1.
         14    1    3    3    0    0 -0.16145930511E+02  0.39922394922E+02 -0.96854775581E+02  0.10599686902E+03  0.00000000000E+00 0. -1.
        -11    1    4    4    0    0 -0.63799324399E+02 -0.95807115939E+02 -0.78760676063E+02  0.13947258280E+03  0.00000000000E+00 0.  1.
         11    1    4    4    0    0 -0.56526547141E+02 -0.66027248954E+02 -0.19056572712E+03  0.20945200999E+03  0.00000000000E+00 0. -1.
         21    1    1    2  503  502  0.71636250073E+01  0.33317895257E+02 -0.53121923573E+01  0.34490854661E+02  0.00000000000E+00 0. -1.
          1    1    1    2  501    0  0.81549412432E+02  0.10761703198E+03 -0.44208243366E+03  0.46224302092E+03  0.00000000000E+00 0. -1.
<scales pt_clust_5="13000.00000" pt_clust_6="13000.00000" pt_clust_7="13000.00000" pt_clust_8="13000.00000" pt_clust_9="34.07931" pt_clust_10="13000.00000"></scales>
<clustering>
<clus scale="   34.079">  1  9  2 -1</clus>
<clus scale="   89.859">  5  6 -1 -1</clus>
<clus scale="   92.428">  7  8 -1 -1</clus>
<clus scale="   98.910">  2  5  1 -1</clus>
<clus scale="  166.205">  7 10 -1 -1</clus>
<clus scale="   34.079">  1  5  2 -1</clus>
</clustering>
</event>
<event>
10    4  0.2866397E-005  0.2383908E+03  0.7546771E-02  0.1141777E+00
         21   -1    0    0  503  502  0.00000000000E+00  0.00000000000E+00  0.22622527382E+03  0.22622527382E+03  0.00000000000E+00 0. -1.
          2   -1    0    0  502    0 -0.00000000000E+00 -0.00000000000E+00 -0.10839289230E+04  0.10839289230E+04  0.00000000000E+00 0. -1.
         24    2    1    2    0    0 -0.99768284579E+02 -0.84584587153E+02 -0.65059054608E+03  0.66848624797E+03  0.80607332675E+02 0.  0.
         23    2    1    2    0    0 -0.27210130517E+02 -0.17186738058E+02 -0.22219205478E+03  0.24360704175E+03  0.94547905390E+02 0.  0.
        -11    1    3    3    0    0 -0.48050484720E+02 -0.80608380483E+02 -0.51152631770E+03  0.52006320173E+03  0.00000000000E+00 0.  1.
         12    1    3    3    0    0 -0.51717799859E+02 -0.39762066708E+01 -0.13906422838E+03  0.14842304625E+03  0.00000000000E+00 0. -1.
        -11    1    4    4    0    0 -0.20626758221E+02 -0.55823649619E+02 -0.11524009433E+03  0.12969973922E+03  0.00000000000E+00 0. -1.
         11    1    4    4    0    0 -0.65833722958E+01  0.38636911562E+02 -0.10695196045E+03  0.11390730253E+03  0.00000000000E+00 0.  1.
         21    1    1    2  503  501  0.55115589486E+01  0.89368644696E+02  0.17516708716E+03  0.19672478329E+03  0.00000000000E+00 0. -1.
          1    1    1    2  501    0  0.12146685615E+03  0.12402680515E+02 -0.16008813543E+03  0.20133612376E+03  0.00000000000E+00 0. -1.
<scales pt_clust_5="13000.00000" pt_clust_6="13000.00000" pt_clust_7="13000.00000" pt_clust_8="13000.00000" pt_clust_9="89.53844" pt_clust_10="13000.00000"></scales>
<clustering>
<clus scale="   80.607">  5  6 -1 -1</clus>
<clus scale="   89.538">  1  9  2 -1</clus>
<clus scale="   94.548">  7  8 -1 -1</clus>
<clus scale="  137.224">  7 10 -1 -1</clus>
<clus scale="  142.824">  2  5  1 -1</clus>
<clus scale="   89.538">  1  5  2 -1</clus>
</clustering>
</event>
<event>
10    4  0.2866397E-005  0.1226966E+03  0.7546771E-02  0.1257719E+00
         21   -1    0    0  501  502  0.00000000000E+00  0.00000000000E+00  0.46685828666E+03  0.46685828666E+03  0.00000000000E+00 0. -1.
          2   -1    0    0  503    0 -0.00000000000E+00 -0.00000000000E+00 -0.21132240541E+03  0.21132240541E+03  0.00000000000E+00 0. -1.
         24    2    1    2    0    0 -0.54839932736E+01  0.20332127944E+02 -0.14551897222E+03  0.16879574681E+03  0.82902130576E+02 0.  0.
         23    2    1    2    0    0 -0.20616379966E+00  0.11843489736E+02  0.36490477869E+02  0.96887425296E+02  0.88968013650E+02 0.  0.
        -13    1    3    3    0    0  0.36423502233E+02 -0.28283426127E+01 -0.76726756103E+02  0.84980386790E+02  0.00000000000E+00 0.  1.
         14    1    3    3    0    0 -0.41907495506E+02  0.23160470557E+02 -0.68792216121E+02  0.83815360018E+02  0.00000000000E+00 0. -1.
        -13    1    4    4    0    0  0.23280450612E+02 -0.77662878912E-01  0.58245518449E+02  0.62725798772E+02  0.00000000000E+00 0.  1.
         13    1    4    4    0    0 -0.23486614411E+02  0.11921152614E+02 -0.21755040580E+02  0.34161626525E+02  0.00000000000E+00 0. -1.
         21    1    1    2  503  502  0.10810302268E+02 -0.73288057486E+02  0.36358560249E+03  0.37105591539E+03  0.00000000000E+00 0. -1.
          1    1    1    2  501    0 -0.51201451948E+01  0.41112439806E+02  0.97877311721E+00  0.41441604584E+02  0.00000000000E+00 0. -1.
<scales pt_clust_5="13000.00000" pt_clust_6="13000.00000" pt_clust_7="13000.00000" pt_clust_8="13000.00000" pt_clust_9="74.08105" pt_clust_10="13000.00000"></scales>
<clustering>
<clus scale="   74.081">  1  9  2 -1</clus>
<clus scale="   82.902">  5  6 -1 -1</clus>
<clus scale="   83.839">  2  5  1 -1</clus>
<clus scale="   88.968">  7  8 -1 -1</clus>
<clus scale="   28.161">  7 10 -1 -1</clus>
<clus scale="   74.081">  1  5  2 -1</clus>
</clustering>
</event>
<event>
10    4  0.2866397E-005  0.2827410E+03  0.7546771E-02  0.1134556E+00
         21   -1    0    0  503  502  0.00000000000E+00  0.00000000000E+00  0.20815861446E+03  0.20815861446E+03  0.00000000000E+00 0.  1.
         -1   -1    0    0    0  501 -0.00000000000E+00 -0.00000000000E+00 -0.80422807589E+03  0.80422807589E+03  0.00000000000E+00 0.  1.
         24    2    1    2    0    0 -0.62117192026E+02  0.16831014332E+02 -0.25289997886E+03  0.27267689502E+03  0.79072505825E+02 0.  0.
         23    2    1    2    0    0 -0.89387453194E+02  0.39058915546E+02 -0.43681921318E+03  0.45687207986E+03  0.91680732342E+02 0.  0.
        -11    1    3    3    0    0 -0.10451013032E+02 -0.20880276422E+02 -0.18747172536E+02  0.29944383362E+02  0.00000000000E+00 0.  1.
         12    1    3    3    0    0 -0.51666178994E+02  0.37711290755E+02 -0.23415280633E+03  0.24273251165E+03  0.00000000000E+00 0. -1.
        -13    1    4    4    0    0 -0.47976658285E+02  0.52544695434E+02 -0.37224367232E+03  0.37898292354E+03  0.00000000000E+00 0.  1.
         13    1    4    4    0    0 -0.41410794908E+02 -0.13485779888E+02 -0.64575540861E+02  0.77889156316E+02  0.00000000000E+00 0. -1.
         21    1    1    2  503  501  0.19431534999E+03 -0.80727052996E+02  0.99941600758E+02  0.23294556422E+03  0.00000000000E+00 0.  1.
         -2    1    1    2    0  502 -0.42810704768E+02  0.24837123118E+02 -0.62918701409E+01  0.49892151260E+02  0.00000000000E+00 0.  1.
<scales pt_clust_5="13000.00000" pt_clust_6="13000.00000" pt_clust_7="13000.00000" pt_clust_8="13000.00000" pt_clust_9="202.58077" pt_clust_10="13000.00000"></scales>
<clustering>
<clus scale="   79.073">  5  6 -1 -1</clus>
<clus scale="   91.681">  7  8 -1 -1</clus>
<clus scale="   49.494">  7 10 -1 -1</clus>
<clus scale="  101.952">  2  5  1 -1</clus>
<clus scale="  202.581">  1  9  2 -1</clus>
<clus scale="  202.581">  1  5  2 -1</clus>
</clustering>
</event>
<event>
10    4  0.2866397E-005  0.2934557E+03  0.7546771E-02  0.1114603E+00
          2   -1    0    0  503    0 -0.00000000000E+00  0.00000000000E+00  0.63015421885E+03  0.63015421885E+03  0.00000000000E+00 0. -1.
         21   -1    0    0  501  502  0.00000000000E+00 -0.00000000000E+00 -0.10539195578E+03  0.10539195578E+03  0.00000000000E+00 0.  1.
         24    2    1    2    0    0  0.10272693575E+03 -0.39210447262E+02  0.92094415670E+02  0.16619071135E+03  0.83950513041E+02 0.  0.
         23    2    1    2    0    0 -0.15494977205E+03  0.40343426374E+00  0.14842605155E+03  0.23273193146E+03  0.90134702110E+02 0.  0.
        -11    1    3    3    0    0  0.98146455233E+02 -0.80803511717E+01  0.91939222695E+02  0.13472505120E+03  0.00000000000E+00 0.  1.
         12    1    3    3    0    0  0.45804805165E+01 -0.31130096090E+02  0.15519297456E+00  0.31465660159E+02  0.00000000000E+00 0. -1.
        -13    1    4    4    0    0 -0.96151799800E+02 -0.25917631197E+02  0.13359392673E+03  0.16662601679E+03  0.00000000000E+00 0.  1.
         13    1    4    4    0    0 -0.58797972253E+02  0.26321065461E+02  0.14832124821E+02  0.66105914673E+02  0.00000000000E+00 0. -1.
         21    1    1    2  503  502  0.21917820612E+02 -0.28626874059E+02 -0.64948783918E+01  0.36634303925E+02  0.00000000000E+00 0.  1.
          1    1    1    2  501    0  0.30305015692E+02  0.67433887057E+02  0.29073667424E+03  0.29998922789E+03  0.00000000000E+00 0. -1.
<scales pt_clust_5="13000.00000" pt_clust_6="13000.00000" pt_clust_7="13000.00000" pt_clust_8="13000.00000" pt_clust_9="36.05397" pt_clust_10="13000.00000"></scales>
<clustering>
<clus scale="   36.054">  2  9  1 -1</clus>
<clus scale="   83.951">  5  6 -1 -1</clus>
<clus scale="   90.135">  7  8 -1 -1</clus>
<clus scale="   73.006">  7 10 -1 -1</clus>
<clus scale="  149.580">  1  5  2 -1</clus>
<clus scale="   36.054">  2  5  1 -1</clus>
</clustering>
</event>
<event>
10    4  0.2866397E-005  0.2405021E+03  0.7546771E-02  0.1146348E+00
          2   -1    0    0  503    0 -0.00000000000E+00  0.00000000000E+00  0.15786638957E+04  0.15786638957E+04  0.00000000000E+00 0. -1.
         21   -1    0    0  501  502  0.00000000000E+00 -0.00000000000E+00 -0.28615321840E+02  0.28615321840E+02  0.00000000000E+00 0.  1.
         24    2    1    2    0    0 -0.60977469622E+02 -0.80122060123E+02  0.77187816889E+03  0.78246591106E+03  0.79493383641E+02 0.  0.
         23    2    1    2    0    0 -0.16190672849E+02 -0.49006734760E+02  0.32280105272E+03  0.33992931568E+03  0.93207414331E+02 0.  0.
        -13    1    3    3    0    0  0.43451823816E+01 -0.59586187332E+02  0.34718731908E+03  0.35229026223E+03  0.00000000000E+00 0.  1.
         14    1    3    3    0    0 -0.65322652003E+02 -0.20535872791E+02  0.42469084981E+03  0.43017564883E+03  0.00000000000E+00 0. -1.
        -13    1    4    4    0    0  0.28293329393E+02 -0.45573629711E+01  0.34502694052E+02  0.44852178791E+02  0.00000000000E+00 0.  1.
         13    1    4    4    0    0 -0.44484002241E+02 -0.44449371788E+02  0.28829835867E+03  0.29507713689E+03  0.00000000000E+00 0. -1.
         21    1    1    2  503  502 -0.25674701729E+01  0.28319469078E+02  0.33874489024E+02  0.44227426317E+02  0.00000000000E+00 0. -1.
          1    1    1    2  501    0  0.79735612643E+02  0.10080932580E+03  0.42149486327E+03  0.44065656452E+03  0.00000000000E+00 0. -1.
<scales pt_clust_5="13000.00000" pt_clust_6="13000.00000" pt_clust_7="13000.00000" pt_clust_8="13000.00000" pt_clust_9="28.43562" pt_clust_10="13000.00000"></scales>
<clustering>
<clus scale="   28.436">  2  9  1 -1</clus>
<clus scale="   79.493">  5  6 -1 -1</clus>
<clus scale="   93.207">  7  8 -1 -1</clus>
<clus scale="  124.676">  1  5  2 -1</clus>
<clus scale="   79.808">  7 10 -1 -1</clus>
<clus scale="   28.436">  2  5  1 -1</clus>
</clustering>
</event>
<event>
10    4  0.2866397E-005  0.2960953E+03  0.7546771E-02  0.1133701E+00
          2   -1    0    0  502    0 -0.00000000000E+00  0.00000000000E+00  0.28612674386E+03  0.28612674386E+03  0.00000000000E+00 0. -1.
         21   -1    0    0  503  502  0.00000000000E+00 -0.00000000000E+00 -0.59588097069E+03  0.59588097069E+03  0.00000000000E+00 0.  1.
         24    2    1    2    0    0 -0.40711298222E+02  0.51442828667E+01 -0.19004895081E+03  0.21055759971E+03  0.80820948034E+02 0.  0.
         23    2    1    2    0    0  0.64060166209E+02 -0.69533368262E+02  0.76690262921E+02  0.15200086401E+03  0.91017976450E+02 0.  0.
        -13    1    3    3    0    0 -0.51741960307E+02  0.25667329939E+02 -0.17090775402E+03  0.18040372132E+03  0.00000000000E+00 0.  1.
         14    1    3    3    0    0  0.11030662085E+02 -0.20523047072E+02 -0.19141196793E+02  0.30153878388E+02  0.00000000000E+00 0. -1.
        -11    1    4    4    0    0 -0.23444498785E+02 -0.15138896091E+02  0.12266227005E+02  0.30484275013E+02  0.00000000000E+00 0. -1.
         11    1    4    4    0    0  0.87504664993E+02 -0.54394472171E+02  0.64424035916E+02  0.12151658900E+03  0.00000000000E+00 0.  1.
         21    1    1    2  503  501  0.12401625520E+03  0.30865972825E+02 -0.30675641740E+03  0.33231346564E+03  0.00000000000E+00 0.  1.
          1    1    1    2  501    0 -0.14736512319E+03  0.33523112570E+02  0.11036087845E+03  0.18713578519E+03  0.00000000000E+00 0. -1.
<scales pt_clust_5="13000.00000" pt_clust_6="13000.00000" pt_clust_7="13000.00000" pt_clust_8="13000.00000" pt_clust_9="126.02909" pt_clust_10="13000.00000"></scales>
<clustering>
<clus scale="   80.821">  5  6 -1 -1</clus>
<clus scale="   90.642">  1  5  2 -1</clus>
<clus scale="   91.018">  7  8 -1 -1</clus>
<clus scale="  126.029">  2  9  1 -1</clus>
<clus scale="  118.024">  7 10 -1 -1</clus>
<clus scale="  126.029">  2  5  1 -1</clus>
</clustering>
</event>
<event>
10    4  0.2866397E-005  0.3237894E+03  0.7546771E-02  0.1125867E+00
          2   -1    0    0  503    0 -0.00000000000E+00  0.00000000000E+00  0.10186156220E+04  0.10186156220E+04  0.00000000000E+00 0. -1.
         21   -1    0    0  501  502  0.00000000000E+00 -0.00000000000E+00 -0.60475005150E+02  0.60475005150E+02  0.00000000000E+00 0. -1.
         24    2    1    2    0    0  0.29641829622E+02  0.15453239870E+02  0.18677375218E+03  0.20607146943E+03  0.80396363867E+02 0.  0.
         23    2    1    2    0    0 -0.13971173938E+03 -0.28241385475E+02  0.42798863021E+03  0.46021998590E+03  0.91165902934E+02 0.  0.
        -13    1    3    3    0    0  0.41577487328E+02 -0.16493852973E+02  0.60290702502E+02  0.75071322399E+02  0.00000000000E+00 0.  1.
         14    1    3    3    0    0 -0.11935657706E+02  0.31947092843E+02  0.12648304968E+03  0.13100014703E+03  0.00000000000E+00 0. -1.
        -13    1    4    4    0    0 -0.58371726180E+02  0.33139145226E+02  0.15981168001E+03  0.17333561213E+03  0.00000000000E+00 0.  1.
         13    1    4    4    0    0 -0.81340013201E+02 -0.61380530700E+02  0.26817695020E+03  0.28688437378E+03  0.00000000000E+00 0. -1.
         21    1    1    2  503  502 -0.42004740141E+02 -0.67899273494E+01  0.69982949538E+01  0.43121658595E+02  0.00000000000E+00 0. -1.
          1    1    1    2  501    0  0.15207464990E+03  0.19578072954E+02  0.33637993948E+03  0.36967751320E+03  0.00000000000E+00 0. -1.
<scales pt_clust_5="13000.00000" pt_clust_6="13000.00000" pt_clust_7="13000.00000" pt_clust_8="13000.00000" pt_clust_9="42.54999" pt_clust_10="13000.00000"></scales>
<clustering>
<clus scale="   42.550">  2  9  1 -1</clus>
<clus scale="   80.396">  5  6 -1 -1</clus>
<clus scale="   84.027">  1  5  2 -1</clus>
<clus scale="   91.166">  7  8 -1 -1</clus>
<clus scale="  144.438">  7 10 -1 -1</clus>
<clus scale="   42.550">  2  5  1 -1</clus>
</clustering>
</event>
<event>
10    4  0.2866397E-005  0.3086838E+03  0.7546771E-02  0.1096954E+00
          2   -1    0    0  503    0 -0.00000000000E+00  0.00000000000E+00  0.17125542313E+04  0.17125542313E+04  0.00000000000E+00 0. -1.
         21   -1    0    0  501  502  0.00000000000E+00 -0.00000000000E+00 -0.14731778614E+03  0.14731778614E+03  0.00000000000E+00 0. -1.
         24    2    1    2    0    0  0.37147111169E+03  0.47235694875E+02  0.67971057236E+03  0.78023812195E+03  0.80889227136E+02 0.  0.
         23    2    1    2    0    0 -0.13361098397E+02  0.11222707128E+02  0.13038749827E+03  0.16056417541E+03  0.92062406094E+02 0.  0.
        -11    1    3    3    0    0  0.22986717654E+03  0.23983147627E+02  0.49534155954E+03  0.54660531541E+03  0.00000000000E+00 0.  1.
         12    1    3    3    0    0  0.14160393515E+03  0.23252547247E+02  0.18436901282E+03  0.23363280654E+03  0.00000000000E+00 0. -1.
        -13    1    4    4    0    0  0.44581344487E+01 -0.38438077625E+02  0.72911482402E+02  0.82543594786E+02  0.00000000000E+00 0.  1.
         13    1    4    4    0    0 -0.17819232846E+02  0.49660784753E+02  0.57476015864E+02  0.78020580625E+02  0.00000000000E+00 0. -1.
         21    1    1    2  503  502 -0.30324063586E+03  0.57713178850E+02  0.24816481592E+03  0.39607003183E+03  0.00000000000E+00 0. -1.
          1    1    1    2  501    0 -0.54869377426E+02 -0.11617158085E+03  0.50697355866E+03  0.52299968829E+03  0.00000000000E+00 0. -1.
<scales pt_clust_5="13000.00000" pt_clust_6="13000.00000" pt_clust_7="13000.00000" pt_clust_8="13000.00000" pt_clust_9="308.68381" pt_clust_10="13000.00000"></scales>
<clustering>
<clus scale="   80.889">  5  6 -1 -1</clus>
<clus scale="   92.062">  7  8 -1 -1</clus>
<clus scale="  128.478">  7 10 -1 -1</clus>
<clus scale="  308.684">  2  9  1 -1</clus>
<clus scale="  202.178">  1  5  2 -1</clus>
<clus scale="  308.684">  2  5  1 -1</clus>
</clustering>
</event>
<event>
10    4  0.2866397E-005  0.5641966E+03  0.7546771E-02  0.1057578E+00
          2   -1    0    0  502    0 -0.00000000000E+00  0.00000000000E+00  0.49211836068E+03  0.49211836068E+03  0.00000000000E+00 0. -1.
         21   -1    0    0  503  502  0.00000000000E+00 -0.00000000000E+00 -0.75322562710E+03  0.75322562710E+03  0.00000000000E+00 0.  1.
         24    2    1    2    0    0  0.62028301291E+00  0.43470269439E+02  0.17573287421E+03  0.19994730433E+03  0.84893064229E+02 0.  0.
         23    2    1    2    0    0 -0.40978221337E+02 -0.18471273674E+03 -0.20701367479E+03  0.29437394645E+03  0.89461438932E+02 0.  0.
        -11    1    3    3    0    0  0.31122905952E+02 -0.10772898956E+02  0.54602037246E+02  0.63765767448E+02  0.00000000000E+00 0.  1.
         12    1    3    3    0    0 -0.30502622939E+02  0.54243168395E+02  0.12113083696E+03  0.13618153688E+03  0.00000000000E+00 0. -1.
        -13    1    4    4    0    0  0.81518394175E+01 -0.14601553825E+03 -0.13543831624E+03  0.19932518005E+03  0.00000000000E+00 0.  1.
         13    1    4    4    0    0 -0.49130060754E+02 -0.38697198489E+02 -0.71575358559E+02  0.95048766396E+02  0.00000000000E+00 0. -1.
         21    1    1    2  503  501 -0.77740716231E+02  0.40340396478E+02 -0.46279934803E+03  0.47101401581E+03  0.00000000000E+00 0.  1.
          1    1    1    2  501    0  0.11809865455E+03  0.10090207083E+03  0.23297288220E+03  0.28000872119E+03  0.00000000000E+00 0. -1.
<scales pt_clust_5="13000.00000" pt_clust_6="13000.00000" pt_clust_7="13000.00000" pt_clust_8="13000.00000" pt_clust_9="87.58405" pt_clust_10="13000.00000"></scales>
<clustering>
<clus scale="   84.893">  5  6 -1 -1</clus>
<clus scale="   87.584">  2  9  1 -1</clus>
<clus scale="   89.461">  7  8 -1 -1</clus>
<clus scale="   96.202">  1  5  2 -1</clus>
<clus scale="  179.079">  7 10 -1 -1</clus>
<clus scale="   87.584">  2  5  1 -1</clus>
</clustering>
</event>
<event>
10    4  0.2866397E-005  0.4583512E+03  0.7546771E-02  0.1064075E+00
         21   -1    0    0  503  502  0.00000000000E+00  0.00000000000E+00  0.65279724020E+03  0.65279724020E+03  0.00000000000E+00 0. -1.
          2   -1    0    0  502    0 -0.00000000000E+00 -0.00000000000E+00 -0.34774131954E+03  0.34774131954E+03  0.00000000000E+00 0. -1.
         24    2    1    2    0    0  0.11589498740E+02 -0.90142758933E+02  0.20770018467E+03  0.24057310555E+03  0.80473715805E+02 0.  0.
         23    2    1    2    0    0  0.24214709067E+02  0.20862630327E+03  0.41576428849E+02  0.23249250460E+03  0.90624934256E+02 0.  0.
        -11    1    3    3    0    0  0.18392516449E+02 -0.31665706302E+02  0.15866599850E+02  0.39909279720E+02  0.00000000000E+00 0.  1.
         12    1    3    3    0    0 -0.68030177081E+01 -0.58477052631E+02  0.19183358482E+03  0.20066382583E+03  0.00000000000E+00 0. -1.
        -13    1    4    4    0    0 -0.12021080723E+02  0.16697030256E+03  0.74131937960E+01  0.16756653533E+03  0.00000000000E+00 0. -1.
         13    1    4    4    0    0  0.36235789790E+02  0.41656000702E+02  0.34163235053E+02  0.64925969269E+02  0.00000000000E+00 0.  1.
         21    1    1    2  503  501  0.11706889811E+03 -0.16966020594E+02  0.23992451631E+03  0.26750092764E+03  0.00000000000E+00 0.  1.
          1    1    1    2  501    0 -0.15287310592E+03 -0.10151752374E+03 -0.18414520917E+03  0.25997202195E+03  0.00000000000E+00 0. -1.
<scales pt_clust_5="13000.00000" pt_clust_6="13000.00000" pt_clust_7="13000.00000" pt_clust_8="13000.00000" pt_clust_9="118.29190" pt_clust_10="13000.00000"></scales>
<clustering>
<clus scale="   80.474">  5  6 -1 -1</clus>
<clus scale="   90.625">  7  8 -1 -1</clus>
<clus scale="  118.292">  1  9  2 -1</clus>
<clus scale="  149.638">  2  5  1 -1</clus>
<clus scale="  191.894">  7 10 -1 -1</clus>
<clus scale="  118.292">  1  5  2 -1</clus>
</clustering>
</event>
<event>
10    4  0.2866397E-005  0.4044388E+03  0.7546771E-02  0.1078710E+00
          2   -1    0    0  502    0 -0.00000000000E+00  0.00000000000E+00  0.30290770921E+04  0.30290770921E+04  0.00000000000E+00 0. -1.
         21   -1    0    0  503  502  0.00000000000E+00 -0.00000000000E+00 -0.29672817192E+02  0.29672817192E+02  0.00000000000E+00 0.  1.
         24    2    1    2    0    0 -0.96536695653E+02 -0.91457578638E+02  0.76817500885E+03  0.78379999704E+03  0.81029431951E+02 0.  0.
         23    2    1    2    0    0 -0.94639530439E+02 -0.95037058808E+02  0.70918387566E+03  0.72773265927E+03  0.93082600993E+02 0.  0.
        -13    1    3    3    0    0 -0.61150472300E+02 -0.65906738401E+02  0.28949794695E+03  0.30313716321E+03  0.00000000000E+00 0.  1.
         14    1    3    3    0    0 -0.35386223354E+02 -0.25550840237E+02  0.47867706190E+03  0.48066283383E+03  0.00000000000E+00 0. -1.
        -11    1    4    4    0    0 -0.13196872542E+02 -0.75735910113E+02  0.40564627586E+03  0.41286679043E+03  0.00000000000E+00 0.  1.
         11    1    4    4    0    0 -0.81442657897E+02 -0.19301148695E+02  0.30353759980E+03  0.31486586884E+03  0.00000000000E+00 0. -1.
         21    1    1    2  503  501  0.31702079285E+02  0.23486768766E+02  0.10968641743E+03  0.11656654884E+03  0.00000000000E+00 0. -1.
          1    1    1    2  501    0  0.15947414681E+03  0.16300786868E+03  0.14123589730E+04  0.14306507042E+04  0.00000000000E+00 0. -1.
<scales pt_clust_5="13000.00000" pt_clust_6="13000.00000" pt_clust_7="13000.00000" pt_clust_8="13000.00000" pt_clust_9="39.45441" pt_clust_10="13000.00000"></scales>
<clustering>
<clus scale="   39.454">  2  9  1 -1</clus>
<clus scale="   81.029">  5  6 -1 -1</clus>
<clus scale="   93.083">  7  8 -1 -1</clus>
<clus scale="  145.895">  1  5  2 -1</clus>
<clus scale="  156.538">  7 10 -1 -1</clus>
<clus scale="   39.454">  2  5  1 -1</clus>
</clustering>
</event>
<event>
10    4  0.2866397E-005  0.2474033E+03  0.7546771E-02  0.1128458E+00
         21   -1    0    0  503  502  0.00000000000E+00  0.00000000000E+00  0.88209400904E+02  0.88209400904E+02  0.00000000000E+00 0.  1.
          2   -1    0    0  502    0 -0.00000000000E+00 -0.00000000000E+00 -0.84121508966E+03  0.84121508966E+03  0.00000000000E+00 0. -1.
         24    2    1    2    0    0 -0.14148400035E+03 -0.11747528789E+03 -0.17424608042E+03  0.26510543904E+03  0.78109100942E+02 0.  0.
         23    2    1    2    0    0  0.32609238544E+02  0.74980894888E+02 -0.44819471514E+03  0.47220311194E+03  0.12414418717E+03 0.  0.
        -11    1    3    3    0    0 -0.62713941312E+02 -0.48322395916E+02 -0.25576075960E+02  0.83199928146E+02  0.00000000000E+00 0.  1.
         12    1    3    3    0    0 -0.78770059033E+02 -0.69152891971E+02 -0.14867000446E+03  0.18190551090E+03  0.00000000000E+00 0. -1.
        -11    1    4    4    0    0 -0.32124605265E+01 -0.21160567364E+02 -0.12920278865E+02  0.25000462391E+02  0.00000000000E+00 0.  1.
         11    1    4    4    0    0  0.35821699070E+02  0.96141462252E+02 -0.43527443627E+03  0.44720264955E+03  0.00000000000E+00 0. -1.
         21    1    1    2  503  501  0.29073280395E+02  0.25559756520E+02 -0.65627125241E+00  0.38716759656E+02  0.00000000000E+00 0.  1.
          1    1    1    2  501    0  0.79801481407E+02  0.16934636479E+02 -0.12990862194E+03  0.15339917993E+03  0.00000000000E+00 0. -1.
<scales pt_clust_5="13000.00000" pt_clust_6="13000.00000" pt_clust_7="13000.00000" pt_clust_8="13000.00000" pt_clust_9="38.71120" pt_clust_10="13000.00000"></scales>
<clustering>
<clus scale="   38.711">  1  9  2 -1</clus>
<clus scale="   78.109">  5  6 -1 -1</clus>
<clus scale="  124.144">  7  8 -1 -1</clus>
<clus scale="   87.367">  7 10 -1 -1</clus>
<clus scale="  176.690">  2  5  1 -1</clus>
<clus scale="   38.711">  1  5  2 -1</clus>
</clustering>
</event>
<event>
10    4  0.2866397E-005  0.2890314E+03  0.7546771E-02  0.1136124E+00
          2   -1    0    0  503    0 -0.00000000000E+00  0.00000000000E+00  0.17065913976E+04  0.17065913976E+04  0.00000000000E+00 0. -1.
         21   -1    0    0  501  502  0.00000000000E+00 -0.00000000000E+00 -0.83784830947E+02  0.83784830947E+02  0.00000000000E+00 0. -1.
         24    2    1    2    0    0  0.97125899800E+00  0.43374049792E+02  0.43640472338E+03  0.44596955716E+03  0.80978464973E+02 0.  0.
         23    2    1    2    0    0 -0.13430033895E+02  0.13166661347E+03  0.49298139571E+03  0.51839399322E+03  0.90472165750E+02 0.  0.
        -13    1    3    3    0    0  0.40369893171E+02  0.22879763323E+02  0.18918813745E+03  0.19479569604E+03  0.00000000000E+00 0.  1.
         14    1    3    3    0    0 -0.39398634173E+02  0.20494286469E+02  0.24721658593E+03  0.25117386112E+03  0.00000000000E+00 0. -1.
        -11    1    4    4    0    0 -0.28269086215E+02  0.92826461597E+02  0.44240099750E+03  0.45291780248E+03  0.00000000000E+00 0.  1.
         11    1    4    4    0    0  0.14839052320E+02  0.38840151872E+02  0.50580398203E+02  0.65476190738E+02  0.00000000000E+00 0. -1.
         21    1    1    2  503  502 -0.28541845082E+02 -0.89499507007E+02 -0.28279980444E+02  0.98104821334E+02  0.00000000000E+00 0. -1.
          1    1    1    2  501    0  0.41000619979E+02 -0.85541156254E+02  0.72170042806E+03  0.72790785688E+03  0.00000000000E+00 0. -1.
<scales pt_clust_5="13000.00000" pt_clust_6="13000.00000" pt_clust_7="13000.00000" pt_clust_8="13000.00000" pt_clust_9="92.79276" pt_clust_10="13000.00000"></scales>
<clustering>
<clus scale="   80.978">  5  6 -1 -1</clus>
<clus scale="   90.472">  7  8 -1 -1</clus>
<clus scale="   91.868">  1  5  2 -1</clus>
<clus scale="   73.560">  7 10 -1 -1</clus>
<clus scale="   92.793">  2  9  1 -1</clus>
<clus scale="   92.793">  2  5  1 -1</clus>
</clustering>
</event>
<event>
10    4  0.2866397E-005  0.3344360E+03  0.7546771E-02  0.1101806E+00
         21   -1    0    0  503  502  0.00000000000E+00  0.00000000000E+00  0.71657082450E+03  0.71657082450E+03  0.00000000000E+00 0.  1.
         -1   -1    0    0    0  501 -0.00000000000E+00 -0.00000000000E+00 -0.12929149026E+03  0.12929149026E+03  0.00000000000E+00 0.  1.
         24    2    1    2    0    0 -0.53212646943E+02 -0.81396752395E+02  0.17768127457E+03  0.22376864090E+03  0.95103902255E+02 0.  0.
         23    2    1    2    0    0  0.66907385783E+01 -0.45491442537E+02 -0.29382664515E+02  0.10515131990E+03  0.89884491301E+02 0.  0.
        -11    1    3    3    0    0  0.11537682241E+02 -0.55390626474E+02  0.12205701709E+03  0.13453310014E+03  0.00000000000E+00 0.  1.
         12    1    3    3    0    0 -0.64750329184E+02 -0.26006125922E+02  0.55624257473E+02  0.89235540758E+02  0.00000000000E+00 0. -1.
        -11    1    4    4    0    0  0.35413871594E+02  0.11270080720E+02 -0.13907726310E+02  0.39681001397E+02  0.00000000000E+00 0.  1.
         11    1    4    4    0    0 -0.28723133016E+02 -0.56761523257E+02 -0.15474938205E+02  0.65470318505E+02  0.00000000000E+00 0. -1.
         21    1    1    2  503  501  0.76481935290E+02 -0.47951601698E+02  0.19900256782E+03  0.21851971199E+03  0.00000000000E+00 0.  1.
         -2    1    1    2    0  502 -0.29960026925E+02  0.17483979663E+03  0.23997815637E+03  0.29842264196E+03  0.00000000000E+00 0.  1.
<scales pt_clust_5="13000.00000" pt_clust_6="13000.00000" pt_clust_7="13000.00000" pt_clust_8="13000.00000" pt_clust_9="90.27094" pt_clust_10="13000.00000"></scales>
<clustering>
<clus scale="   89.884">  7  8 -1 -1</clus>
<clus scale="   90.271">  1  9  2 -1</clus>
<clus scale="   95.104">  5  6 -1 -1</clus>
<clus scale="  140.154">  2  5  1 -1</clus>
<clus scale="  122.813">  7 10 -1 -1</clus>
<clus scale="   90.271">  1  5  2 -1</clus>
</clustering>
</event>
<event>
10    4  0.2866397E-005  0.2463532E+03  0.7546771E-02  0.1139762E+00
         21   -1    0    0  503  502  0.00000000000E+00  0.00000000000E+00  0.72436592515E+03  0.72436592515E+03  0.00000000000E+00 0. -1.
          4   -1    0    0  502    0 -0.00000000000E+00 -0.00000000000E+00 -0.70147438818E+02  0.70147438818E+02  0.00000000000E+00 0. -1.
         24    2    1    2    0    0 -0.78415296865E+02  0.89399319957E+02  0.18852171551E+03  0.23046354355E+03  0.58581656644E+02 0.  0.
         23    2    1    2    0    0 -0.35462634659E+02  0.25184609725E+01  0.12087123531E+03  0.15523247830E+03  0.90682554497E+02 0.  0.
        -11    1    3    3    0    0 -0.52750857938E+01  0.27369682273E+02  0.13684667198E+02  0.31051508082E+02  0.00000000000E+00 0.  1.
         12    1    3    3    0    0 -0.73140211071E+02  0.62029637685E+02  0.17483704831E+03  0.19941203547E+03  0.00000000000E+00 0. -1.
        -13    1    4    4    0    0 -0.28484323860E+02 -0.27560396602E+02  0.11040709164E+02  0.41144008379E+02  0.00000000000E+00 0. -1.
         13    1    4    4    0    0 -0.69783107989E+01  0.30078857575E+02  0.10983052614E+03  0.11408846992E+03  0.00000000000E+00 0.  1.
         21    1    1    2  503  501  0.16430330902E+02  0.25079648520E+02  0.18747369096E+03  0.18985607535E+03  0.00000000000E+00 0. -1.
          3    1    1    2  501    0  0.97447600622E+02 -0.11699742945E+03  0.15735184455E+03  0.21896126678E+03  0.00000000000E+00 0. -1.
<scales pt_clust_5="13000.00000" pt_clust_6="13000.00000" pt_clust_7="13000.00000" pt_clust_8="13000.00000" pt_clust_9="29.98240" pt_clust_10="13000.00000"></scales>
<clustering>
<clus scale="   29.982">  1  9  2 -1</clus>
<clus scale="   58.582">  5  6 -1 -1</clus>
<clus scale="   90.683">  7  8 -1 -1</clus>
<clus scale="  135.854">  2  5  1 -1</clus>
<clus scale="   73.536">  7 10 -1 -1</clus>
<clus scale="   29.982">  1  5  2 -1</clus>
</clustering>
</event>
<event>
10    4  0.2866397E-005  0.1966949E+03  0.7546771E-02  0.1161592E+00
         21   -1    0    0  503  502  0.00000000000E+00  0.00000000000E+00  0.24043000398E+03  0.24043000398E+03  0.00000000000E+00 0.  1.
         -3   -1    0    0    0  501 -0.00000000000E+00 -0.00000000000E+00 -0.17669627948E+03  0.17669627948E+03  0.00000000000E+00 0.  1.
         24    2    1    2    0    0  0.36681070139E+01  0.13082928465E+03  0.50403772015E+02  0.16152010148E+03  0.80115205915E+02 0.  0.
         23    2    1    2    0    0 -0.99315944415E+01 -0.45073741641E+02 -0.21255435988E+02  0.10505273105E+03  0.91945657800E+02 0.  0.
        -13    1    3    3    0    0  0.53652645489E+01  0.13749340027E+03  0.31156700060E+02  0.14108139899E+03  0.00000000000E+00 0.  1.
         14    1    3    3    0    0 -0.16971575350E+01 -0.66641156239E+01  0.19247071956E+02  0.20438702493E+02  0.00000000000E+00 0. -1.
        -11    1    4    4    0    0  0.34656476687E+02 -0.23561637398E+02  0.14102422133E+02  0.44216517765E+02  0.00000000000E+00 0.  1.
         11    1    4    4    0    0 -0.44588071129E+02 -0.21512104243E+02 -0.35357858121E+02  0.60836213285E+02  0.00000000000E+00 0. -1.
         21    1    1    2  503  501  0.28758441787E+02  0.98194337931E+01  0.42277688958E+02  0.52066037276E+02  0.00000000000E+00 0.  1.
         -4    1    1    2    0  502 -0.22494954359E+02 -0.95574976799E+02 -0.76923004860E+01  0.98487413655E+02  0.00000000000E+00 0.  1.
<scales pt_clust_5="13000.00000" pt_clust_6="13000.00000" pt_clust_7="13000.00000" pt_clust_8="13000.00000" pt_clust_9="30.38864" pt_clust_10="13000.00000"></scales>
<clustering>
<clus scale="   30.389">  1  9  2 -1</clus>
<clus scale="   80.115">  5  6 -1 -1</clus>
<clus scale="   91.946">  7  8 -1 -1</clus>
<clus scale="   94.587">  7 10 -1 -1</clus>
<clus scale="  159.218">  2  5  1 -1</clus>
<clus scale="   30.389">  1  5  2 -1</clus>
</clustering>
</event>
<event>
10    4  0.2866397E-005  0.1528683E+03  0.7546771E-02  0.1218381E+00
         21   -1    0    0  501  502  0.00000000000E+00  0.00000000000E+00  0.12358246864E+03  0.12358246864E+03  0.00000000000E+00 0.  1.
          2   -1    0    0  503    0 -0.00000000000E+00 -0.00000000000E+00 -0.21776232384E+03  0.21776232384E+03  0.00000000000E+00 0. -1.
         24    2    1    2    0    0  0.20209789936E+02  0.54455958893E+02 -0.11726725228E+03  0.15351913019E+03  0.80265981638E+02 0.  0.
         23    2    1    2    0    0 -0.35403967431E+02 -0.39636594885E+02 -0.17626923664E+02  0.97630579575E+02  0.79978253709E+02 0.  0.
        -13    1    3    3    0    0 -0.31152628531E+02  0.22238854057E+02 -0.41023547951E+02  0.56106901363E+02  0.00000000000E+00 0.  1.
         14    1    3    3    0    0  0.51362418467E+02  0.32217104837E+02 -0.76243704333E+02  0.97412228828E+02  0.00000000000E+00 0. -1.
        -11    1    4    4    0    0 -0.71719948964E+01 -0.59702757652E+02 -0.18714494612E+02  0.62976893307E+02  0.00000000000E+00 0.  1.
         11    1    4    4    0    0 -0.28231972535E+02  0.20066162767E+02  0.10875709472E+01  0.34653686268E+02  0.00000000000E+00 0. -1.
         21    1    1    2  503  502 -0.31243755089E+02 -0.13438220098E+02  0.18018855081E+02  0.38489441797E+02  0.00000000000E+00 0.  1.
          1    1    1    2  501    0  0.46437932583E+02 -0.13811439111E+01  0.22695465671E+02  0.51705640922E+02  0.00000000000E+00 0. -1.
<scales pt_clust_5="13000.00000" pt_clust_6="13000.00000" pt_clust_7="13000.00000" pt_clust_8="13000.00000" pt_clust_9="34.01115" pt_clust_10="13000.00000"></scales>
<clustering>
<clus scale="   34.011">  1  9  2 -1</clus>
<clus scale="   79.978">  7  8 -1 -1</clus>
<clus scale="   34.880">  7 10 -1 -1</clus>
<clus scale="   80.266">  5  6 -1 -1</clus>
<clus scale="   96.643">  2  5  1 -1</clus>
<clus scale="   34.011">  1  5  2 -1</clus>
</clustering>
</event>
<event>
10    4  0.2866397E-005  0.1265169E+03  0.7546771E-02  0.1250815E+00
          2   -1    0    0  503    0 -0.00000000000E+00  0.00000000000E+00  0.62141817848E+03  0.62141817848E+03  0.00000000000E+00 0. -1.
         21   -1    0    0  501  502  0.00000000000E+00 -0.00000000000E+00 -0.38167593003E+02  0.38167593003E+02  0.00000000000E+00 0.  1.
         24    2    1    2    0    0 -0.21291532067E+02  0.35483049814E+02  0.41198219492E+03  0.42171277428E+03  0.79999743117E+02 0.  0.
         23    2    1    2    0    0  0.17750062023E+01 -0.15800926068E+02  0.72714897089E+02  0.11861050912E+03  0.92348127771E+02 0.  0.
        -11    1    3    3    0    0  0.14176780421E+02 -0.14275734420E+02  0.40320750326E+02  0.45061520205E+02  0.00000000000E+00 0.  1.
         12    1    3    3    0    0 -0.35468312488E+02  0.49758784234E+02  0.37166144460E+03  0.37665125408E+03  0.00000000000E+00 0. -1.
        -11    1    4    4    0    0  0.30897953868E+02 -0.17889121622E+02 -0.45698701940E+01  0.35994276479E+02  0.00000000000E+00 0.  1.
         11    1    4    4    0    0 -0.29122947666E+02  0.20881955548E+01  0.77284767283E+02  0.82616232638E+02  0.00000000000E+00 0. -1.
         21    1    1    2  503  502  0.31199030698E+01 -0.40511475996E+02  0.58143717323E+02  0.70933809616E+02  0.00000000000E+00 0.  1.
          1    1    1    2  501    0  0.16396622794E+02  0.20829352250E+02  0.40409776140E+02  0.48328678462E+02  0.00000000000E+00 0. -1.
<scales pt_clust_5="13000.00000" pt_clust_6="13000.00000" pt_clust_7="13000.00000" pt_clust_8="13000.00000" pt_clust_9="40.63143" pt_clust_10="13000.00000"></scales>
<clustering>
<clus scale="   40.631">  2  9  1 -1</clus>
<clus scale="   80.000">  5  6 -1 -1</clus>
<clus scale="   87.695">  1  5  2 -1</clus>
<clus scale="   92.348">  7  8 -1 -1</clus>
<clus scale="   25.228">  7 10 -1 -1</clus>
<clus scale="   40.631">  2  5  1 -1</clus>
</clustering>
</event>
<event>
10    4  0.2866397E-005  0.3918623E+03  0.7546771E-02  0.1050797E+00
         21   -1    0    0  501  502  0.00000000000E+00  0.00000000000E+00  0.78342801924E+03  0.78342801924E+03  0.00000000000E+00 0.  1.
          2   -1    0    0  503    0 -0.00000000000E+00 -0.00000000000E+00 -0.24572813514E+03  0.24572813514E+03  0.00000000000E+00 0. -1.
         24    2    1    2    0    0 -0.23257532426E+03  0.20816927416E+03  0.30140507751E+03  0.44087837668E+03  0.78121662278E+02 0.  0.
         23    2    1    2    0    0  0.10013308603E+03 -0.98518464655E+02 -0.34380143059E+02  0.17039939942E+03  0.90119022915E+02 0.  0.
        -13    1    3    3    0    0 -0.11910683630E+03  0.61628623227E+02  0.15295040603E+03  0.20341669636E+03  0.00000000000E+00 0.  1.
         14    1    3    3    0    0 -0.11346848796E+03  0.14654065093E+03  0.14845467148E+03  0.23746168032E+03  0.00000000000E+00 0. -1.
        -13    1    4    4    0    0 -0.89276587989E+01 -0.43988648182E+02 -0.69737783367E+01  0.45423978743E+02  0.00000000000E+00 0. -1.
         13    1    4    4    0    0  0.10906074483E+03 -0.54529816473E+02 -0.27406364722E+02  0.12497542068E+03  0.00000000000E+00 0.  1.
         21    1    1    2  503  502  0.19630361613E+01  0.65800380384E+02  0.15957692928E+03  0.17262195668E+03  0.00000000000E+00 0.  1.
          1    1    1    2  501    0  0.13047920208E+03 -0.17545118989E+03  0.11109802037E+03  0.24525642160E+03  0.00000000000E+00 0. -1.
<scales pt_clust_5="13000.00000" pt_clust_6="13000.00000" pt_clust_7="13000.00000" pt_clust_8="13000.00000" pt_clust_9="65.82966" pt_clust_10="13000.00000"></scales>
<clustering>
<clus scale="   65.830">  1  9  2 -1</clus>
<clus scale="   78.122">  5  6 -1 -1</clus>
<clus scale="   90.119">  7  8 -1 -1</clus>
<clus scale="  204.090">  7 10 -1 -1</clus>
<clus scale="  347.874">  2  5  1 -1</clus>
<clus scale="   65.830">  1  5  2 -1</clus>
</clustering>
</event>
<event>
10    4  0.2866397E-005  0.5211288E+03  0.7546771E-02  0.1055594E+00
          2   -1    0    0  503    0 -0.00000000000E+00  0.00000000000E+00  0.48157882439E+03  0.48157882439E+03  0.00000000000E+00 0. -1.
         21   -1    0    0  501  502  0.00000000000E+00 -0.00000000000E+00 -0.20896865398E+04  0.20896865398E+04  0.00000000000E+00 0.  1.
         24    2    1    2    0    0  0.93104236045E+02  0.37376887351E+02  0.14046606784E+03  0.19077874944E+03  0.81242750738E+02 0.  0.
         23    2    1    2    0    0 -0.99991872332E+01 -0.13528859351E+03 -0.50236500156E+02  0.16900544741E+03  0.87385056083E+02 0.  0.
        -11    1    3    3    0    0  0.98635610320E+02  0.45858798888E+02  0.14362892060E+03  0.18017014151E+03  0.00000000000E+00 0.  1.
         12    1    3    3    0    0 -0.55313742745E+01 -0.84819115368E+01 -0.31628527630E+01  0.10608607933E+02  0.00000000000E+00 0. -1.
        -13    1    4    4    0    0  0.26700805847E+02 -0.96593873878E+02 -0.71978627311E+01  0.10047446806E+03  0.00000000000E+00 0.  1.
         13    1    4    4    0    0 -0.36699993080E+02 -0.38694719635E+02 -0.43038637425E+02  0.68530979353E+02  0.00000000000E+00 0. -1.
         21    1    1    2  503  502 -0.23109816290E+03 -0.13704823870E+03 -0.18672350851E+04  0.18864663908E+04  0.00000000000E+00 0.  1.
          1    1    1    2  501    0  0.14799311409E+03  0.23495994486E+03  0.16889780193E+03  0.32501477660E+03  0.00000000000E+00 0. -1.
<scales pt_clust_5="13000.00000" pt_clust_6="13000.00000" pt_clust_7="13000.00000" pt_clust_8="13000.00000" pt_clust_9="265.66236" pt_clust_10="13000.00000"></scales>
<clustering>
<clus scale="   81.243">  5  6 -1 -1</clus>
<clus scale="   87.385">  7  8 -1 -1</clus>
<clus scale="  129.096">  1  5  2 -1</clus>
<clus scale="  265.662">  2  9  1 -1</clus>
<clus scale="  215.578">  7 10 -1 -1</clus>
<clus scale="  265.662">  2  5  1 -1</clus>
</clustering>
</event>
<event>
10    4  0.2866397E-005  0.6832291E+03  0.7546771E-02  0.1020255E+00
         21   -1    0    0  501  502  0.00000000000E+00  0.00000000000E+00  0.24393699388E+03  0.24393699388E+03  0.00000000000E+00 0. -1.
          2   -1    0    0  503    0 -0.00000000000E+00 -0.00000000000E+00 -0.18971671034E+04  0.18971671034E+04  0.00000000000E+00 0. -1.
         24    2    1    2    0    0  0.21524169915E+02 -0.13735854468E+03 -0.96311005697E+03  0.97691648316E+03  0.86337555810E+02 0.  0.
         23    2    1    2    0    0  0.24831883800E+03 -0.66101794895E+02 -0.60821777070E+03  0.66624999469E+03  0.89042159842E+02 0.  0.
        -13    1    3    3    0    0  0.32449652318E+02 -0.10925175480E+02 -0.14275375141E+03  0.14680249636E+03  0.00000000000E+00 0.  1.
         14    1    3    3    0    0 -0.10925482403E+02 -0.12643336920E+03 -0.82035630556E+03  0.83011398680E+03  0.00000000000E+00 0. -1.
        -13    1    4    4    0    0  0.82120870775E+02  0.20187749730E+02 -0.17990425207E+03  0.19878863793E+03  0.00000000000E+00 0.  1.
         13    1    4    4    0    0  0.16619796722E+03 -0.86289544626E+02 -0.42831351863E+03  0.46746135676E+03  0.00000000000E+00 0. -1.
         21    1    1    2  503  502  0.26225896544E+02  0.67355800375E+02  0.10104666395E+03  0.12423779533E+03  0.00000000000E+00 0. -1.
          1    1    1    2  501    0 -0.29606890446E+03  0.13610453920E+03 -0.18294894585E+03  0.37369982414E+03  0.00000000000E+00 0. -1.
<scales pt_clust_5="13000.00000" pt_clust_6="13000.00000" pt_clust_7="13000.00000" pt_clust_8="13000.00000" pt_clust_9="72.28140" pt_clust_10="13000.00000"></scales>
<clustering>
<clus scale="   72.281">  1  9  2 -1</clus>
<clus scale="   86.338">  5  6 -1 -1</clus>
<clus scale="   89.042">  7  8 -1 -1</clus>
<clus scale="  160.890">  2  5  1 -1</clus>
<clus scale="  305.092">  7 10 -1 -1</clus>
<clus scale="   72.281">  1  5  2 -1</clus>
</clustering>
</event>
<event>
10    4  0.2866397E-005  0.2099207E+03  0.7546771E-02  0.1168277E+00
         -1   -1    0    0    0  501 -0.00000000000E+00  0.00000000000E+00  0.21965081429E+03  0.21965081429E+03  0.00000000000E+00 0.  1.
         21   -1    0    0  501  502  0.00000000000E+00 -0.00000000000E+00 -0.29996367482E+03  0.29996367482E+03  0.00000000000E+00 0.  1.
         24    2    1    2    0    0  0.28599496493E+02 -0.73781089917E+02  0.13578218727E+03  0.17694922621E+03  0.81318176609E+02 0.  0.
         23    2    1    2    0    0  0.52227456632E+02 -0.15849510360E+02 -0.61649010847E+02  0.12292979262E+03  0.91280990193E+02 0.  0.
        -13    1    3    3    0    0  0.25596038780E+02 -0.91720570943E+02  0.11590023599E+03  0.15000228344E+03  0.00000000000E+00 0.  1.
         14    1    3    3    0    0  0.30034577128E+01  0.17939481027E+02  0.19881951282E+02  0.26946942768E+02  0.00000000000E+00 0. -1.
        -11    1    4    4    0    0  0.13293752583E+02 -0.50823501134E+02 -0.20645967704E+02  0.56444734987E+02  0.00000000000E+00 0.  1.
         11    1    4    4    0    0  0.38933704049E+02  0.34973990775E+02 -0.41003043143E+02  0.66485057634E+02  0.00000000000E+00 0. -1.
         21    1    1    2  503  502 -0.23512141963E+02  0.86045239884E+01 -0.10670284568E+03  0.10960089384E+03  0.00000000000E+00 0.  1.
         -2    1    1    2    0  503 -0.57314811162E+02  0.81026076288E+02 -0.47743191258E+02  0.11013457645E+03  0.00000000000E+00 0.  1.
<scales pt_clust_5="13000.00000" pt_clust_6="13000.00000" pt_clust_7="13000.00000" pt_clust_8="13000.00000" pt_clust_9="25.03715" pt_clust_10="13000.00000"></scales>
<clustering>
<clus scale="   25.037">  2  9  1 -1</clus>
<clus scale="   81.318">  5  6 -1 -1</clus>
<clus scale="   91.281">  7  8 -1 -1</clus>
<clus scale="  107.886">  7 10 -1 -1</clus>
<clus scale="  112.254">  1  5  2 -1</clus>
<clus scale="   25.037">  2  5  1 -1</clus>
</clustering>
</event>
<event>
10    4  0.2866397E-005  0.3964092E+03  0.7546771E-02  0.1059101E+00
         21   -1    0    0  501  502  0.00000000000E+00  0.00000000000E+00  0.10795667193E+03  0.10795667193E+03  0.00000000000E+00 0. -1.
          2   -1    0    0  503    0 -0.00000000000E+00 -0.00000000000E+00 -0.20394595664E+04  0.20394595664E+04  0.00000000000E+00 0. -1.
         24    2    1    2    0    0  0.47605300514E+01  0.20118489586E+03 -0.10344190285E+03  0.24036473613E+03  0.81098422567E+02 0.  0.
         23    2    1    2    0    0  0.13990037345E+03 -0.78223398149E+02 -0.94887435643E+03  0.96657578939E+03  0.90637728495E+02 0.  0.
        -13    1    3    3    0    0  0.39808317895E+02  0.14314363719E+03 -0.79141133905E+02  0.16833930651E+03  0.00000000000E+00 0.  1.
         14    1    3    3    0    0 -0.35047787844E+02  0.58041258671E+02 -0.24300768948E+02  0.72025429623E+02  0.00000000000E+00 0. -1.
        -11    1    4    4    0    0  0.90857438720E+02 -0.95788592058E+02 -0.68645912018E+03  0.69903980732E+03  0.00000000000E+00 0. -1.
         11    1    4    4    0    0  0.49042934729E+02  0.17565193908E+02 -0.26241523626E+03  0.26753598207E+03  0.00000000000E+00 0.  1.
         21    1    1    2  503  502 -0.38513169661E+02  0.68213385726E+02 -0.80207228943E+02  0.11211391441E+03  0.00000000000E+00 0.  1.
          1    1    1    2  501    0 -0.10614773384E+03 -0.19117488344E+03 -0.79897940624E+03  0.82836179841E+03  0.00000000000E+00 0. -1.
<scales pt_clust_5="13000.00000" pt_clust_6="13000.00000" pt_clust_7="13000.00000" pt_clust_8="13000.00000" pt_clust_9="78.33473" pt_clust_10="13000.00000"></scales>
<clustering>
<clus scale="   78.335">  1  9  2 -1</clus>
<clus scale="   81.098">  5  6 -1 -1</clus>
<clus scale="   90.638">  7  8 -1 -1</clus>
<clus scale="  212.397">  7 10 -1 -1</clus>
<clus scale="  265.751">  2  5  1 -1</clus>
<clus scale="   78.335">  1  5  2 -1</clus>
</clustering>
</event>
<event>
10    4  0.2866397E-005  0.5801177E+03  0.7546771E-02  0.1053957E+00
         21   -1    0    0  503  502  0.00000000000E+00  0.00000000000E+00  0.25013345219E+03  0.25013345219E+03  0.00000000000E+00 0. -1.
          2   -1    0    0  502    0 -0.00000000000E+00 -0.00000000000E+00 -0.14169321125E+04  0.14169321125E+04  0.00000000000E+00 0. -1.
         24    2    1    2    0    0  0.27472852502E+02 -0.48474068264E+02 -0.11135967252E+03  0.14835165331E+03  0.80639589880E+02 0.  0.
         23    2    1    2    0    0  0.33066212226E+03 -0.10526535476E+03 -0.73559508337E+03  0.81839296754E+03  0.90822291496E+02 0.  0.
        -13    1    3    3    0    0 -0.80753082117E+01 -0.25306821276E+02  0.26560920498E+01  0.26696453525E+02  0.00000000000E+00 0.  1.
         14    1    3    3    0    0  0.35548160713E+02 -0.23167246988E+02 -0.11401576457E+03  0.12165519978E+03  0.00000000000E+00 0. -1.
        -11    1    4    4    0    0  0.18819043986E+03 -0.12338806289E+02 -0.38959859071E+03  0.43284517980E+03  0.00000000000E+00 0.  1.
         11    1    4    4    0    0  0.14247168240E+03 -0.92926548473E+02 -0.34599649266E+03  0.38554778774E+03  0.00000000000E+00 0. -1.
         21    1    1    2  503  501 -0.17921515943E+03  0.38588024445E+02  0.11486345971E+03  0.21633474843E+03  0.00000000000E+00 0. -1.
          1    1    1    2  501    0 -0.17891981533E+03  0.11515139858E+03 -0.43470736411E+03  0.48398619539E+03  0.00000000000E+00 0. -1.
<scales pt_clust_5="13000.00000" pt_clust_6="13000.00000" pt_clust_7="13000.00000" pt_clust_8="13000.00000" pt_clust_9="181.86890" pt_clust_10="13000.00000"></scales>
<clustering>
<clus scale="   80.640">  5  6 -1 -1</clus>
<clus scale="   90.822">  7  8 -1 -1</clus>
<clus scale="   98.017">  2  5  1 -1</clus>
<clus scale="  181.869">  1  9  2 -1</clus>
<clus scale="  259.335">  7 10 -1 -1</clus>
<clus scale="  181.869">  1  5  2 -1</clus>
</clustering>
</event>
<event>
10    4  0.2866397E-005  0.2672031E+03  0.7546771E-02  0.1120252E+00
          2   -1    0    0  502    0 -0.00000000000E+00  0.00000000000E+00  0.24104707634E+03  0.24104707634E+03  0.00000000000E+00 0. -1.
         21   -1    0    0  503  502  0.00000000000E+00 -0.00000000000E+00 -0.24216278717E+03  0.24216278717E+03  0.00000000000E+00 0. -1.
         24    2    1    2    0    0  0.24087086726E+02  0.14130014403E+03  0.75496695590E+01  0.16460212782E+03  0.80566398225E+02 0.  0.
         23    2    1    2    0    0  0.90567294981E+01  0.95888398497E+01 -0.29762789826E+02  0.98622944172E+02  0.93095065712E+02 0.  0.
        -13    1    3    3    0    0 -0.23773758892E+02  0.13552851317E+02  0.67306699861E+01  0.28181080695E+02  0.00000000000E+00 0.  1.
         14    1    3    3    0    0  0.47860845618E+02  0.12774729271E+03  0.81899957282E+00  0.13642104713E+03  0.00000000000E+00 0. -1.
        -11    1    4    4    0    0 -0.32444443454E+02  0.53099134543E+01  0.16113452869E+02  0.36612572367E+02  0.00000000000E+00 0.  1.
         11    1    4    4    0    0  0.41501172952E+02  0.42789263955E+01 -0.45876242695E+02  0.62010371805E+02  0.00000000000E+00 0. -1.
         21    1    1    2  503  501  0.17843169275E+02  0.22747185129E+02  0.26098998133E+02  0.38948309650E+02  0.00000000000E+00 0. -1.
          1    1    1    2  501    0 -0.50986985499E+02 -0.17363616901E+03 -0.50015887030E+01  0.18103648187E+03  0.00000000000E+00 0. -1.
<scales pt_clust_5="13000.00000" pt_clust_6="13000.00000" pt_clust_7="13000.00000" pt_clust_8="13000.00000" pt_clust_9="28.91045" pt_clust_10="13000.00000"></scales>
<clustering>
<clus scale="   28.910">  2  9  1 -1</clus>
<clus scale="   80.566">  5  6 -1 -1</clus>
<clus scale="   93.095">  7  8 -1 -1</clus>
<clus scale="  170.424">  7 10 -1 -1</clus>
<clus scale="  171.922">  1  5  2 -1</clus>
<clus scale="   28.910">  2  5  1 -1</clus>
</clustering>
</event>
<event>
10    4  0.2866397E-005  0.5735735E+03  0.7546771E-02  0.1042102E+00
          2   -1    0    0  502    0 -0.00000000000E+00  0.00000000000E+00  0.66280488194E+03  0.66280488194E+03  0.00000000000E+00 0. -1.
         21   -1    0    0  503  502  0.00000000000E+00 -0.00000000000E+00 -0.28604055388E+03  0.28604055388E+03  0.00000000000E+00 0. -1.
         24    2    1    2    0    0  0.23640709671E+02 -0.11433607874E+03  0.22280117737E+03  0.26466554985E+03  0.82315652109E+02 0.  0.
         23    2    1    2    0    0  0.26357282346E+02 -0.14065660327E+03  0.30077975819E+03  0.34558039755E+03  0.92078020511E+02 0.  0.
        -11    1    3    3    0    0  0.27793394247E+02 -0.79354204193E+02  0.74824156799E+02  0.11255317378E+03  0.00000000000E+00 0.  1.
         12    1    3    3    0    0 -0.41526845758E+01 -0.34981874549E+02  0.14797702057E+03  0.15211237607E+03  0.00000000000E+00 0. -1.
        -13    1    4    4    0    0 -0.21905974441E+02 -0.47494688197E+00  0.38588364309E+02  0.44375208741E+02  0.00000000000E+00 0.  1.
         13    1    4    4    0    0  0.48263256787E+02 -0.14018165638E+03  0.26219139388E+03  0.30120518881E+03  0.00000000000E+00 0. -1.
         21    1    1    2  503  501 -0.26001714783E+02  0.65035970170E+00 -0.65536849695E+02  0.70509508631E+02  0.00000000000E+00 0. -1.
          1    1    1    2  501    0 -0.23996277235E+02  0.25434232231E+03 -0.81279757794E+02  0.26808997979E+03  0.00000000000E+00 0. -1.
<scales pt_clust_5="13000.00000" pt_clust_6="13000.00000" pt_clust_7="13000.00000" pt_clust_8="13000.00000" pt_clust_9="26.00985" pt_clust_10="13000.00000"></scales>
<clustering>
<clus scale="   26.010">  2  9  1 -1</clus>
<clus scale="   82.316">  5  6 -1 -1</clus>
<clus scale="   92.078">  7  8 -1 -1</clus>
<clus scale="  142.413">  1  5  2 -1</clus>
<clus scale="  231.686">  7 10 -1 -1</clus>
<clus scale="   26.010">  2  5  1 -1</clus>
</clustering>
</event>
<event>
10    4  0.2866397E-005  0.4086781E+03  0.7546771E-02  0.1094643E+00
         -3   -1    0    0    0  501 -0.00000000000E+00  0.00000000000E+00  0.26122981385E+03  0.26122981385E+03  0.00000000000E+00 0.  1.
         21   -1    0    0  503  502  0.00000000000E+00 -0.00000000000E+00 -0.62485414954E+03  0.62485414954E+03  0.00000000000E+00 0.  1.
         24    2    1    2    0    0  0.15208561157E+02 -0.54168384338E+02 -0.15155668953E+02  0.93783846191E+02  0.73486062017E+02 0.  0.
         23    2    1    2    0    0  0.10176228618E+03  0.21512003662E+03 -0.64578839709E+02  0.26421944556E+03  0.94917310472E+02 0.  0.
        -13    1    3    3    0    0  0.53326002468E+01 -0.49368751167E+02 -0.41837196253E+02  0.64931203651E+02  0.00000000000E+00 0.  1.
         14    1    3    3    0    0  0.98759609106E+01 -0.47996331706E+01  0.26681527300E+02  0.28852642540E+02  0.00000000000E+00 0. -1.
        -13    1    4    4    0    0  0.81367795046E+02  0.16469594754E+03 -0.53117020177E+01  0.18377618830E+03  0.00000000000E+00 0. -1.
         13    1    4    4    0    0  0.20394491134E+02  0.50424089083E+02 -0.59267137691E+02  0.80443257260E+02  0.00000000000E+00 0.  1.
         21    1    1    2  503  501  0.52943642171E+02 -0.17486105091E+03 -0.30577477609E+03  0.35619886309E+03  0.00000000000E+00 0.  1.
         -4    1    1    2    0  502 -0.16991448951E+03  0.13909398625E+02  0.21884949060E+02  0.17188180855E+03  0.00000000000E+00 0.  1.
<scales pt_clust_5="13000.00000" pt_clust_6="13000.00000" pt_clust_7="13000.00000" pt_clust_8="13000.00000" pt_clust_9="189.09115" pt_clust_10="13000.00000"></scales>
<clustering>
<clus scale="   73.486">  5  6 -1 -1</clus>
<clus scale="   92.551">  1  5  2 -1</clus>
<clus scale="   94.917">  7  8 -1 -1</clus>
<clus scale="  163.565">  7 10 -1 -1</clus>
<clus scale="  189.091">  2  9  1 -1</clus>
<clus scale="  189.091">  2  5  1 -1</clus>
</clustering>
</event>
<event>
10    4  0.2866397E-005  0.1727848E+03  0.7546771E-02  0.1205978E+00
         21   -1    0    0  501  502  0.00000000000E+00  0.00000000000E+00  0.20037767687E+03  0.20037767687E+03  0.00000000000E+00 0. -1.
          2   -1    0    0  503    0 -0.00000000000E+00 -0.00000000000E+00 -0.14725663480E+03  0.14725663480E+03  0.00000000000E+00 0. -1.
         24    2    1    2    0    0 -0.10698072704E+02 -0.87084549808E+01  0.21658747628E+02  0.87126104327E+02  0.83256055388E+02 0.  0.
         23    2    1    2    0    0  0.43916527775E+02 -0.32147772934E+01  0.37219825561E+02  0.10966129330E+03  0.93280692684E+02 0.  0.
        -11    1    3    3    0    0  0.12649642191E+02  0.31501440288E+02 -0.37277301458E+01  0.34150404973E+02  0.00000000000E+00 0.  1.
         12    1    3    3    0    0 -0.23347714895E+02 -0.40209895269E+02  0.25386477774E+02  0.52975699354E+02  0.00000000000E+00 0. -1.
        -13    1    4    4    0    0  0.61137277449E+02 -0.32307246220E+02  0.21799899584E+02  0.72503520425E+02  0.00000000000E+00 0. -1.
         13    1    4    4    0    0 -0.17220749673E+02  0.29092468927E+02  0.15419925977E+02  0.37157772870E+02  0.00000000000E+00 0.  1.
         21    1    1    2  503  502 -0.33692093854E+02  0.37296862110E+02  0.61227859605E+02  0.79215300942E+02  0.00000000000E+00 0. -1.
          1    1    1    2  501    0  0.47363878303E+00 -0.25373629835E+02 -0.66985390724E+02  0.71631613099E+02  0.00000000000E+00 0. -1.
<scales pt_clust_5="13000.00000" pt_clust_6="13000.00000" pt_clust_7="13000.00000" pt_clust_8="13000.00000" pt_clust_9="50.26145" pt_clust_10="13000.00000"></scales>
<clustering>
<clus scale="   50.261">  1  9  2 -1</clus>
<clus scale="   83.256">  5  6 -1 -1</clus>
<clus scale="   87.137">  2  5  1 -1</clus>
<clus scale="   93.281">  7  8 -1 -1</clus>
<clus scale="   25.649">  7 10 -1 -1</clus>
<clus scale="   50.261">  1  5  2 -1</clus>
</clustering>
</event>
<event>
10    4  0.2866397E-005  0.7318365E+03  0.7546771E-02  0.1005708E+00
         21   -1    0    0  501  502  0.00000000000E+00  0.00000000000E+00  0.39721127185E+03  0.39721127185E+03  0.00000000000E+00 0.  1.
          2   -1    0    0  503    0 -0.00000000000E+00 -0.00000000000E+00 -0.70115054523E+03  0.70115054523E+03  0.00000000000E+00 0. -1.
         24    2    1    2    0    0 -0.14173680103E+03 -0.12530084286E+03 -0.12657601731E+02  0.20480030872E+03  0.77416597596E+02 0.  0.
         23    2    1    2    0    0 -0.68241068387E+02  0.64424670763E+02  0.18740429482E+03  0.22782993578E+03  0.89323727559E+02 0.  0.
        -13    1    3    3    0    0 -0.94221631107E+02 -0.11584493894E+03 -0.31862131285E+02  0.15268582468E+03  0.00000000000E+00 0.  1.
         14    1    3    3    0    0 -0.47515169921E+02 -0.94559039119E+01  0.19204529554E+02  0.52114484040E+02  0.00000000000E+00 0. -1.
        -11    1    4    4    0    0 -0.60833972333E+02  0.35361676394E+02  0.47859544946E+02  0.85098509914E+02  0.00000000000E+00 0. -1.
         11    1    4    4    0    0 -0.74070960546E+01  0.29062994368E+02  0.13954474987E+03  0.14273142587E+03  0.00000000000E+00 0.  1.
         21    1    1    2  503  502  0.15131397801E+02 -0.17641976077E+02  0.72360053447E+02  0.76001156926E+02  0.00000000000E+00 0.  1.
          1    1    1    2  501    0  0.19484647161E+03  0.78518148169E+02 -0.55104601991E+03  0.58973041566E+03  0.00000000000E+00 0. -1.
<scales pt_clust_5="13000.00000" pt_clust_6="13000.00000" pt_clust_7="13000.00000" pt_clust_8="13000.00000" pt_clust_9="23.24217" pt_clust_10="13000.00000"></scales>
<clustering>
<clus scale="   23.242">  1  9  2 -1</clus>
<clus scale="   77.417">  5  6 -1 -1</clus>
<clus scale="   89.324">  7  8 -1 -1</clus>
<clus scale="  204.622">  2  5  1 -1</clus>
<clus scale="   79.666">  7 10 -1 -1</clus>
<clus scale="   23.242">  1  5  2 -1</clus>
</clustering>
</event>
<event>
10    4  0.2866397E-005  0.1277169E+03  0.7546771E-02  0.1248592E+00
          2   -1    0    0  503    0 -0.00000000000E+00  0.00000000000E+00  0.69382955174E+03  0.69382955174E+03  0.00000000000E+00 0. -1.
         21   -1    0    0  501  502  0.00000000000E+00 -0.00000000000E+00 -0.18932031928E+03  0.18932031928E+03  0.00000000000E+00 0.  1.
         24    2    1    2    0    0  0.30135800369E+02  0.51770770406E+01  0.62530441057E+03  0.63156909408E+03  0.83300336916E+02 0.  0.
         23    2    1    2    0    0 -0.20274317228E+02 -0.56495219952E+01  0.43788037714E+00  0.93699480033E+02  0.91304084144E+02 0.  0.
        -13    1    3    3    0    0 -0.20022780372E+02 -0.16571676199E+02  0.96252735441E+02  0.99700156799E+02  0.00000000000E+00 0.  1.
         14    1    3    3    0    0  0.50158580741E+02  0.21748753240E+02  0.52905167513E+03  0.53186893728E+03  0.00000000000E+00 0. -1.
        -13    1    4    4    0    0  0.21261631538E+01  0.30976956412E+02 -0.28319515048E+02  0.42024841830E+02  0.00000000000E+00 0.  1.
         13    1    4    4    0    0 -0.22400480382E+02 -0.36626478407E+02  0.28757395425E+02  0.51674638203E+02  0.00000000000E+00 0. -1.
         21    1    1    2  503  502  0.30440920854E+02 -0.14269170961E+02 -0.10778988516E+03  0.11291110771E+03  0.00000000000E+00 0.  1.
          1    1    1    2  501    0 -0.40302403995E+02  0.14741615915E+02 -0.13443173318E+02  0.44970189198E+02  0.00000000000E+00 0. -1.
<scales pt_clust_5="13000.00000" pt_clust_6="13000.00000" pt_clust_7="13000.00000" pt_clust_8="13000.00000" pt_clust_9="33.61932" pt_clust_10="13000.00000"></scales>
<clustering>
<clus scale="   33.619">  2  9  1 -1</clus>
<clus scale="   83.300">  5  6 -1 -1</clus>
<clus scale="   89.121">  1  5  2 -1</clus>
<clus scale="   91.304">  7  8 -1 -1</clus>
<clus scale="   25.991">  7 10 -1 -1</clus>
<clus scale="   33.619">  2  5  1 -1</clus>
</clustering>
</event>
<event>
10    4  0.2866397E-005  0.2583270E+03  0.7546771E-02  0.1136938E+00
          2   -1    0    0  503    0 -0.00000000000E+00  0.00000000000E+00  0.21721601501E+03  0.21721601501E+03  0.00000000000E+00 0. -1.
         21   -1    0    0  501  502  0.00000000000E+00 -0.00000000000E+00 -0.24513426907E+03  0.24513426907E+03  0.00000000000E+00 0. -1.
         24    2    1    2    0    0 -0.74371937624E+02  0.69899463648E+02  0.34786125619E+01  0.13020263173E+03  0.80768214286E+02 0.  0.
         23    2    1    2    0    0 -0.55956801047E+02  0.15856468063E+02  0.18446295958E+02  0.10998418192E+03  0.91507722492E+02 0.  0.
        -13    1    3    3    0    0 -0.47849280509E+02  0.47344081846E+01  0.28065533511E+02  0.55674432528E+02  0.00000000000E+00 0.  1.
         14    1    3    3    0    0 -0.26522657114E+02  0.65165055464E+02 -0.24586920949E+02  0.74528199198E+02  0.00000000000E+00 0. -1.
        -13    1    4    4    0    0  0.66202600211E+01 -0.27945117307E+02  0.17429315129E+02  0.33593726348E+02  0.00000000000E+00 0.  1.
         13    1    4    4    0    0 -0.62577061068E+02  0.43801585370E+02  0.10169808291E+01  0.76390455574E+02  0.00000000000E+00 0. -1.
         21    1    1    2  503  502 -0.49549971855E+01 -0.27447288984E+02 -0.68225571620E+02  0.73706406048E+02  0.00000000000E+00 0. -1.
          1    1    1    2  501    0  0.13528373586E+03 -0.58308642727E+02  0.18382409046E+02  0.14845706439E+03  0.00000000000E+00 0. -1.
<scales pt_clust_5="13000.00000" pt_clust_6="13000.00000" pt_clust_7="13000.00000" pt_clust_8="13000.00000" pt_clust_9="27.89096" pt_clust_10="13000.00000"></scales>
<clustering>
<clus scale="   27.891">  2  9  1 -1</clus>
<clus scale="   80.768">  5  6 -1 -1</clus>
<clus scale="   91.508">  7  8 -1 -1</clus>
<clus scale="  126.158">  1  5  2 -1</clus>
<clus scale="   96.316">  7 10 -1 -1</clus>
<clus scale="   27.891">  2  5  1 -1</clus>
</clustering>
</event>
<event>
10    4  0.2866397E-005  0.4833648E+03  0.7546771E-02  0.1036931E+00
          2   -1    0    0  503    0 -0.00000000000E+00  0.00000000000E+00  0.17288513693E+04  0.17288513693E+04  0.00000000000E+00 0. -1.
         21   -1    0    0  501  502  0.00000000000E+00 -0.00000000000E+00 -0.25569076384E+03  0.25569076384E+03  0.00000000000E+00 0.  1.
         24    2    1    2    0    0  0.15710428738E+03  0.21236615101E+03  0.24722582970E+03  0.37100091150E+03  0.82097053881E+02 0.  0.
         23    2    1    2    0    0 -0.17927287389E+02  0.18554123330E+01  0.12132209697E+03  0.15298314118E+03  0.91432817326E+02 0.  0.
        -13    1    3    3    0    0  0.14566471005E+03  0.17547346280E+03  0.24113788634E+03  0.33189851480E+03  0.00000000000E+00 0.  1.
         14    1    3    3    0    0  0.11439577328E+02  0.36892688214E+02  0.60879433587E+01  0.39102396697E+02  0.00000000000E+00 0. -1.
        -11    1    4    4    0    0 -0.22130427594E+02  0.43613292615E+02  0.81966769134E+02  0.95448553475E+02  0.00000000000E+00 0. -1.
         11    1    4    4    0    0  0.42031402048E+01 -0.41757880282E+02  0.39355327832E+02  0.57534587702E+02  0.00000000000E+00 0.  1.
         21    1    1    2  503  502  0.34643089991E+03 -0.36397998784E+02  0.15929591174E+03  0.38303311896E+03  0.00000000000E+00 0.  1.
          1    1    1    2  501    0 -0.48560789990E+03 -0.17782356456E+03  0.94531676704E+03  0.10775249615E+04  0.00000000000E+00 0. -1.
<scales pt_clust_5="13000.00000" pt_clust_6="13000.00000" pt_clust_7="13000.00000" pt_clust_8="13000.00000" pt_clust_9="376.46024" pt_clust_10="13000.00000"></scales>
<clustering>
<clus scale="   82.097">  5  6 -1 -1</clus>
<clus scale="   91.433">  7  8 -1 -1</clus>
<clus scale="  276.625">  1  5  2 -1</clus>
<clus scale="  374.628">  7 10 -1 -1</clus>
<clus scale="  376.460">  2  9  1 -1</clus>
<clus scale="  376.460">  2  5  1 -1</clus>
</clustering>
</event>
<event>
10    4  0.2866397E-005  0.4884034E+03  0.7546771E-02  0.1075343E+00
          2   -1    0    0  503    0 -0.00000000000E+00  0.00000000000E+00  0.50046598396E+03  0.50046598396E+03  0.00000000000E+00 0. -1.
         21   -1    0    0  501  502  0.00000000000E+00 -0.00000000000E+00 -0.32842785934E+03  0.32842785934E+03  0.00000000000E+00 0. -1.
         24    2    1    2    0    0 -0.26783180185E+02  0.43564579374E+02  0.77023047517E+02  0.11982217294E+03  0.76220679359E+02 0.  0.
         23    2    1    2    0    0 -0.14169123896E+03  0.11665299967E+03  0.26538244814E+03  0.33547047151E+03  0.91805576871E+02 0.  0.
        -13    1    3    3    0    0 -0.23249764329E+02  0.63277491330E+02  0.73053906813E+02  0.99405561972E+02  0.00000000000E+00 0.  1.
         14    1    3    3    0    0 -0.35334158558E+01 -0.19712911956E+02  0.39691407043E+01  0.20416610966E+02  0.00000000000E+00 0. -1.
        -13    1    4    4    0    0 -0.98497590972E+02  0.71039305598E+02  0.23748525322E+03  0.26673508181E+03  0.00000000000E+00 0. -1.
         13    1    4    4    0    0 -0.43193647993E+02  0.45613694074E+02  0.27897194915E+02  0.68735389707E+02  0.00000000000E+00 0.  1.
         21    1    1    2  503  502  0.23639178087E+02 -0.33911562489E+01 -0.15797121293E+03  0.15976612531E+03  0.00000000000E+00 0. -1.
          1    1    1    2  501    0  0.14483524106E+03 -0.15682642280E+03 -0.12396158109E+02  0.21383507354E+03  0.00000000000E+00 0. -1.
<scales pt_clust_5="13000.00000" pt_clust_6="13000.00000" pt_clust_7="13000.00000" pt_clust_8="13000.00000" pt_clust_9="23.88118" pt_clust_10="13000.00000"></scales>
<clustering>
<clus scale="   23.881">  2  9  1 -1</clus>
<clus scale="   76.221">  5  6 -1 -1</clus>
<clus scale="   90.757">  1  5  2 -1</clus>
<clus scale="   91.806">  7  8 -1 -1</clus>
<clus scale="  212.763">  7 10 -1 -1</clus>
<clus scale="   23.881">  2  5  1 -1</clus>
</clustering>
</event>
<event>
10    4  0.2866397E-005  0.1830991E+03  0.7546771E-02  0.1189561E+00
          2   -1    0    0  503    0 -0.00000000000E+00  0.00000000000E+00  0.77228135730E+03  0.77228135730E+03  0.00000000000E+00 0. -1.
         21   -1    0    0  501  502  0.00000000000E+00 -0.00000000000E+00 -0.45003943321E+02  0.45003943321E+02  0.00000000000E+00 0. -1.
         24    2    1    2    0    0  0.19038729804E+02 -0.87126729049E+02  0.13762193820E+03  0.18139250816E+03  0.77523570568E+02 0.  0.
         23    2    1    2    0    0  0.39488225111E+01 -0.20738596565E+02  0.27613599739E+03  0.29284788867E+03  0.95200390012E+02 0.  0.
        -11    1    3    3    0    0  0.37352323023E+02 -0.48107805525E+02  0.12049152012E+03  0.13501023446E+03  0.00000000000E+00 0.  1.
         12    1    3    3    0    0 -0.18313593219E+02 -0.39018923524E+02  0.17130418078E+02  0.46382273694E+02  0.00000000000E+00 0. -1.
        -11    1    4    4    0    0  0.38709287167E+02  0.60750684840E+01  0.55813900098E+02  0.68194624526E+02  0.00000000000E+00 0. -1.
         11    1    4    4    0    0 -0.34760464656E+02 -0.26813665049E+02  0.22032209729E+03  0.22465326415E+03  0.00000000000E+00 0.  1.
         21    1    1    2  503  502 -0.11416511138E+02  0.28761788200E+02  0.15734512836E+02  0.34715300391E+02  0.00000000000E+00 0. -1.
          1    1    1    2  501    0 -0.11571041177E+02  0.79103537414E+02  0.29778496555E+03  0.30832960340E+03  0.00000000000E+00 0. -1.
<scales pt_clust_5="13000.00000" pt_clust_6="13000.00000" pt_clust_7="13000.00000" pt_clust_8="13000.00000" pt_clust_9="30.94474" pt_clust_10="13000.00000"></scales>
<clustering>
<clus scale="   30.945">  2  9  1 -1</clus>
<clus scale="   77.524">  5  6 -1 -1</clus>
<clus scale="   95.200">  7  8 -1 -1</clus>
<clus scale="   84.422">  7 10 -1 -1</clus>
<clus scale="  104.741">  1  5  2 -1</clus>
<clus scale="   30.945">  2  5  1 -1</clus>
</clustering>
</event>
<event>
10    4  0.2866397E-005  0.3492046E+03  0.7546771E-02  0.1095794E+00
          4   -1    0    0  502    0 -0.00000000000E+00  0.00000000000E+00  0.91743653888E+02  0.91743653888E+02  0.00000000000E+00 0. -1.
         21   -1    0    0  503  502  0.00000000000E+00 -0.00000000000E+00 -0.11241011189E+04  0.11241011189E+04  0.00000000000E+00 0. -1.
         24    2    1    2    0    0  0.11223526851E+03 -0.59038645426E+02 -0.16473162785E+03  0.22295762264E+03  0.80568449947E+02 0.  0.
         23    2    1    2    0    0 -0.17899406664E+02  0.11343831004E+03 -0.35553439394E+03  0.38490483085E+03  0.92511537634E+02 0.  0.
        -11    1    3    3    0    0  0.39496079274E+02 -0.77755740767E+01 -0.11315797521E+03  0.12010465097E+03  0.00000000000E+00 0.  1.
         12    1    3    3    0    0  0.72739189232E+02 -0.51263071349E+02 -0.51573652641E+02  0.10285297167E+03  0.00000000000E+00 0. -1.
        -11    1    4    4    0    0  0.34245301115E+02  0.40602665422E+02 -0.88167704288E+02  0.10293134201E+03  0.00000000000E+00 0.  1.
         11    1    4    4    0    0 -0.52144707780E+02  0.72835644617E+02 -0.26736668965E+03  0.28197348884E+03  0.00000000000E+00 0. -1.
         21    1    1    2  503  501  0.37473483261E+00  0.68025138904E+02 -0.42493861251E+03  0.43034914238E+03  0.00000000000E+00 0. -1.
          3    1    1    2  501    0 -0.94710596674E+02 -0.12242480352E+03 -0.87152830701E+02  0.17763317691E+03  0.00000000000E+00 0. -1.
<scales pt_clust_5="13000.00000" pt_clust_6="13000.00000" pt_clust_7="13000.00000" pt_clust_8="13000.00000" pt_clust_9="68.02617" pt_clust_10="13000.00000"></scales>
<clustering>
<clus scale="   68.026">  2  9  1 -1</clus>
<clus scale="   80.568">  5  6 -1 -1</clus>
<clus scale="   92.512">  7  8 -1 -1</clus>
<clus scale="  143.944">  1  5  2 -1</clus>
<clus scale="  136.959">  7 10 -1 -1</clus>
<clus scale="   68.026">  2  5  1 -1</clus>
</clustering>
</event>
<event>
10    4  0.2866397E-005  0.1934559E+03  0.7546771E-02  0.1190047E+00
         21   -1    0    0  503  502  0.00000000000E+00  0.00000000000E+00  0.51350298403E+03  0.51350298403E+03  0.00000000000E+00 0. -1.
          2   -1    0    0  502    0 -0.00000000000E+00 -0.00000000000E+00 -0.47233161938E+02  0.47233161938E+02  0.00000000000E+00 0. -1.
         24    2    1    2    0    0 -0.17078559089E+02 -0.28113448512E+02  0.10493959048E+03  0.13674775459E+03  0.81274765866E+02 0.  0.
         23    2    1    2    0    0  0.55518303868E+02 -0.14937474448E+01  0.23464685540E+03  0.25944674479E+03  0.95754651513E+02 0.  0.
        -11    1    3    3    0    0 -0.46156602670E+02 -0.26238799197E+02  0.88736410573E+02  0.10340723918E+03  0.00000000000E+00 0.  1.
         12    1    3    3    0    0  0.29078043581E+02 -0.18746493147E+01  0.16203179909E+02  0.33340515408E+02  0.00000000000E+00 0. -1.
        -13    1    4    4    0    0 -0.23794770177E+02  0.97286129719E+01  0.95408797181E+02  0.98811313005E+02  0.00000000000E+00 0.  1.
         13    1    4    4    0    0  0.79313074045E+02 -0.11222360417E+02  0.13923805822E+03  0.16063543179E+03  0.00000000000E+00 0. -1.
         21    1    1    2  503  501  0.19085673997E+02 -0.11202921481E+02  0.71915036258E+02  0.75243211266E+02  0.00000000000E+00 0.  1.
          1    1    1    2  501    0 -0.57525418776E+02  0.40810117437E+02  0.54768339952E+02  0.89298435326E+02  0.00000000000E+00 0. -1.
<scales pt_clust_5="13000.00000" pt_clust_6="13000.00000" pt_clust_7="13000.00000" pt_clust_8="13000.00000" pt_clust_9="22.13071" pt_clust_10="13000.00000"></scales>
<clustering>
<clus scale="   22.131">  1  9  2 -1</clus>
<clus scale="   81.275">  5  6 -1 -1</clus>
<clus scale="   87.855">  2  5  1 -1</clus>
<clus scale="   95.755">  7  8 -1 -1</clus>
<clus scale="   64.690">  7 10 -1 -1</clus>
<clus scale="   22.131">  1  5  2 -1</clus>
</clustering>
</event>
<event>
10    4  0.2866397E-005  0.1695685E+03  0.7546771E-02  0.1208018E+00
         21   -1    0    0  503  502  0.00000000000E+00  0.00000000000E+00  0.52934309758E+03  0.52934309758E+03  0.00000000000E+00 0. -1.
          2   -1    0    0  502    0 -0.00000000000E+00 -0.00000000000E+00 -0.11410855091E+03  0.11410855091E+03  0.00000000000E+00 0. -1.
         24    2    1    2    0    0  0.25958690503E+02 -0.25971272701E+02 -0.53983285668E+02  0.10324103788E+03  0.79975972349E+02 0.  0.
         23    2    1    2    0    0  0.13674480462E+02  0.79453382350E+01  0.15301169360E+03  0.17929722156E+03  0.92112949493E+02 0.  0.
        -11    1    3    3    0    0 -0.84283162853E+01 -0.38190286970E+02 -0.12721760409E+01  0.39129949733E+02  0.00000000000E+00 0.  1.
         12    1    3    3    0    0  0.34387006788E+02  0.12219014269E+02 -0.52711109627E+02  0.64111088149E+02  0.00000000000E+00 0. -1.
        -13    1    4    4    0    0  0.40009701849E+02  0.68591803342E+01  0.23032446304E+02  0.46672456327E+02  0.00000000000E+00 0.  1.
         13    1    4    4    0    0 -0.26335221387E+02  0.10861579008E+01  0.12997924730E+03  0.13262476523E+03  0.00000000000E+00 0. -1.
         21    1    1    2  503  501  0.28112529260E+02  0.22582988767E+02  0.28307519780E+03  0.28536270480E+03  0.00000000000E+00 0. -1.
          1    1    1    2  501    0 -0.67745700225E+02 -0.45570543007E+01  0.33130940933E+02  0.75550684246E+02  0.00000000000E+00 0. -1.
<scales pt_clust_5="13000.00000" pt_clust_6="13000.00000" pt_clust_7="13000.00000" pt_clust_8="13000.00000" pt_clust_9="36.05975" pt_clust_10="13000.00000"></scales>
<clustering>
<clus scale="   36.060">  1  9  2 -1</clus>
<clus scale="   79.976">  5  6 -1 -1</clus>
<clus scale="   88.241">  2  5  1 -1</clus>
<clus scale="   92.113">  7  8 -1 -1</clus>
<clus scale="   48.232">  7 10 -1 -1</clus>
<clus scale="   36.060">  1  5  2 -1</clus>
</clustering>
</event>
<event>
10    4  0.2866397E-005  0.4314321E+03  0.7546771E-02  0.1057161E+00
         21   -1    0    0  501  502  0.00000000000E+00  0.00000000000E+00  0.49143525537E+02  0.49143525537E+02  0.00000000000E+00 0. -1.
          2   -1    0    0  503    0 -0.00000000000E+00 -0.00000000000E+00 -0.23710314102E+04  0.23710314102E+04  0.00000000000E+00 0. -1.
         24    2    1    2    0    0  0.41362539946E+02 -0.18751562808E+03 -0.69404609882E+03  0.72456711291E+03  0.80153249097E+02 0.  0.
         23    2    1    2    0    0  0.87125555650E+02 -0.53084215284E+02 -0.52237572660E+03  0.53991333193E+03  0.90670887845E+02 0.  0.
        -11    1    3    3    0    0 -0.20202843499E+02 -0.83160656041E+02 -0.24763431495E+03  0.26200496854E+03  0.00000000000E+00 0.  1.
         12    1    3    3    0    0  0.61565383445E+02 -0.10435497204E+03 -0.44641178387E+03  0.46256214438E+03  0.00000000000E+00 0. -1.
        -13    1    4    4    0    0  0.22853475962E+02  0.70448873118E+01 -0.24200891202E+02  0.34023446853E+02  0.00000000000E+00 0. -1.
         13    1    4    4    0    0  0.64272079688E+02 -0.60129102596E+02 -0.49817483539E+03  0.50588988508E+03  0.00000000000E+00 0.  1.
         21    1    1    2  503  502  0.11991836039E+02 -0.29518583275E+02 -0.84927667557E+02  0.90707549889E+02  0.00000000000E+00 0. -1.
          1    1    1    2  501    0 -0.14047993163E+03  0.27011842664E+03 -0.10205383917E+04  0.10649869410E+04  0.00000000000E+00 0. -1.
<scales pt_clust_5="13000.00000" pt_clust_6="13000.00000" pt_clust_7="13000.00000" pt_clust_8="13000.00000" pt_clust_9="31.86143" pt_clust_10="13000.00000"></scales>
<clustering>
<clus scale="   31.861">  1  9  2 -1</clus>
<clus scale="   80.153">  5  6 -1 -1</clus>
<clus scale="   90.671">  7  8 -1 -1</clus>
<clus scale="  217.687">  2  5  1 -1</clus>
<clus scale="  171.445">  7 10 -1 -1</clus>
<clus scale="   31.861">  1  5  2 -1</clus>
</clustering>
</event>
<event>
10    4  0.2866397E-005  0.1607939E+03  0.7546771E-02  0.1204879E+00
          2   -1    0    0  502    0 -0.00000000000E+00  0.00000000000E+00  0.32491759098E+03  0.32491759098E+03  0.00000000000E+00 0. -1.
         21   -1    0    0  503  502  0.00000000000E+00 -0.00000000000E+00 -0.83779040126E+02  0.83779040126E+02  0.00000000000E+00 0.  1.
         24    2    1    2    0    0  0.32843318751E+01 -0.89087354066E+02  0.88827850069E+02  0.14929841563E+03  0.80326125713E+02 0.  0.
         23    2    1    2    0    0 -0.20270255138E+02  0.23385440550E+02  0.89172677892E+02  0.13118270127E+03  0.91100892180E+02 0.  0.
        -11    1    3    3    0    0  0.80489273372E+01 -0.26951963973E+02 -0.12149189947E+02  0.30639784752E+02  0.00000000000E+00 0.  1.
         12    1    3    3    0    0 -0.47645954622E+01 -0.62135390093E+02  0.10097704002E+03  0.11865863088E+03  0.00000000000E+00 0. -1.
        -13    1    4    4    0    0 -0.40778931790E+02 -0.14157544476E+02  0.74229685987E+02  0.85868525231E+02  0.00000000000E+00 0. -1.
         13    1    4    4    0    0  0.20508676652E+02  0.37542985026E+02  0.14942991905E+02  0.45314176036E+02  0.00000000000E+00 0.  1.
         21    1    1    2  503  501 -0.30157020319E+02  0.28714156835E+02  0.65806374669E+00  0.41645908865E+02  0.00000000000E+00 0.  1.
          1    1    1    2  501    0  0.47142943582E+02  0.36987756681E+02  0.62479959143E+02  0.86569605338E+02  0.00000000000E+00 0. -1.
<scales pt_clust_5="13000.00000" pt_clust_6="13000.00000" pt_clust_7="13000.00000" pt_clust_8="13000.00000" pt_clust_9="41.64071" pt_clust_10="13000.00000"></scales>
<clustering>
<clus scale="   41.641">  2  9  1 -1</clus>
<clus scale="   80.326">  5  6 -1 -1</clus>
<clus scale="   91.101">  7  8 -1 -1</clus>
<clus scale="   59.300">  7 10 -1 -1</clus>
<clus scale="  110.709">  1  5  2 -1</clus>
<clus scale="   41.641">  2  5  1 -1</clus>
</clustering>
</event>
<event>
10    4  0.2866397E-005  0.3721159E+03  0.7546771E-02  0.1102905E+00
         -3   -1    0    0    0  501 -0.00000000000E+00  0.00000000000E+00  0.33908698051E+03  0.33908698051E+03  0.00000000000E+00 0.  1.
         21   -1    0    0  503  502  0.00000000000E+00 -0.00000000000E+00 -0.24061360732E+03  0.24061360732E+03  0.00000000000E+00 0.  1.
         24    2    1    2    0    0 -0.15896532942E+01  0.14843733931E+02 -0.28256635643E+01  0.94233783470E+02  0.93000850200E+02 0.  0.
         23    2    1    2    0    0  0.45332176813E+02 -0.11621997434E+02  0.24471714603E+03  0.26531384427E+03  0.91185949157E+02 0.  0.
        -13    1    3    3    0    0  0.41910024898E+02 -0.72696605676E+01  0.10170856903E+02  0.43734934341E+02  0.00000000000E+00 0.  1.
         14    1    3    3    0    0 -0.43499678192E+02  0.22113394499E+02 -0.12996520467E+02  0.50498849129E+02  0.00000000000E+00 0. -1.
        -13    1    4    4    0    0 -0.12694207509E+02  0.23457917159E+02  0.29988810837E+02  0.40134094697E+02  0.00000000000E+00 0. -1.
         13    1    4    4    0    0  0.58026384322E+02 -0.35079914593E+02  0.21472833519E+03  0.22517974957E+03  0.00000000000E+00 0.  1.
         21    1    1    2  503  501  0.10942170484E+02  0.70147614308E+02 -0.37883189631E+02  0.80470832882E+02  0.00000000000E+00 0.  1.
         -4    1    1    2    0  502 -0.54684694003E+02 -0.73369350805E+02 -0.10553491965E+03  0.13968212721E+03  0.00000000000E+00 0.  1.
<scales pt_clust_5="13000.00000" pt_clust_6="13000.00000" pt_clust_7="13000.00000" pt_clust_8="13000.00000" pt_clust_9="70.99591" pt_clust_10="13000.00000"></scales>
<clustering>
<clus scale="   70.996">  2  9  1 -1</clus>
<clus scale="   91.186">  7  8 -1 -1</clus>
<clus scale="   53.950">  7 10 -1 -1</clus>
<clus scale="   93.001">  5  6 -1 -1</clus>
<clus scale="   98.896">  1  5  2 -1</clus>
<clus scale="   70.996">  2  5  1 -1</clus>
</clustering>
</event>
<event>
10    4  0.2866397E-005  0.4208851E+03  0.7546771E-02  0.1091171E+00
         21   -1    0    0  501  502  0.00000000000E+00  0.00000000000E+00  0.43072548250E+03  0.43072548250E+03  0.00000000000E+00 0. -1.
          2   -1    0    0  503    0 -0.00000000000E+00 -0.00000000000E+00 -0.38420097744E+03  0.38420097744E+03  0.00000000000E+00 0. -1.
         24    2    1    2    0    0 -0.41723040734E+02  0.54224390320E+01 -0.12849061705E+03  0.15741462624E+03  0.80618303818E+02 0.  0.
         23    2    1    2    0    0  0.32072654749E+02 -0.10801691708E+03 -0.17954348756E+03  0.23105671016E+03  0.91951236148E+02 0.  0.
        -13    1    3    3    0    0 -0.18017894501E+02  0.32173512107E+02 -0.11225617212E+03  0.11815763870E+03  0.00000000000E+00 0.  1.
         14    1    3    3    0    0 -0.23705146233E+02 -0.26751073075E+02 -0.16234444932E+02  0.39256987542E+02  0.00000000000E+00 0. -1.
        -11    1    4    4    0    0  0.68541054603E+01 -0.10517519088E+03 -0.91979744484E+02  0.13988950259E+03  0.00000000000E+00 0.  1.
         11    1    4    4    0    0  0.25218549288E+02 -0.28417261972E+01 -0.87563743073E+02  0.91167207575E+02  0.00000000000E+00 0. -1.
         21    1    1    2  503  502 -0.60535107806E+02 -0.25077874093E+02  0.21478334356E+03  0.22455574746E+03  0.00000000000E+00 0. -1.
          1    1    1    2  501    0  0.70185493792E+02  0.12767235214E+03  0.13977526611E+03  0.20189937607E+03  0.00000000000E+00 0. -1.
<scales pt_clust_5="13000.00000" pt_clust_6="13000.00000" pt_clust_7="13000.00000" pt_clust_8="13000.00000" pt_clust_9="65.52403" pt_clust_10="13000.00000"></scales>
<clustering>
<clus scale="   65.524">  1  9  2 -1</clus>
<clus scale="   80.618">  5  6 -1 -1</clus>
<clus scale="   91.951">  7  8 -1 -1</clus>
<clus scale="   92.829">  2  5  1 -1</clus>
<clus scale="  108.986">  7 10 -1 -1</clus>
<clus scale="   65.524">  1  5  2 -1</clus>
</clustering>
</event>
<event>
10    4  0.2866397E-005  0.1467301E+03  0.7546771E-02  0.1227070E+00
         21   -1    0    0  501  502  0.00000000000E+00  0.00000000000E+00  0.82470219246E+02  0.82470219246E+02  0.00000000000E+00 0.  1.
         -3   -1    0    0    0  501 -0.00000000000E+00 -0.00000000000E+00 -0.25207871632E+03  0.25207871632E+03  0.00000000000E+00 0.  1.
         24    2    1    2    0    0  0.52180049894E+02  0.31564968086E+01 -0.86026424793E+02  0.12836577650E+03  0.79652405714E+02 0.  0.
         23    2    1    2    0    0  0.76257643497E+00 -0.50557663316E+02 -0.75606692517E+02  0.12870068461E+03  0.91054024748E+02 0.  0.
        -13    1    3    3    0    0  0.47246968396E+01  0.26888755202E+02 -0.94505284475E-02  0.27300696069E+02  0.00000000000E+00 0.  1.
         14    1    3    3    0    0  0.47455353055E+02 -0.23732258393E+02 -0.86016974264E+02  0.10106508044E+03  0.00000000000E+00 0. -1.
        -11    1    4    4    0    0  0.40085213475E+02 -0.50556478334E+02 -0.51728303376E+02  0.82695823419E+02  0.00000000000E+00 0.  1.
         11    1    4    4    0    0 -0.39322637040E+02 -0.11849824836E-02 -0.23878389141E+02  0.46004861190E+02  0.00000000000E+00 0. -1.
         21    1    1    2  503  502 -0.25575202459E+02  0.19118180292E+02  0.11023700881E+02  0.33780434864E+02  0.00000000000E+00 0. -1.
         -4    1    1    2    0  503 -0.27367423870E+02  0.28282986216E+02 -0.18999080643E+02  0.43702039585E+02  0.00000000000E+00 0.  1.
<scales pt_clust_5="13000.00000" pt_clust_6="13000.00000" pt_clust_7="13000.00000" pt_clust_8="13000.00000" pt_clust_9="31.93111" pt_clust_10="13000.00000"></scales>
<clustering>
<clus scale="   31.931">  1  9  2 -1</clus>
<clus scale="   79.652">  5  6 -1 -1</clus>
<clus scale="   91.054">  7  8 -1 -1</clus>
<clus scale="   45.850">  7 10 -1 -1</clus>
<clus scale="   91.136">  2  5  1 -1</clus>
<clus scale="   31.931">  1  5  2 -1</clus>
</clustering>
</event>
<event>
10    4  0.2866397E-005  0.2344719E+03  0.7546771E-02  0.1167569E+00
         -3   -1    0    0    0  501 -0.00000000000E+00  0.00000000000E+00  0.15934756389E+03  0.15934756389E+03  0.00000000000E+00 0.  1.
         21   -1    0    0  503  502  0.00000000000E+00 -0.00000000000E+00 -0.41372404526E+03  0.41372404526E+03  0.00000000000E+00 0. -1.
         24    2    1    2    0    0 -0.12339074746E+02 -0.17285729106E+02  0.22750332147E+02  0.85879736224E+02  0.80041878319E+02 0.  0.
         23    2    1    2    0    0  0.15037793458E+02 -0.75113353859E+02 -0.46518925471E+02  0.13584482561E+03  0.10208650772E+03 0.  0.
        -11    1    3    3    0    0  0.67738435440E+01  0.22725133149E+02 -0.14648166124E+02  0.27872664096E+02  0.00000000000E+00 0.  1.
         12    1    3    3    0    0 -0.19112918290E+02 -0.40010862256E+02  0.37398498270E+02  0.58007072128E+02  0.00000000000E+00 0. -1.
        -11    1    4    4    0    0  0.36326693882E+02 -0.61757803769E+02  0.11546671798E+02  0.72573966712E+02  0.00000000000E+00 0.  1.
         11    1    4    4    0    0 -0.21288900424E+02 -0.13355550090E+02 -0.58065597269E+02  0.63270858898E+02  0.00000000000E+00 0. -1.
         21    1    1    2  503  501  0.46097713613E+02  0.24012373538E+01 -0.24379445231E+03  0.24812597631E+03  0.00000000000E+00 0. -1.
         -4    1    1    2    0  502 -0.48796432324E+02  0.89997845611E+02  0.13186564271E+02  0.10322107101E+03  0.00000000000E+00 0.  1.
<scales pt_clust_5="13000.00000" pt_clust_6="13000.00000" pt_clust_7="13000.00000" pt_clust_8="13000.00000" pt_clust_9="46.16021" pt_clust_10="13000.00000"></scales>
<clustering>
<clus scale="   46.160">  2  9  1 -1</clus>
<clus scale="   80.042">  5  6 -1 -1</clus>
<clus scale="   81.875">  1  5  2 -1</clus>
<clus scale="  102.087">  7  8 -1 -1</clus>
<clus scale="   90.480">  7 10 -1 -1</clus>
<clus scale="   46.160">  2  5  1 -1</clus>
</clustering>
</event>
<event>
10    4  0.2866397E-005  0.2841751E+03  0.7546771E-02  0.1132018E+00
          2   -1    0    0  502    0 -0.00000000000E+00  0.00000000000E+00  0.47374963196E+03  0.47374963196E+03  0.00000000000E+00 0. -1.
         21   -1    0    0  503  502  0.00000000000E+00 -0.00000000000E+00 -0.23078946607E+03  0.23078946607E+03  0.00000000000E+00 0.  1.
         24    2    1    2    0    0  0.70119849543E+02 -0.38066802190E+02  0.12092267239E+03  0.16548787345E+03  0.79987929284E+02 0.  0.
         23    2    1    2    0    0  0.56660422230E+02  0.87091417051E+01  0.26831134665E+03  0.28709956489E+03  0.84551338378E+02 0.  0.
        -13    1    3    3    0    0  0.17229642332E+02 -0.49386559567E+02  0.87393589269E+02  0.10185053896E+03  0.00000000000E+00 0.  1.
         14    1    3    3    0    0  0.52890207210E+02  0.11319757377E+02  0.33529083120E+02  0.63637334487E+02  0.00000000000E+00 0. -1.
        -13    1    4    4    0    0 -0.11905438770E+02 -0.17462193563E+02  0.11741933767E+03  0.11930619655E+03  0.00000000000E+00 0.  1.
         13    1    4    4    0    0  0.68565861001E+02  0.26171335268E+02  0.15089200898E+03  0.16779336834E+03  0.00000000000E+00 0. -1.
         21    1    1    2  503  501 -0.26288392197E+02  0.20485755566E+02 -0.14734098402E+03  0.15106326925E+03  0.00000000000E+00 0.  1.
          1    1    1    2  501    0 -0.10049187958E+03  0.88719049189E+01  0.10671308712E+01  0.10088839044E+03  0.00000000000E+00 0. -1.
<scales pt_clust_5="13000.00000" pt_clust_6="13000.00000" pt_clust_7="13000.00000" pt_clust_8="13000.00000" pt_clust_9="33.32785" pt_clust_10="13000.00000"></scales>
<clustering>
<clus scale="   33.328">  2  9  1 -1</clus>
<clus scale="   79.988">  5  6 -1 -1</clus>
<clus scale="   84.551">  7  8 -1 -1</clus>
<clus scale="  106.836">  1  5  2 -1</clus>
<clus scale="  104.256">  7 10 -1 -1</clus>
<clus scale="   33.328">  2  5  1 -1</clus>
</clustering>
</event>
<event>
10    4  0.2866397E-005  0.6150438E+03  0.7546771E-02  0.1041027E+00
         21   -1    0    0  503  502  0.00000000000E+00  0.00000000000E+00  0.71528514536E+03  0.71528514536E+03  0.00000000000E+00 0.  1.
          2   -1    0    0  502    0 -0.00000000000E+00 -0.00000000000E+00 -0.49681340707E+03  0.49681340707E+03  0.00000000000E+00 0. -1.
         24    2    1    2    0    0  0.51887511906E+02  0.63318727379E+02 -0.18747351587E+03  0.22087470050E+03  0.83293091173E+02 0.  0.
         23    2    1    2    0    0  0.20647876034E+03  0.96782847470E+02 -0.84525280120E+01  0.24556177798E+03  0.90712422176E+02 0.  0.
        -11    1    3    3    0    0  0.37568159104E+02 -0.67733050544E+01 -0.10485230933E+03  0.11158517380E+03  0.00000000000E+00 0.  1.
         12    1    3    3    0    0  0.14319352802E+02  0.70092032433E+02 -0.82621206541E+02  0.10928952670E+03  0.00000000000E+00 0. -1.
        -11    1    4    4    0    0  0.13238952488E+03  0.93938398730E+02  0.24956837793E+02  0.16423840235E+03  0.00000000000E+00 0.  1.
         11    1    4    4    0    0  0.74089235461E+02  0.28444487397E+01 -0.33409365805E+02  0.81323375627E+02  0.00000000000E+00 0. -1.
         21    1    1    2  503  501  0.65680421640E+02  0.39190969513E+02  0.35192562116E+03  0.36014093451E+03  0.00000000000E+00 0.  1.
          1    1    1    2  501    0 -0.32404669389E+03 -0.19929254436E+03  0.62472161014E+02  0.38552113945E+03  0.00000000000E+00 0. -1.
<scales pt_clust_5="13000.00000" pt_clust_6="13000.00000" pt_clust_7="13000.00000" pt_clust_8="13000.00000" pt_clust_9="76.48431" pt_clust_10="13000.00000"></scales>
<clustering>
<clus scale="   76.484">  1  9  2 -1</clus>
<clus scale="   83.293">  5  6 -1 -1</clus>
<clus scale="   90.712">  7  8 -1 -1</clus>
<clus scale="  119.162">  2  5  1 -1</clus>
<clus scale="  296.551">  7 10 -1 -1</clus>
<clus scale="   76.484">  1  5  2 -1</clus>
</clustering>
</event>
<event>
10    4  0.2866397E-005  0.3598999E+03  0.7546771E-02  0.1071537E+00
         21   -1    0    0  503  502  0.00000000000E+00  0.00000000000E+00  0.43277328264E+03  0.43277328264E+03  0.00000000000E+00 0.  1.
         -3   -1    0    0    0  501 -0.00000000000E+00 -0.00000000000E+00 -0.41723221156E+03  0.41723221156E+03  0.00000000000E+00 0.  1.
         24    2    1    2    0    0 -0.19664395807E+03 -0.13363701283E+03  0.20166258015E+03  0.32166789669E+03  0.79213269632E+02 0.  0.
         23    2    1    2    0    0  0.17373449863E+03  0.14350357256E+03 -0.79100909170E+02  0.25550999721E+03  0.90837511485E+02 0.  0.
        -11    1    3    3    0    0 -0.45727396849E+02 -0.75517114472E+02  0.60716485090E+02  0.10714625968E+03  0.00000000000E+00 0.  1.
         12    1    3    3    0    0 -0.15091656122E+03 -0.58119898362E+02  0.14094609506E+03  0.21452163701E+03  0.00000000000E+00 0. -1.
        -11    1    4    4    0    0  0.85040763020E+02  0.11702229237E+03 -0.20875578556E+02  0.14615723748E+03  0.00000000000E+00 0.  1.
         11    1    4    4    0    0  0.88693735610E+02  0.26481280189E+02 -0.58225330614E+02  0.10935275974E+03  0.00000000000E+00 0. -1.
         21    1    1    2  503  501 -0.15184178426E+02  0.21696685966E+02  0.77442850668E+02  0.81845589839E+02  0.00000000000E+00 0.  1.
         -4    1    1    2    0  502  0.38093637863E+02 -0.31563245691E+02 -0.18446345057E+03  0.19098201046E+03  0.00000000000E+00 0.  1.
<scales pt_clust_5="13000.00000" pt_clust_6="13000.00000" pt_clust_7="13000.00000" pt_clust_8="13000.00000" pt_clust_9="26.48217" pt_clust_10="13000.00000"></scales>
<clustering>
<clus scale="   26.482">  1  9  2 -1</clus>
<clus scale="   79.213">  5  6 -1 -1</clus>
<clus scale="   90.838">  7  8 -1 -1</clus>
<clus scale="   49.235">  7 10 -1 -1</clus>
<clus scale="  251.626">  2  5  1 -1</clus>
<clus scale="   26.482">  1  5  2 -1</clus>
</clustering>
</event>
<event>
10    4  0.2866397E-005  0.1275917E+03  0.7546771E-02  0.1251057E+00
          2   -1    0    0  502    0 -0.00000000000E+00  0.00000000000E+00  0.17306200058E+03  0.17306200058E+03  0.00000000000E+00 0. -1.
         21   -1    0    0  503  502  0.00000000000E+00 -0.00000000000E+00 -0.36231064383E+03  0.36231064383E+03  0.00000000000E+00 0.  1.
         24    2    1    2    0    0 -0.87169906319E+01 -0.16599675918E+02  0.51040708594E+01  0.82418650743E+02  0.80095238839E+02 0.  0.
         23    2    1    2    0    0 -0.21091884637E+02  0.56078270621E+01  0.88013417482E+02  0.12887900667E+03  0.91581228319E+02 0.  0.
        -13    1    3    3    0    0 -0.38041108473E+02 -0.24764077878E+02 -0.12725871342E+02  0.47141630100E+02  0.00000000000E+00 0.  1.
         14    1    3    3    0    0  0.29324117841E+02  0.81644019601E+01  0.17829942202E+02  0.35277020643E+02  0.00000000000E+00 0. -1.
        -13    1    4    4    0    0  0.29137114589E+02 -0.20788473945E+02  0.22811602602E+02  0.42444096277E+02  0.00000000000E+00 0. -1.
         13    1    4    4    0    0 -0.50228999226E+02  0.26396301007E+02  0.65201814880E+02  0.86434910388E+02  0.00000000000E+00 0.  1.
         21    1    1    2  503  501  0.28196624406E+02 -0.21339160387E+02 -0.28889574901E+03  0.29105182218E+03  0.00000000000E+00 0.  1.
          1    1    1    2  501    0  0.16122508624E+01  0.32331009243E+02  0.65296174198E+01  0.33023164826E+02  0.00000000000E+00 0. -1.
<scales pt_clust_5="13000.00000" pt_clust_6="13000.00000" pt_clust_7="13000.00000" pt_clust_8="13000.00000" pt_clust_9="35.36113" pt_clust_10="13000.00000"></scales>
<clustering>
<clus scale="   35.361">  2  9  1 -1</clus>
<clus scale="   80.095">  5  6 -1 -1</clus>
<clus scale="   85.087">  1  5  2 -1</clus>
<clus scale="   91.581">  7  8 -1 -1</clus>
<clus scale="   25.747">  7 10 -1 -1</clus>
<clus scale="   35.361">  2  5  1 -1</clus>
</clustering>
</event>
<event>
10    4  0.2866397E-005  0.7383879E+03  0.7546771E-02  0.1014901E+00
         21   -1    0    0  501  502  0.00000000000E+00  0.00000000000E+00  0.70709866673E+03  0.70709866673E+03  0.00000000000E+00 0. -1.
          2   -1    0    0  503    0 -0.00000000000E+00 -0.00000000000E+00 -0.57545497639E+03  0.57545497639E+03  0.00000000000E+00 0. -1.
         24    2    1    2    0    0  0.28665405439E+01 -0.11163720167E+03 -0.15479805163E+03  0.21555406779E+03  0.10015007488E+03 0.  0.
         23    2    1    2    0    0 -0.94435332215E+02 -0.53317773584E+02 -0.14074528421E+03  0.19960004275E+03  0.90940228111E+02 0.  0.
        -13    1    3    3    0    0  0.48436422006E+02 -0.34947975789E+02 -0.74889588504E+02  0.95790910084E+02  0.00000000000E+00 0.  1.
         14    1    3    3    0    0 -0.45569881462E+02 -0.76689225885E+02 -0.79908463130E+02  0.11976315770E+03  0.00000000000E+00 0. -1.
        -13    1    4    4    0    0 -0.58506896785E+02  0.13205980373E+01 -0.19218734850E+02  0.61596759004E+02  0.00000000000E+00 0.  1.
         13    1    4    4    0    0 -0.35928435430E+02 -0.54638371622E+02 -0.12152654936E+03  0.13800328375E+03  0.00000000000E+00 0. -1.
         21    1    1    2  503  502 -0.17608916138E+03 -0.12671444104E+03 -0.73559817927E+02  0.22907420007E+03  0.00000000000E+00 0. -1.
          1    1    1    2  501    0  0.26765795305E+03  0.29166941630E+03  0.50074684411E+03  0.63832533251E+03  0.00000000000E+00 0. -1.
<scales pt_clust_5="13000.00000" pt_clust_6="13000.00000" pt_clust_7="13000.00000" pt_clust_8="13000.00000" pt_clust_9="243.96014" pt_clust_10="13000.00000"></scales>
<clustering>
<clus scale="   90.940">  7  8 -1 -1</clus>
<clus scale="  100.150">  5  6 -1 -1</clus>
<clus scale="  150.004">  2  5  1 -1</clus>
<clus scale="  243.960">  1  9  2 -1</clus>
<clus scale="  162.852">  7 10 -1 -1</clus>
<clus scale="  243.960">  1  5  2 -1</clus>
</clustering>
</event>
<event>
10    4  0.2866397E-005  0.1954270E+03  0.7546771E-02  0.1188713E+00
          2   -1    0    0  503    0 -0.00000000000E+00  0.00000000000E+00  0.97509175555E+03  0.97509175555E+03  0.00000000000E+00 0. -1.
         21   -1    0    0  501  502  0.00000000000E+00 -0.00000000000E+00 -0.78291465398E+02  0.78291465398E+02  0.00000000000E+00 0.  1.
         24    2    1    2    0    0  0.30054420562E+02  0.27552725552E+02  0.37596498107E+03  0.38655606619E+03  0.80084358247E+02 0.  0.
         23    2    1    2    0    0  0.39274200056E+02 -0.40982187721E+02  0.29590958417E+03  0.31304042991E+03  0.84910695762E+02 0.  0.
        -11    1    3    3    0    0  0.32312843948E+02 -0.22521303042E+02  0.18263226979E+03  0.18683114019E+03  0.00000000000E+00 0.  1.
         12    1    3    3    0    0 -0.22584233859E+01  0.50074028594E+02  0.19333271128E+03  0.19972492600E+03  0.00000000000E+00 0. -1.
        -11    1    4    4    0    0  0.50183843509E+02  0.11659135430E+01  0.94774305962E+02  0.10724712851E+03  0.00000000000E+00 0. -1.
         11    1    4    4    0    0 -0.10909643453E+02 -0.42148101264E+02  0.20113527821E+03  0.20579330140E+03  0.00000000000E+00 0.  1.
         21    1    1    2  503  502  0.61308753913E+01 -0.42463778680E+02 -0.48459593938E+02  0.64723198140E+02  0.00000000000E+00 0.  1.
          1    1    1    2  501    0 -0.75459496009E+02  0.55893240849E+02  0.27338531885E+03  0.28906352671E+03  0.00000000000E+00 0. -1.
<scales pt_clust_5="13000.00000" pt_clust_6="13000.00000" pt_clust_7="13000.00000" pt_clust_8="13000.00000" pt_clust_9="42.90408" pt_clust_10="13000.00000"></scales>
<clustering>
<clus scale="   42.904">  2  9  1 -1</clus>
<clus scale="   80.084">  5  6 -1 -1</clus>
<clus scale="   84.911">  7  8 -1 -1</clus>
<clus scale="   83.722">  7 10 -1 -1</clus>
<clus scale="   87.775">  1  5  2 -1</clus>
<clus scale="   42.904">  2  5  1 -1</clus>
</clustering>
</event>
<event>
10    4  0.2866397E-005  0.1836516E+03  0.7546771E-02  0.1186359E+00
         21   -1    0    0  501  502  0.00000000000E+00  0.00000000000E+00  0.81184925607E+02  0.81184925607E+02  0.00000000000E+00 0.  1.
          2   -1    0    0  503    0 -0.00000000000E+00 -0.00000000000E+00 -0.61403794616E+03  0.61403794616E+03  0.00000000000E+00 0. -1.
         24    2    1    2    0    0 -0.96873457335E+02  0.67724720584E+01 -0.22870976785E+03  0.26057157906E+03  0.78479658445E+02 0.  0.
         23    2    1    2    0    0 -0.23082710649E+02 -0.54539665989E+02 -0.16118562679E+03  0.19431251619E+03  0.90934927108E+02 0.  0.
        -11    1    3    3    0    0 -0.39133458381E+02  0.27075906298E+02 -0.39938537004E+02  0.62125832024E+02  0.00000000000E+00 0.  1.
         12    1    3    3    0    0 -0.57739998954E+02 -0.20303434240E+02 -0.18877123085E+03  0.19844574703E+03  0.00000000000E+00 0. -1.
        -11    1    4    4    0    0 -0.29559319900E+02 -0.76938956157E+02 -0.14169121991E+03  0.16391997488E+03  0.00000000000E+00 0.  1.
         11    1    4    4    0    0  0.64766092502E+01  0.22399290169E+02 -0.19494406886E+02  0.30392541310E+02  0.00000000000E+00 0. -1.
         21    1    1    2  503  502  0.53360118418E+02  0.43562718274E+02  0.13545935723E+02  0.70203312141E+02  0.00000000000E+00 0.  1.
          1    1    1    2  501    0  0.66596049566E+02  0.42044756565E+01 -0.15650356163E+03  0.17013546437E+03  0.00000000000E+00 0. -1.
<scales pt_clust_5="13000.00000" pt_clust_6="13000.00000" pt_clust_7="13000.00000" pt_clust_8="13000.00000" pt_clust_9="68.88405" pt_clust_10="13000.00000"></scales>
<clustering>
<clus scale="   68.884">  1  9  2 -1</clus>
<clus scale="   78.480">  5  6 -1 -1</clus>
<clus scale="   90.935">  7  8 -1 -1</clus>
<clus scale="   76.754">  7 10 -1 -1</clus>
<clus scale="  111.437">  2  5  1 -1</clus>
<clus scale="   68.884">  1  5  2 -1</clus>
</clustering>
</event>
<event>
10    4  0.2866397E-005  0.2564808E+03  0.7546771E-02  0.1143409E+00
         21   -1    0    0  501  502  0.00000000000E+00  0.00000000000E+00  0.97623721516E+03  0.97623721516E+03  0.00000000000E+00 0.  1.
          4   -1    0    0  503    0 -0.00000000000E+00 -0.00000000000E+00 -0.18562308281E+03  0.18562308281E+03  0.00000000000E+00 0. -1.
         24    2    1    2    0    0  0.28536085114E+02  0.75560821441E+02 -0.10516885484E+03  0.15572822437E+03  0.81651980680E+02 0.  0.
         23    2    1    2    0    0 -0.37562655843E+01 -0.71444517337E+02  0.58016336009E+02  0.13635681785E+03  0.10054281646E+03 0.  0.
        -13    1    3    3    0    0 -0.21302517680E+02  0.36726291869E+02 -0.13804363767E+02  0.44645024728E+02  0.00000000000E+00 0.  1.
         14    1    3    3    0    0  0.49838602794E+02  0.38834529572E+02 -0.91364491068E+02  0.11108319965E+03  0.00000000000E+00 0. -1.
        -11    1    4    4    0    0  0.23469046854E+02 -0.44082271701E+02  0.78209721838E+02  0.92794414856E+02  0.00000000000E+00 0.  1.
         11    1    4    4    0    0 -0.27225312438E+02 -0.27362245637E+02 -0.20193385830E+02  0.43562402997E+02  0.00000000000E+00 0. -1.
         21    1    1    2  503  502  0.11550885652E+02 -0.97847469651E+02  0.64390990884E+03  0.65140426847E+03  0.00000000000E+00 0.  1.
          3    1    1    2  501    0 -0.36330705182E+02  0.93731165548E+02  0.19385674233E+03  0.21837098727E+03  0.00000000000E+00 0. -1.
<scales pt_clust_5="13000.00000" pt_clust_6="13000.00000" pt_clust_7="13000.00000" pt_clust_8="13000.00000" pt_clust_9="98.52690" pt_clust_10="13000.00000"></scales>
<clustering>
<clus scale="   81.652">  5  6 -1 -1</clus>
<clus scale="   98.527">  1  9  2 -1</clus>
<clus scale="  100.543">  7  8 -1 -1</clus>
<clus scale="   43.504">  7 10 -1 -1</clus>
<clus scale="  110.278">  2  5  1 -1</clus>
<clus scale="   98.527">  1  5  2 -1</clus>
</clustering>
</event>
<event>
10    4  0.2866397E-005  0.3285502E+03  0.7546771E-02  0.1111983E+00
         21   -1    0    0  503  502  0.00000000000E+00  0.00000000000E+00  0.89912406296E+02  0.89912406296E+02  0.00000000000E+00 0. -1.
          2   -1    0    0  502    0 -0.00000000000E+00 -0.00000000000E+00 -0.12858880506E+04  0.12858880506E+04  0.00000000000E+00 0. -1.
         24    2    1    2    0    0 -0.73817267557E+02  0.50291726088E+02 -0.34982930927E+03  0.36980422712E+03  0.79977334746E+02 0.  0.
         23    2    1    2    0    0 -0.11281160754E+03 -0.15180972830E+02 -0.25823617840E+03  0.29659380948E+03  0.91241674997E+02 0.  0.
        -13    1    3    3    0    0 -0.46823480604E+02  0.71427053308E+02 -0.23961556820E+03  0.25438137275E+03  0.00000000000E+00 0.  1.
         14    1    3    3    0    0 -0.26993786953E+02 -0.21135327220E+02 -0.11021374107E+03  0.11542285437E+03  0.00000000000E+00 0. -1.
        -11    1    4    4    0    0 -0.82174984633E+02 -0.51949608295E+02 -0.18720450271E+03  0.21094315760E+03  0.00000000000E+00 0.  1.
         11    1    4    4    0    0 -0.30636622902E+02  0.36768635465E+02 -0.71031675690E+02  0.85650651884E+02  0.00000000000E+00 0. -1.
         21    1    1    2  503  501  0.34646714523E+02 -0.60699635698E+01  0.45418337951E+02  0.57446189666E+02  0.00000000000E+00 0. -1.
          1    1    1    2  501    0  0.15198216057E+03 -0.29040789689E+02 -0.63332849459E+03  0.65195623063E+03  0.00000000000E+00 0. -1.
<scales pt_clust_5="13000.00000" pt_clust_6="13000.00000" pt_clust_7="13000.00000" pt_clust_8="13000.00000" pt_clust_9="35.17441" pt_clust_10="13000.00000"></scales>
<clustering>
<clus scale="   35.174">  1  9  2 -1</clus>
<clus scale="   79.977">  5  6 -1 -1</clus>
<clus scale="   91.242">  7  8 -1 -1</clus>
<clus scale="  113.894">  2  5  1 -1</clus>
<clus scale="  111.963">  7 10 -1 -1</clus>
<clus scale="   35.174">  1  5  2 -1</clus>
</clustering>
</event>
<event>
10    4  0.4170878E-005  0.1995153E+03  0.7546771E-02  0.1161589E+00
         21   -1    0    0  501  502  0.00000000000E+00  0.00000000000E+00  0.56365094290E+03  0.56365094290E+03  0.00000000000E+00 0.  1.
          2   -1    0    0  503    0 -0.00000000000E+00 -0.00000000000E+00 -0.20833602303E+04  0.20833602303E+04  0.00000000000E+00 0. -1.
         24    2    1    2    0    0 -0.79675902352E+02  0.96929996648E+02 -0.17667105104E+04  0.17732649552E+04  0.86364924619E+02 0.  0.
         23    2    1    2    0    0  0.75873677344E+02 -0.72395937088E+01 -0.19544328656E+03  0.22885407120E+03  0.91470656583E+02 0.  0.
        -11    1    3    3    0    0 -0.22652519802E+02  0.49636015210E+02 -0.31687551081E+03  0.32153842695E+03  0.00000000000E+00 0.  1.
         12    1    3    3    0    0 -0.57023382550E+02  0.47293981437E+02 -0.14498349996E+04  0.14517265283E+04  0.00000000000E+00 0. -1.
        -11    1    4    4    0    0  0.26578382132E+02 -0.44033694916E+02 -0.53797365845E+02  0.74428040795E+02  0.00000000000E+00 0.  1.
         11    1    4    4    0    0  0.49295295213E+02  0.36794101207E+02 -0.14164592071E+03  0.15442603041E+03  0.00000000000E+00 0. -1.
         21    1    1    2  503  502 -0.10165592607E+03 -0.83471001561E+02  0.50518260498E+03  0.52202566965E+03  0.00000000000E+00 0.  1.
          1    1    1    2  501    0  0.10545815108E+03 -0.62194013778E+01 -0.62738095428E+02  0.12286647712E+03  0.00000000000E+00 0. -1.
<scales pt_clust_5="13000.00000" pt_clust_6="13000.00000" pt_clust_7="13000.00000" pt_clust_8="13000.00000" pt_clust_9="131.53454" pt_clust_10="13000.00000"></scales>
<clustering>
<clus scale="   86.365">  5  6 -1 -1</clus>
<clus scale="   91.471">  7  8 -1 -1</clus>
<clus scale="  105.641">  7 10 -1 -1</clus>
<clus scale="  131.535">  1  9  2 -1</clus>
<clus scale="  152.571">  2  5  1 -1</clus>
<clus scale="  131.535">  1  5  2 -1</clus>
</clustering>
</event>
<event>
10    4  0.2866397E-005  0.2383277E+03  0.7546771E-02  0.1164850E+00
         -1   -1    0    0    0  501 -0.00000000000E+00  0.00000000000E+00  0.22835481716E+03  0.22835481716E+03  0.00000000000E+00 0.  1.
         21   -1    0    0  503  502  0.00000000000E+00 -0.00000000000E+00 -0.21889629390E+03  0.21889629390E+03  0.00000000000E+00 0. -1.
         24    2    1    2    0    0 -0.11328938145E+01 -0.20047539127E+01 -0.11773862075E+03  0.14361203195E+03  0.82199333455E+02 0.  0.
         23    2    1    2    0    0  0.71088799212E+02 -0.66807507306E+02  0.59610867118E+02  0.14570959627E+03  0.90338090314E+02 0.  0.
        -13    1    3    3    0    0  0.37099450908E+02 -0.81143434212E+01 -0.32470653675E+02  0.49965539894E+02  0.00000000000E+00 0.  1.
         14    1    3    3    0    0 -0.38232344722E+02  0.61095895084E+01 -0.85267967071E+02  0.93646492061E+02  0.00000000000E+00 0. -1.
        -13    1    4    4    0    0  0.44445244901E+02 -0.77505573769E+02  0.12048880958E+02  0.90153587238E+02  0.00000000000E+00 0.  1.
         13    1    4    4    0    0  0.26643554311E+02  0.10698066463E+02  0.47561986160E+02  0.55556009035E+02  0.00000000000E+00 0. -1.
         21    1    1    2  503  501  0.16484155245E+02  0.12439159735E+02 -0.15189646010E+02  0.25635627844E+02  0.00000000000E+00 0. -1.
         -2    1    1    2    0  502 -0.86440060642E+02  0.56373101484E+02  0.82775922902E+02  0.13229385499E+03  0.00000000000E+00 0.  1.
<scales pt_clust_5="13000.00000" pt_clust_6="13000.00000" pt_clust_7="13000.00000" pt_clust_8="13000.00000" pt_clust_9="20.65091" pt_clust_10="13000.00000"></scales>
<clustering>
<clus scale="   20.651">  2  9  1 -1</clus>
<clus scale="   82.199">  5  6 -1 -1</clus>
<clus scale="   83.003">  1  5  2 -1</clus>
<clus scale="   90.338">  7  8 -1 -1</clus>
<clus scale="  100.221">  7 10 -1 -1</clus>
<clus scale="   20.651">  2  5  1 -1</clus>
</clustering>
</event>
<event>
10    4  0.2866397E-005  0.1334653E+03  0.7546771E-02  0.1240331E+00
         21   -1    0    0  503  502  0.00000000000E+00  0.00000000000E+00  0.10964465990E+03  0.10964465990E+03  0.00000000000E+00 0.  1.
         -3   -1    0    0    0  501 -0.00000000000E+00 -0.00000000000E+00 -0.35596415184E+03  0.35596415184E+03  0.00000000000E+00 0.  1.
         24    2    1    2    0    0  0.32007964346E+02  0.12246900501E+02  0.43943915160E+02  0.96038036104E+02  0.78215985231E+02 0.  0.
         23    2    1    2    0    0 -0.16218534200E+02  0.25332641549E+02 -0.17649115937E+03  0.20083943441E+03  0.91008601221E+02 0.  0.
        -13    1    3    3    0    0  0.40014846412E+01  0.31555635114E+02  0.52112880063E+02  0.61053437702E+02  0.00000000000E+00 0.  1.
         14    1    3    3    0    0  0.28006479705E+02 -0.19308734613E+02 -0.81689649023E+01  0.34984598402E+02  0.00000000000E+00 0. -1.
        -11    1    4    4    0    0 -0.53353129472E+02  0.23785095231E+02 -0.11508443493E+03  0.12906089393E+03  0.00000000000E+00 0. -1.
         11    1    4    4    0    0  0.37134595272E+02  0.15475463184E+01 -0.61406724444E+02  0.71778540473E+02  0.00000000000E+00 0.  1.
         21    1    1    2  503  501 -0.27988762674E+02 -0.77509276744E+02 -0.68652191252E+02  0.10725755069E+03  0.00000000000E+00 0.  1.
         -4    1    1    2    0  502  0.12199332528E+02  0.39929734693E+02 -0.45120056474E+02  0.61473790538E+02  0.00000000000E+00 0.  1.
<scales pt_clust_5="13000.00000" pt_clust_6="13000.00000" pt_clust_7="13000.00000" pt_clust_8="13000.00000" pt_clust_9="82.40792" pt_clust_10="13000.00000"></scales>
<clustering>
<clus scale="   78.216">  5  6 -1 -1</clus>
<clus scale="   82.408">  1  9  2 -1</clus>
<clus scale="   91.009">  7  8 -1 -1</clus>
<clus scale="   34.304">  7 10 -1 -1</clus>
<clus scale="   92.246">  2  5  1 -1</clus>
<clus scale="   82.408">  1  5  2 -1</clus>
</clustering>
</event>
<event>
10    4  0.2866397E-005  0.6399526E+03  0.7546771E-02  0.1029715E+00
         21   -1    0    0  501  502  0.00000000000E+00  0.00000000000E+00  0.30916465995E+03  0.30916465995E+03  0.00000000000E+00 0.  1.
          2   -1    0    0  503    0 -0.00000000000E+00 -0.00000000000E+00 -0.12910725318E+04  0.12910725318E+04  0.00000000000E+00 0. -1.
         24    2    1    2    0    0  0.79135148866E+02  0.12162694156E+03 -0.95955227836E+02  0.18902636010E+03  0.73946429005E+02 0.  0.
         23    2    1    2    0    0 -0.20096077063E+03  0.15839296508E+03 -0.31879506874E+03  0.41900699366E+03  0.91994576830E+02 0.  0.
        -13    1    3    3    0    0  0.96562220091E+00  0.40924267633E+02 -0.56864432322E+02  0.70066338357E+02  0.00000000000E+00 0.  1.
         14    1    3    3    0    0  0.78169526665E+02  0.80702673927E+02 -0.39090795514E+02  0.11896002174E+03  0.00000000000E+00 0. -1.
        -11    1    4    4    0    0 -0.45565958300E+02  0.27322391616E+02 -0.13450112095E+03  0.14461438786E+03  0.00000000000E+00 0. -1.
         11    1    4    4    0    0 -0.15539481233E+03  0.13107057346E+03 -0.18429394779E+03  0.27439260580E+03  0.00000000000E+00 0.  1.
         21    1    1    2  503  502 -0.94823431901E+02 -0.84923778043E+01  0.16008790448E+03  0.18625719014E+03  0.00000000000E+00 0.  1.
          1    1    1    2  501    0  0.21664905367E+03 -0.27152752883E+03 -0.72724547973E+03  0.80594664783E+03  0.00000000000E+00 0. -1.
<scales pt_clust_5="13000.00000" pt_clust_6="13000.00000" pt_clust_7="13000.00000" pt_clust_8="13000.00000" pt_clust_9="95.20296" pt_clust_10="13000.00000"></scales>
<clustering>
<clus scale="   73.946">  5  6 -1 -1</clus>
<clus scale="   91.995">  7  8 -1 -1</clus>
<clus scale="   95.203">  1  9  2 -1</clus>
<clus scale="  147.453">  2  5  1 -1</clus>
<clus scale="  296.614">  7 10 -1 -1</clus>
<clus scale="   95.203">  1  5  2 -1</clus>
</clustering>
</event>
<event>
10    4  0.2866397E-005  0.4138176E+03  0.7546771E-02  0.1078075E+00
         21   -1    0    0  501  502  0.00000000000E+00  0.00000000000E+00  0.52902879940E+03  0.52902879940E+03  0.00000000000E+00 0. -1.
          2   -1    0    0  503    0 -0.00000000000E+00 -0.00000000000E+00 -0.41748245541E+03  0.41748245541E+03  0.00000000000E+00 0. -1.
         24    2    1    2    0    0  0.51144015741E+02  0.76394026439E+02 -0.15575340969E+03  0.20518222535E+03  0.96896147235E+02 0.  0.
         23    2    1    2    0    0  0.96451706408E+02 -0.65216149317E+02  0.13105343902E+03  0.19758887494E+03  0.91160747142E+02 0.  0.
        -11    1    3    3    0    0 -0.28527613101E+02  0.21110808744E+02 -0.54023260676E+02  0.64637478673E+02  0.00000000000E+00 0.  1.
         12    1    3    3    0    0  0.79671628842E+02  0.55283217695E+02 -0.10173014901E+03  0.14054474668E+03  0.00000000000E+00 0. -1.
        -11    1    4    4    0    0  0.36792952992E+02 -0.78329957072E+02  0.82433745630E+02  0.11951830815E+03  0.00000000000E+00 0. -1.
         11    1    4    4    0    0  0.59658753416E+02  0.13113807755E+02  0.48619693387E+02  0.78070566785E+02  0.00000000000E+00 0.  1.
         21    1    1    2  503  502  0.15513870191E+01  0.76245838620E+02  0.29762683406E+03  0.30724187062E+03  0.00000000000E+00 0. -1.
          1    1    1    2  501    0 -0.14914710917E+03 -0.87423715742E+02 -0.16138051940E+03  0.23649828391E+03  0.00000000000E+00 0. -1.
<scales pt_clust_5="13000.00000" pt_clust_6="13000.00000" pt_clust_7="13000.00000" pt_clust_8="13000.00000" pt_clust_9="76.26162" pt_clust_10="13000.00000"></scales>
<clustering>
<clus scale="   76.262">  1  9  2 -1</clus>
<clus scale="   91.161">  7  8 -1 -1</clus>
<clus scale="   96.896">  5  6 -1 -1</clus>
<clus scale="  138.556">  2  5  1 -1</clus>
<clus scale="  105.979">  7 10 -1 -1</clus>
<clus scale="   76.262">  1  5  2 -1</clus>
</clustering>
</event>
<event>
10    4  0.2866397E-005  0.7085263E+03  0.7546771E-02  0.1029155E+00
          2   -1    0    0  503    0 -0.00000000000E+00  0.00000000000E+00  0.21805554196E+03  0.21805554196E+03  0.00000000000E+00 0. -1.
         21   -1    0    0  501  502  0.00000000000E+00 -0.00000000000E+00 -0.13406719217E+04  0.13406719217E+04  0.00000000000E+00 0. -1.
         24    2    1    2    0    0  0.13917286475E+02 -0.73071357342E+02  0.81652976347E+02  0.13726334021E+03  0.81491728985E+02 0.  0.
         23    2    1    2    0    0  0.38597130567E+02 -0.29767863309E+03 -0.36913629971E+03  0.48432536991E+03  0.90593317033E+02 0.  0.
        -11    1    3    3    0    0  0.36707800517E+02 -0.19525146088E+02  0.62959571216E+01  0.42051551989E+02  0.00000000000E+00 0.  1.
         12    1    3    3    0    0 -0.22790514043E+02 -0.53546211254E+02  0.75357019226E+02  0.95211788223E+02  0.00000000000E+00 0. -1.
        -13    1    4    4    0    0  0.17456064085E+02 -0.18840906871E+03 -0.29545138352E+03  0.35084784647E+03  0.00000000000E+00 0. -1.
         13    1    4    4    0    0  0.21141066482E+02 -0.10926956437E+03 -0.73684916187E+02  0.13347752344E+03  0.00000000000E+00 0.  1.
         21    1    1    2  503  502 -0.24672042396E+02 -0.13649714695E+02 -0.13522500696E+03  0.13813336634E+03  0.00000000000E+00 0. -1.
          1    1    1    2  501    0 -0.27842374646E+02  0.38439970513E+03 -0.69990804942E+03  0.79900538719E+03  0.00000000000E+00 0. -1.
<scales pt_clust_5="13000.00000" pt_clust_6="13000.00000" pt_clust_7="13000.00000" pt_clust_8="13000.00000" pt_clust_9="28.19618" pt_clust_10="13000.00000"></scales>
<clustering>
<clus scale="   28.196">  2  9  1 -1</clus>
<clus scale="   81.492">  5  6 -1 -1</clus>
<clus scale="   90.593">  7  8 -1 -1</clus>
<clus scale="  110.475">  1  5  2 -1</clus>
<clus scale="  344.974">  7 10 -1 -1</clus>
<clus scale="   28.196">  2  5  1 -1</clus>
</clustering>
</event>
<event>
10    4  0.2866397E-005  0.2828288E+03  0.7546771E-02  0.1126129E+00
         -1   -1    0    0    0  501 -0.00000000000E+00  0.00000000000E+00  0.71033602586E+03  0.71033602586E+03  0.00000000000E+00 0.  1.
         21   -1    0    0  503  502  0.00000000000E+00 -0.00000000000E+00 -0.14790765429E+03  0.14790765429E+03  0.00000000000E+00 0. -1.
         24    2    1    2    0    0 -0.88339155459E+02 -0.50480225726E+02  0.44422871096E+03  0.46271096930E+03  0.80063936266E+02 0.  0.
         23    2    1    2    0    0 -0.40871790236E+01  0.15113326315E+02 -0.80946425940E+02  0.12249453531E+03  0.90595086200E+02 0.  0.
        -11    1    3    3    0    0 -0.84769486582E+02 -0.67943684305E+02  0.40962434870E+03  0.42378569719E+03  0.00000000000E+00 0.  1.
         12    1    3    3    0    0 -0.35696688767E+01  0.17463458579E+02  0.34604362260E+02  0.38925272110E+02  0.00000000000E+00 0. -1.
        -13    1    4    4    0    0 -0.25222945989E+02  0.21833489807E+02  0.49999269857E+01  0.33732737087E+02  0.00000000000E+00 0.  1.
         13    1    4    4    0    0  0.21135766965E+02 -0.67201634917E+01 -0.85946352926E+02  0.88761798223E+02  0.00000000000E+00 0. -1.
         21    1    1    2  503  501  0.32545432828E+02  0.90401344916E+02  0.64458283281E+02  0.11569995092E+03  0.00000000000E+00 0. -1.
         -2    1    1    2    0  502  0.59880901654E+02 -0.55034445505E+02  0.13468780327E+03  0.15733822462E+03  0.00000000000E+00 0.  1.
<scales pt_clust_5="13000.00000" pt_clust_6="13000.00000" pt_clust_7="13000.00000" pt_clust_8="13000.00000" pt_clust_9="96.08126" pt_clust_10="13000.00000"></scales>
<clustering>
<clus scale="   80.064">  5  6 -1 -1</clus>
<clus scale="   90.595">  7  8 -1 -1</clus>
<clus scale="   81.330">  7 10 -1 -1</clus>
<clus scale="   96.081">  2  9  1 -1</clus>
<clus scale="  125.263">  1  5  2 -1</clus>
<clus scale="   96.081">  2  5  1 -1</clus>
</clustering>
</event>
<event>
10    4  0.2866397E-005  0.2397961E+03  0.7546771E-02  0.1160598E+00
          2   -1    0    0  502    0 -0.00000000000E+00  0.00000000000E+00  0.31137409988E+03  0.31137409988E+03  0.00000000000E+00 0. -1.
         21   -1    0    0  503  502  0.00000000000E+00 -0.00000000000E+00 -0.16825949168E+03  0.16825949168E+03  0.00000000000E+00 0. -1.
         24    2    1    2    0    0 -0.62004153846E+01 -0.21523423896E+01  0.13657814355E+03  0.16344490465E+03  0.89540883582E+02 0.  0.
         23    2    1    2    0    0  0.39351634388E+02 -0.56511680093E+02  0.12751738052E+03  0.17468222544E+03  0.97524747811E+02 0.  0.
        -11    1    3    3    0    0 -0.19327679644E+02  0.31359243727E+02  0.21021264682E+02  0.42412910021E+02  0.00000000000E+00 0.  1.
         12    1    3    3    0    0  0.13127264259E+02 -0.33511586117E+02  0.11555687887E+03  0.12103199463E+03  0.00000000000E+00 0. -1.
        -11    1    4    4    0    0  0.71377602176E+02 -0.41619551367E+02  0.10114488471E+03  0.13060335697E+03  0.00000000000E+00 0.  1.
         11    1    4    4    0    0 -0.32025967788E+02 -0.14892128726E+02  0.26372495805E+02  0.44078868471E+02  0.00000000000E+00 0. -1.
         21    1    1    2  503  501 -0.16045001886E+02  0.13996039787E+02 -0.62084412165E+02  0.65633874251E+02  0.00000000000E+00 0. -1.
          1    1    1    2  501    0 -0.17106217117E+02  0.44667982695E+02 -0.58896503701E+02  0.75872587213E+02  0.00000000000E+00 0. -1.
<scales pt_clust_5="13000.00000" pt_clust_6="13000.00000" pt_clust_7="13000.00000" pt_clust_8="13000.00000" pt_clust_9="21.29158" pt_clust_10="13000.00000"></scales>
<clustering>
<clus scale="   21.292">  2  9  1 -1</clus>
<clus scale="   89.541">  5  6 -1 -1</clus>
<clus scale="   89.922">  1  5  2 -1</clus>
<clus scale="   97.525">  7  8 -1 -1</clus>
<clus scale="   60.651">  7 10 -1 -1</clus>
<clus scale="   21.292">  2  5  1 -1</clus>
</clustering>
</event>
<event>
10    4  0.2866397E-005  0.1897898E+03  0.7546771E-02  0.1182729E+00
         -1   -1    0    0    0  501 -0.00000000000E+00  0.00000000000E+00  0.32621140956E+03  0.32621140956E+03  0.00000000000E+00 0.  1.
         21   -1    0    0  503  502  0.00000000000E+00 -0.00000000000E+00 -0.94921133691E+02  0.94921133691E+02  0.00000000000E+00 0. -1.
         24    2    1    2    0    0  0.72582468287E+02  0.74405247237E+01  0.52181840185E+02  0.12054919394E+03  0.80533145998E+02 0.  0.
         23    2    1    2    0    0 -0.23145764036E+02  0.46767655458E+02  0.52131616782E+02  0.11653798004E+03  0.90224471927E+02 0.  0.
        -11    1    3    3    0    0  0.29078748425E+02  0.14193902861E+02  0.66747624025E+02  0.74177394140E+02  0.00000000000E+00 0.  1.
         12    1    3    3    0    0  0.43503719861E+02 -0.67533781369E+01 -0.14565783840E+02  0.46371799802E+02  0.00000000000E+00 0. -1.
        -11    1    4    4    0    0 -0.41529082328E+02  0.64777410332E+02  0.29974778132E+02  0.82578840464E+02  0.00000000000E+00 0.  1.
         11    1    4    4    0    0  0.18383318292E+02 -0.18009754874E+02  0.22156838650E+02  0.33959139580E+02  0.00000000000E+00 0. -1.
         21    1    1    2  503  501  0.33269763110E+01 -0.20103712878E+02 -0.17269630355E+02  0.26710825061E+02  0.00000000000E+00 0. -1.
         -2    1    1    2    0  502 -0.52763680562E+02 -0.34104467303E+02  0.14424644925E+03  0.15733454420E+03  0.00000000000E+00 0.  1.
<scales pt_clust_5="13000.00000" pt_clust_6="13000.00000" pt_clust_7="13000.00000" pt_clust_8="13000.00000" pt_clust_9="20.37715" pt_clust_10="13000.00000"></scales>
<clustering>
<clus scale="   20.377">  2  9  1 -1</clus>
<clus scale="   80.533">  5  6 -1 -1</clus>
<clus scale="   90.224">  7  8 -1 -1</clus>
<clus scale="   63.577">  7 10 -1 -1</clus>
<clus scale="  109.483">  1  5  2 -1</clus>
<clus scale="   20.377">  2  5  1 -1</clus>
</clustering>
</event>
<event>
10    4  0.2866397E-005  0.7071395E+03  0.7546771E-02  0.9987421E-01
         21   -1    0    0  501  502  0.00000000000E+00  0.00000000000E+00  0.14982453779E+04  0.14982453779E+04  0.00000000000E+00 0. -1.
          2   -1    0    0  503    0 -0.00000000000E+00 -0.00000000000E+00 -0.20838126178E+03  0.20838126178E+03  0.00000000000E+00 0. -1.
         24    2    1    2    0    0 -0.22334611350E+03  0.11566406070E+03  0.66046307636E+03  0.71112550757E+03  0.78907229894E+02 0.  0.
         23    2    1    2    0    0 -0.16162893502E+03  0.12103261643E+03  0.17834115166E+03  0.28489388815E+03  0.92661503611E+02 0.  0.
        -13    1    3    3    0    0 -0.57682067787E+02  0.36435651090E+02  0.97736269657E+02  0.11919377509E+03  0.00000000000E+00 0.  1.
         14    1    3    3    0    0 -0.16566404571E+03  0.79228409609E+02  0.56272680671E+03  0.59193173248E+03  0.00000000000E+00 0. -1.
        -11    1    4    4    0    0 -0.55406699639E+02  0.77093905556E+01  0.90663818754E+02  0.10653292964E+03  0.00000000000E+00 0.  1.
         11    1    4    4    0    0 -0.10622223539E+03  0.11332322587E+03  0.87677332906E+02  0.17836095850E+03  0.00000000000E+00 0. -1.
         21    1    1    2  503  502 -0.26703357807E+02  0.34391710776E+02  0.88759749127E+02  0.98864311829E+02  0.00000000000E+00 0. -1.
          1    1    1    2  501    0  0.41167840633E+03 -0.27108838790E+03  0.36230013894E+03  0.61174293209E+03  0.00000000000E+00 0. -1.
<scales pt_clust_5="13000.00000" pt_clust_6="13000.00000" pt_clust_7="13000.00000" pt_clust_8="13000.00000" pt_clust_9="43.54146" pt_clust_10="13000.00000"></scales>
<clustering>
<clus scale="   43.541">  1  9  2 -1</clus>
<clus scale="   78.907">  5  6 -1 -1</clus>
<clus scale="   92.662">  7  8 -1 -1</clus>
<clus scale="  282.223">  2  5  1 -1</clus>
<clus scale="  297.342">  7 10 -1 -1</clus>
<clus scale="   43.541">  1  5  2 -1</clus>
</clustering>
</event>
<event>
10    4  0.2866397E-005  0.3250391E+03  0.7546771E-02  0.1121370E+00
         -1   -1    0    0    0  501 -0.00000000000E+00  0.00000000000E+00  0.16770547401E+03  0.16770547401E+03  0.00000000000E+00 0.  1.
         21   -1    0    0  503  502  0.00000000000E+00 -0.00000000000E+00 -0.39215400531E+03  0.39215400531E+03  0.00000000000E+00 0.  1.
         24    2    1    2    0    0  0.32080817740E+02  0.98660007569E+01 -0.16411726732E+03  0.18626207987E+03  0.81440580332E+02 0.  0.
         23    2    1    2    0    0 -0.10104738180E+03  0.93857533868E+01  0.10232001807E+03  0.16971092619E+03  0.89631170003E+02 0.  0.
        -11    1    3    3    0    0  0.28352439761E+02  0.40528750473E+02 -0.60535396641E+02  0.78172723515E+02  0.00000000000E+00 0.  1.
         12    1    3    3    0    0  0.37283779794E+01 -0.30662749716E+02 -0.10358187068E+03  0.10808935635E+03  0.00000000000E+00 0. -1.
        -13    1    4    4    0    0 -0.31696944156E+02  0.41536371043E+02  0.68424936938E+02  0.86092615149E+02  0.00000000000E+00 0.  1.
         13    1    4    4    0    0 -0.69350437639E+02 -0.32150617657E+02  0.33895081136E+02  0.83618311043E+02  0.00000000000E+00 0. -1.
         21    1    1    2  503  501  0.68896765897E+01  0.35180174459E+02 -0.26200977960E+02  0.44402742759E+02  0.00000000000E+00 0.  1.
         -2    1    1    2    0  502  0.62076887465E+02 -0.54431928603E+02 -0.13645030409E+03  0.15948373051E+03  0.00000000000E+00 0.  1.
<scales pt_clust_5="13000.00000" pt_clust_6="13000.00000" pt_clust_7="13000.00000" pt_clust_8="13000.00000" pt_clust_9="35.84846" pt_clust_10="13000.00000"></scales>
<clustering>
<clus scale="   35.848">  2  9  1 -1</clus>
<clus scale="   81.441">  5  6 -1 -1</clus>
<clus scale="   89.631">  7  8 -1 -1</clus>
<clus scale="   76.184">  7 10 -1 -1</clus>
<clus scale="   92.880">  1  5  2 -1</clus>
<clus scale="   35.848">  2  5  1 -1</clus>
</clustering>
</event>
<event>
10    4  0.2866397E-005  0.1705957E+03  0.7546771E-02  0.1201264E+00
         21   -1    0    0  503  502  0.00000000000E+00  0.00000000000E+00  0.20527838864E+03  0.20527838864E+03  0.00000000000E+00 0.  1.
          2   -1    0    0  502    0 -0.00000000000E+00 -0.00000000000E+00 -0.88693153981E+03  0.88693153981E+03  0.00000000000E+00 0. -1.
         24    2    1    2    0    0 -0.17884642210E+02  0.49026545415E+02 -0.37468531788E+03  0.38692456073E+03  0.81228478214E+02 0.  0.
         23    2    1    2    0    0 -0.19891073352E+02 -0.34477644302E+02 -0.20020210497E+03  0.22428209355E+03  0.92936601478E+02 0.  0.
        -13    1    3    3    0    0 -0.21056132332E+02  0.13856311257E+02 -0.25140790506E+02  0.35600806419E+02  0.00000000000E+00 0.  1.
         14    1    3    3    0    0  0.31714901217E+01  0.35170234159E+02 -0.34954452738E+03  0.35132375431E+03  0.00000000000E+00 0. -1.
        -13    1    4    4    0    0 -0.27691072028E+02 -0.64426896602E+02 -0.14130198742E+03  0.15774622698E+03  0.00000000000E+00 0.  1.
         13    1    4    4    0    0  0.77999986763E+01  0.29949252300E+02 -0.58900117553E+02  0.66535866572E+02  0.00000000000E+00 0. -1.
         21    1    1    2  503  501 -0.17258593260E+02  0.18075086476E+02  0.18277645205E+03  0.18447709672E+03  0.00000000000E+00 0.  1.
          1    1    1    2  501    0  0.55034308822E+02 -0.32623987589E+02 -0.28954218035E+03  0.29652617745E+03  0.00000000000E+00 0. -1.
<scales pt_clust_5="13000.00000" pt_clust_6="13000.00000" pt_clust_7="13000.00000" pt_clust_8="13000.00000" pt_clust_9="24.99135" pt_clust_10="13000.00000"></scales>
<clustering>
<clus scale="   24.991">  1  9  2 -1</clus>
<clus scale="   81.228">  5  6 -1 -1</clus>
<clus scale="   92.937">  7  8 -1 -1</clus>
<clus scale="   60.106">  7 10 -1 -1</clus>
<clus scale="  100.234">  2  5  1 -1</clus>
<clus scale="   24.991">  1  5  2 -1</clus>
</clustering>
</event>
<event>
10    4  0.2866397E-005  0.6126433E+03  0.7546771E-02  0.1013664E+00
          4   -1    0    0  503    0 -0.00000000000E+00  0.00000000000E+00  0.39704786053E+03  0.39704786053E+03  0.00000000000E+00 0. -1.
         21   -1    0    0  501  502  0.00000000000E+00 -0.00000000000E+00 -0.13144502886E+04  0.13144502886E+04  0.00000000000E+00 0. -1.
         24    2    1    2    0    0  0.10424367271E+03  0.19479100043E+03 -0.49346161307E+03  0.54764685508E+03  0.87191955751E+02 0.  0.
         23    2    1    2    0    0  0.10656724625E+03  0.11183735965E+03  0.78153981604E+02  0.19550587208E+03  0.90831317215E+02 0.  0.
        -13    1    3    3    0    0  0.11571324436E+03  0.14047736729E+03 -0.37941364775E+03  0.42080656095E+03  0.00000000000E+00 0.  1.
         14    1    3    3    0    0 -0.11469571650E+02  0.54313633140E+02 -0.11404796533E+03  0.12684029413E+03  0.00000000000E+00 0. -1.
        -13    1    4    4    0    0  0.13385898151E+01  0.40242062012E+02  0.51667841777E+02  0.65504055230E+02  0.00000000000E+00 0.  1.
         13    1    4    4    0    0  0.10522865644E+03  0.71595297641E+02  0.26486139828E+02  0.13000181685E+03  0.00000000000E+00 0. -1.
         21    1    1    2  503  502  0.82371894612E+02  0.13606277494E+02 -0.52689118578E+03  0.53346469561E+03  0.00000000000E+00 0. -1.
          3    1    1    2  501    0 -0.29318281358E+03 -0.32023463758E+03  0.24796389136E+02  0.43488072640E+03  0.00000000000E+00 0. -1.
<scales pt_clust_5="13000.00000" pt_clust_6="13000.00000" pt_clust_7="13000.00000" pt_clust_8="13000.00000" pt_clust_9="83.48808" pt_clust_10="13000.00000"></scales>
<clustering>
<clus scale="   83.488">  2  9  1 -1</clus>
<clus scale="   87.192">  5  6 -1 -1</clus>
<clus scale="   90.831">  7  8 -1 -1</clus>
<clus scale="  272.765">  1  5  2 -1</clus>
<clus scale="  263.560">  7 10 -1 -1</clus>
<clus scale="   83.488">  2  5  1 -1</clus>
</clustering>
</event>
<event>
10    4  0.2866397E-005  0.6123046E+03  0.7546771E-02  0.1025474E+00
         21   -1    0    0  501  502  0.00000000000E+00  0.00000000000E+00  0.10312276672E+03  0.10312276672E+03  0.00000000000E+00 0. -1.
          2   -1    0    0  503    0 -0.00000000000E+00 -0.00000000000E+00 -0.21959809707E+04  0.21959809707E+04  0.00000000000E+00 0. -1.
         24    2    1    2    0    0 -0.16215576262E+03  0.24112953443E+02 -0.56762826746E+03  0.59571351567E+03  0.76136829877E+02 0.  0.
         23    2    1    2    0    0 -0.94555990848E+02 -0.15768256340E+03 -0.79289255321E+03  0.81902057623E+03  0.91167302991E+02 0.  0.
        -11    1    3    3    0    0 -0.89499598572E+02  0.29663969530E+02 -0.20236230965E+03  0.22325015924E+03  0.00000000000E+00 0.  1.
         12    1    3    3    0    0 -0.72656164049E+02 -0.55510160879E+01 -0.36526595781E+03  0.37246335643E+03  0.00000000000E+00 0. -1.
        -11    1    4    4    0    0 -0.49931309989E+02 -0.12477142605E+02 -0.25197385686E+03  0.25717628068E+03  0.00000000000E+00 0.  1.
         11    1    4    4    0    0 -0.44624680859E+02 -0.14520542079E+03 -0.54091869636E+03  0.56184429555E+03  0.00000000000E+00 0. -1.
         21    1    1    2  503  502 -0.72746549034E+02 -0.69007143085E+02 -0.90814418037E+02  0.13528231487E+03  0.00000000000E+00 0.  1.
          1    1    1    2  501    0  0.32945830250E+03  0.20257675304E+03 -0.64152296530E+03  0.74908733066E+03  0.00000000000E+00 0. -1.
<scales pt_clust_5="13000.00000" pt_clust_6="13000.00000" pt_clust_7="13000.00000" pt_clust_8="13000.00000" pt_clust_9="100.26987" pt_clust_10="13000.00000"></scales>
<clustering>
<clus scale="   76.137">  5  6 -1 -1</clus>
<clus scale="   91.167">  7  8 -1 -1</clus>
<clus scale="  100.270">  1  9  2 -1</clus>
<clus scale="  191.033">  2  5  1 -1</clus>
<clus scale="  270.446">  7 10 -1 -1</clus>
<clus scale="  100.270">  1  5  2 -1</clus>
</clustering>
</event>
<event>
10    4  0.2866397E-005  0.1822775E+03  0.7546771E-02  0.1192744E+00
         21   -1    0    0  501  502  0.00000000000E+00  0.00000000000E+00  0.11416250310E+03  0.11416250310E+03  0.00000000000E+00 0.  1.
          2   -1    0    0  503    0 -0.00000000000E+00 -0.00000000000E+00 -0.59404860892E+03  0.59404860892E+03  0.00000000000E+00 0. -1.
         24    2    1    2    0    0 -0.14039789373E+02  0.69432076140E+02 -0.74642820117E+02  0.13299219711E+03  0.84246335313E+02 0.  0.
         23    2    1    2    0    0 -0.44918464806E+02  0.69479451358E+01 -0.25219818696E+03  0.27193679144E+03  0.90993134953E+02 0.  0.
        -11    1    3    3    0    0 -0.36272678939E+02  0.43809721217E+01 -0.45425212039E+02  0.58295368966E+02  0.00000000000E+00 0.  1.
         12    1    3    3    0    0  0.22232889566E+02  0.65051104019E+02 -0.29217608078E+02  0.74696828141E+02  0.00000000000E+00 0. -1.
        -13    1    4    4    0    0 -0.32314332820E+02 -0.40812957699E+02 -0.13911876488E+03  0.14853936974E+03  0.00000000000E+00 0. -1.
         13    1    4    4    0    0 -0.12604131986E+02  0.47760902835E+02 -0.11307942208E+03  0.12339742169E+03  0.00000000000E+00 0.  1.
         21    1    1    2  503  502 -0.47826297270E+01 -0.31984800873E+02  0.64571500965E+02  0.72217586299E+02  0.00000000000E+00 0.  1.
          1    1    1    2  501    0  0.63740883906E+02 -0.44395220404E+02 -0.21761659971E+03  0.23106453719E+03  0.00000000000E+00 0. -1.
<scales pt_clust_5="13000.00000" pt_clust_6="13000.00000" pt_clust_7="13000.00000" pt_clust_8="13000.00000" pt_clust_9="32.34039" pt_clust_10="13000.00000"></scales>
<clustering>
<clus scale="   32.340">  1  9  2 -1</clus>
<clus scale="   84.246">  5  6 -1 -1</clus>
<clus scale="   90.993">  7  8 -1 -1</clus>
<clus scale="   79.900">  7 10 -1 -1</clus>
<clus scale="   98.968">  2  5  1 -1</clus>
<clus scale="   32.340">  1  5  2 -1</clus>
</clustering>
</event>
<event>
10    4  0.2866397E-005  0.2029402E+03  0.7546771E-02  0.1158237E+00
         21   -1    0    0  503  502  0.00000000000E+00  0.00000000000E+00  0.14504480604E+03  0.14504480604E+03  0.00000000000E+00 0.  1.
         -3   -1    0    0    0  501 -0.00000000000E+00 -0.00000000000E+00 -0.41720975022E+03  0.41720975022E+03  0.00000000000E+00 0.  1.
         24    2    1    2    0    0  0.21414882432E+02  0.15055901042E+03 -0.16576401257E+03  0.23881141202E+03  0.80165889487E+02 0.  0.
         23    2    1    2    0    0 -0.36796574012E+02 -0.82529353628E+02 -0.53115763200E+02  0.13857380374E+03  0.90643988849E+02 0.  0.
        -11    1    3    3    0    0  0.44225721442E+02  0.13967056636E+03 -0.14456259834E+03  0.20582061700E+03  0.00000000000E+00 0.  1.
         12    1    3    3    0    0 -0.22810839010E+02  0.10888444068E+02 -0.21201414229E+02  0.32990795017E+02  0.00000000000E+00 0. -1.
        -13    1    4    4    0    0 -0.19729132916E+02  0.17488366958E+02 -0.13816539099E+02  0.29765389585E+02  0.00000000000E+00 0. -1.
         13    1    4    4    0    0 -0.17067441097E+02 -0.10001772059E+03 -0.39299224101E+02  0.10880841416E+03  0.00000000000E+00 0.  1.
         21    1    1    2  503  501  0.21439770750E+02 -0.43137647684E+02  0.55279144105E+02  0.73323285459E+02  0.00000000000E+00 0.  1.
         -4    1    1    2    0  502 -0.60580791692E+01 -0.24892009113E+02 -0.10856431252E+03  0.11154605504E+03  0.00000000000E+00 0.  1.
<scales pt_clust_5="13000.00000" pt_clust_6="13000.00000" pt_clust_7="13000.00000" pt_clust_8="13000.00000" pt_clust_9="48.17178" pt_clust_10="13000.00000"></scales>
<clustering>
<clus scale="   48.172">  1  9  2 -1</clus>
<clus scale="   80.166">  5  6 -1 -1</clus>
<clus scale="   90.644">  7  8 -1 -1</clus>
<clus scale="   26.305">  7 10 -1 -1</clus>
<clus scale="  156.741">  2  5  1 -1</clus>
<clus scale="   48.172">  1  5  2 -1</clus>
</clustering>
</event>
<event>
10    4  0.2866397E-005  0.2241054E+03  0.7546771E-02  0.1137800E+00
         21   -1    0    0  501  502  0.00000000000E+00  0.00000000000E+00  0.21583806924E+03  0.21583806924E+03  0.00000000000E+00 0. -1.
          2   -1    0    0  503    0 -0.00000000000E+00 -0.00000000000E+00 -0.82294577636E+03  0.82294577636E+03  0.00000000000E+00 0. -1.
         24    2    1    2    0    0  0.14607787850E+03 -0.99494543737E+02 -0.63974448425E+03  0.66820488270E+03  0.77374733049E+02 0.  0.
         23    2    1    2    0    0 -0.57079068654E+02  0.24730721318E+02 -0.36991067398E+02  0.11755480586E+03  0.92634575933E+02 0.  0.
        -11    1    3    3    0    0  0.23244579428E+02  0.88858225543E+01 -0.46268735393E+02  0.52536313062E+02  0.00000000000E+00 0.  1.
         12    1    3    3    0    0  0.12283329907E+03 -0.10838036629E+03 -0.59347574886E+03  0.61566856964E+03  0.00000000000E+00 0. -1.
        -11    1    4    4    0    0 -0.74669841734E+02  0.10043236727E+01 -0.62715562441E+01  0.74939484575E+02  0.00000000000E+00 0. -1.
         11    1    4    4    0    0  0.17590773080E+02  0.23726397645E+02 -0.30719511154E+02  0.42615321286E+02  0.00000000000E+00 0.  1.
         21    1    1    2  503  502 -0.27532067607E+02  0.39884757886E+00  0.13415718054E+03  0.13695372545E+03  0.00000000000E+00 0. -1.
          1    1    1    2  501    0 -0.61466742239E+02  0.74364974840E+02 -0.64529336003E+02  0.11607043159E+03  0.00000000000E+00 0. -1.
<scales pt_clust_5="13000.00000" pt_clust_6="13000.00000" pt_clust_7="13000.00000" pt_clust_8="13000.00000" pt_clust_9="27.53496" pt_clust_10="13000.00000"></scales>
<clustering>
<clus scale="   27.535">  1  9  2 -1</clus>
<clus scale="   77.375">  5  6 -1 -1</clus>
<clus scale="   92.635">  7  8 -1 -1</clus>
<clus scale="  102.430">  7 10 -1 -1</clus>
<clus scale="  189.232">  2  5  1 -1</clus>
<clus scale="   27.535">  1  5  2 -1</clus>
</clustering>
</event>
<event>
10    4  0.2866397E-005  0.2452726E+03  0.7546771E-02  0.1146602E+00
          2   -1    0    0  503    0 -0.00000000000E+00  0.00000000000E+00  0.58199512432E+03  0.58199512432E+03  0.00000000000E+00 0. -1.
         21   -1    0    0  501  502  0.00000000000E+00 -0.00000000000E+00 -0.24172667083E+03  0.24172667083E+03  0.00000000000E+00 0.  1.
         24    2    1    2    0    0 -0.32155749602E+02 -0.75334871204E+02  0.33881603153E+03  0.35839316483E+03  0.83306796407E+02 0.  0.
         23    2    1    2    0    0  0.35364831766E+01 -0.33312522067E+02  0.88490724657E+02  0.13095509660E+03  0.90533961230E+02 0.  0.
        -13    1    3    3    0    0 -0.24083776944E+02 -0.64105075906E+01  0.19558370307E+02  0.31680479298E+02  0.00000000000E+00 0.  1.
         14    1    3    3    0    0 -0.80719726582E+01 -0.68924363613E+02  0.31925766122E+03  0.32671268553E+03  0.00000000000E+00 0. -1.
        -11    1    4    4    0    0  0.24466316329E+02 -0.56558774249E+02  0.40747067297E+02  0.73877053762E+02  0.00000000000E+00 0. -1.
         11    1    4    4    0    0 -0.20929833153E+02  0.23246252182E+02  0.47743657360E+02  0.57078042840E+02  0.00000000000E+00 0.  1.
         21    1    1    2  503  502  0.14273793654E+03  0.96475616559E+02 -0.12570553196E+03  0.21326871286E+03  0.00000000000E+00 0.  1.
          1    1    1    2  501    0 -0.11411867011E+03  0.12171776712E+02  0.38667229274E+02  0.12110482086E+03  0.00000000000E+00 0. -1.
<scales pt_clust_5="13000.00000" pt_clust_6="13000.00000" pt_clust_7="13000.00000" pt_clust_8="13000.00000" pt_clust_9="159.58997" pt_clust_10="13000.00000"></scales>
<clustering>
<clus scale="   83.307">  5  6 -1 -1</clus>
<clus scale="   90.534">  7  8 -1 -1</clus>
<clus scale="  114.766">  7 10 -1 -1</clus>
<clus scale="  116.830">  1  5  2 -1</clus>
<clus scale="  159.590">  2  9  1 -1</clus>
<clus scale="  159.590">  2  5  1 -1</clus>
</clustering>
</event>
<event>
10    4  0.2866397E-005  0.1706555E+03  0.7546771E-02  0.1204903E+00
         21   -1    0    0  501  502  0.00000000000E+00  0.00000000000E+00  0.10349001384E+03  0.10349001384E+03  0.00000000000E+00 0. -1.
          2   -1    0    0  503    0 -0.00000000000E+00 -0.00000000000E+00 -0.26546244222E+03  0.26546244222E+03  0.00000000000E+00 0. -1.
         24    2    1    2    0    0  0.46658375430E+02  0.22359428376E+02  0.23462058502E+02  0.95495469188E+02  0.76759158485E+02 0.  0.
         23    2    1    2    0    0 -0.47984004746E+02 -0.72225039214E+02 -0.92477540415E+02  0.15518848354E+03  0.89512283744E+02 0.  0.
        -11    1    3    3    0    0  0.23470707648E+02  0.22218727888E+02 -0.25599860598E+02  0.41229829603E+02  0.00000000000E+00 0.  1.
         12    1    3    3    0    0  0.23187667781E+02  0.14070048834E+00  0.49061919100E+02  0.54265639585E+02  0.00000000000E+00 0. -1.
        -13    1    4    4    0    0 -0.62635991354E+02 -0.13526750183E+02 -0.49665382864E+02  0.81073365777E+02  0.00000000000E+00 0. -1.
         13    1    4    4    0    0  0.14651986608E+02 -0.58698289031E+02 -0.42812157551E+02  0.74115117762E+02  0.00000000000E+00 0.  1.
         21    1    1    2  503  502 -0.14144600015E+02  0.20598059815E+02 -0.66890439119E+01  0.25866833710E+02  0.00000000000E+00 0. -1.
          1    1    1    2  501    0  0.15470229331E+02  0.29267551022E+02 -0.86267902550E+02  0.92401669622E+02  0.00000000000E+00 0. -1.
<scales pt_clust_5="13000.00000" pt_clust_6="13000.00000" pt_clust_7="13000.00000" pt_clust_8="13000.00000" pt_clust_9="24.98699" pt_clust_10="13000.00000"></scales>
<clustering>
<clus scale="   24.987">  1  9  2 -1</clus>
<clus scale="   76.759">  5  6 -1 -1</clus>
<clus scale="   89.512">  7  8 -1 -1</clus>
<clus scale="   33.491">  7 10 -1 -1</clus>
<clus scale="   92.557">  2  5  1 -1</clus>
<clus scale="   24.987">  1  5  2 -1</clus>
</clustering>
</event>
<event>
10    4  0.2866397E-005  0.1497914E+03  0.7546771E-02  0.1218382E+00
         -1   -1    0    0    0  501 -0.00000000000E+00  0.00000000000E+00  0.43860409813E+03  0.43860409813E+03  0.00000000000E+00 0.  1.
         21   -1    0    0  501  502  0.00000000000E+00 -0.00000000000E+00 -0.12191801030E+03  0.12191801030E+03  0.00000000000E+00 0.  1.
         24    2    1    2    0    0  0.27240020147E+02 -0.79539424773E+02  0.22319703518E+03  0.25149851732E+03  0.79787523516E+02 0.  0.
         23    2    1    2    0    0 -0.75983726291E+01  0.78815885292E+01  0.10608656301E+03  0.14025556410E+03  0.91090118603E+02 0.  0.
        -13    1    3    3    0    0  0.89104436549E+00 -0.75520707234E+02  0.99253107274E+02  0.12472109078E+03  0.00000000000E+00 0.  1.
         14    1    3    3    0    0  0.26348975781E+02 -0.40187175396E+01  0.12394392790E+03  0.12677742654E+03  0.00000000000E+00 0. -1.
        -11    1    4    4    0    0 -0.37672204926E+02 -0.25799755802E+02  0.43362763281E+02  0.62969450234E+02  0.00000000000E+00 0. -1.
         11    1    4    4    0    0  0.30073832297E+02  0.33681344332E+02  0.62723799727E+02  0.77286113870E+02  0.00000000000E+00 0.  1.
         21    1    1    2  503  502 -0.64620023812E+02  0.45715746101E+02 -0.59320859166E+02  0.98917345553E+02  0.00000000000E+00 0.  1.
         -2    1    1    2    0  503  0.44978376294E+02  0.25942090143E+02  0.46723348813E+02  0.69850681452E+02  0.00000000000E+00 0.  1.
<scales pt_clust_5="13000.00000" pt_clust_6="13000.00000" pt_clust_7="13000.00000" pt_clust_8="13000.00000" pt_clust_9="79.15603" pt_clust_10="13000.00000"></scales>
<clustering>
<clus scale="   79.156">  2  9  1 -1</clus>
<clus scale="   79.788">  5  6 -1 -1</clus>
<clus scale="   91.090">  7  8 -1 -1</clus>
<clus scale="   47.156">  7 10 -1 -1</clus>
<clus scale="  102.718">  1  5  2 -1</clus>
<clus scale="   79.156">  2  5  1 -1</clus>
</clustering>
</event>
<event>
10    4  0.2866397E-005  0.1998628E+03  0.7546771E-02  0.1166374E+00
          4   -1    0    0  503    0 -0.00000000000E+00  0.00000000000E+00  0.19876137144E+03  0.19876137144E+03  0.00000000000E+00 0. -1.
         21   -1    0    0  501  502  0.00000000000E+00 -0.00000000000E+00 -0.31582352973E+03  0.31582352973E+03  0.00000000000E+00 0. -1.
         24    2    1    2    0    0 -0.70145467606E+02  0.33860399916E+02 -0.11321232425E+03  0.15998150500E+03  0.81915433674E+02 0.  0.
         23    2    1    2    0    0  0.22769489486E+02 -0.67509532426E+01  0.94931018084E+01  0.93308911525E+02  0.89735215868E+02 0.  0.
        -13    1    3    3    0    0 -0.69594126129E+02 -0.65072719249E+01 -0.88008708164E+02  0.11238869913E+03  0.00000000000E+00 0.  1.
         14    1    3    3    0    0 -0.55134147695E+00  0.40367671841E+02 -0.25203616082E+02  0.47592805873E+02  0.00000000000E+00 0. -1.
        -13    1    4    4    0    0  0.51609512476E+02  0.97880701670E+00  0.27453548576E+02  0.58465350171E+02  0.00000000000E+00 0.  1.
         13    1    4    4    0    0 -0.28840022990E+02 -0.77297602593E+01 -0.17960446767E+02  0.34843561354E+02  0.00000000000E+00 0. -1.
         21    1    1    2  503  502 -0.23209376840E+02  0.47411444962E+02 -0.10892310878E+03  0.12104034002E+03  0.00000000000E+00 0. -1.
          3    1    1    2  501    0  0.70585354960E+02 -0.74520891635E+02  0.95580172934E+02  0.14025414462E+03  0.00000000000E+00 0. -1.
<scales pt_clust_5="13000.00000" pt_clust_6="13000.00000" pt_clust_7="13000.00000" pt_clust_8="13000.00000" pt_clust_9="52.78750" pt_clust_10="13000.00000"></scales>
<clustering>
<clus scale="   52.788">  2  9  1 -1</clus>
<clus scale="   81.915">  5  6 -1 -1</clus>
<clus scale="   89.735">  7  8 -1 -1</clus>
<clus scale="   97.056">  7 10 -1 -1</clus>
<clus scale="  135.883">  1  5  2 -1</clus>
<clus scale="   52.788">  2  5  1 -1</clus>
</clustering>
</event>
<event>
10    4  0.2866397E-005  0.3943331E+03  0.7546771E-02  0.1054873E+00
         21   -1    0    0  501  502  0.00000000000E+00  0.00000000000E+00  0.19461259989E+03  0.19461259989E+03  0.00000000000E+00 0. -1.
          2   -1    0    0  503    0 -0.00000000000E+00 -0.00000000000E+00 -0.10272287955E+04  0.10272287955E+04  0.00000000000E+00 0. -1.
         24    2    1    2    0    0 -0.27085894256E+02  0.25133045573E+03 -0.61668338007E+02  0.27222260908E+03  0.80009507800E+02 0.  0.
         23    2    1    2    0    0 -0.75350956390E+02 -0.18345191380E+03 -0.46929069595E+03  0.51751250412E+03  0.90846372016E+02 0.  0.
        -13    1    3    3    0    0 -0.16191074828E+02  0.11869625971E+02 -0.21065346353E+02  0.29099617554E+02  0.00000000000E+00 0.  1.
         14    1    3    3    0    0 -0.10894819428E+02  0.23946082976E+03 -0.40602991654E+02  0.24312299153E+03  0.00000000000E+00 0. -1.
        -11    1    4    4    0    0 -0.70161080059E+02 -0.87532120908E+02 -0.32805631927E+03  0.34670650118E+03  0.00000000000E+00 0.  1.
         11    1    4    4    0    0 -0.51898763308E+01 -0.95919792889E+02 -0.14123437668E+03  0.17080600294E+03  0.00000000000E+00 0. -1.
         21    1    1    2  503  502 -0.40834300075E+02  0.54604691887E+02  0.89614512338E+01  0.68770779020E+02  0.00000000000E+00 0.  1.
          1    1    1    2  501    0  0.14327115072E+03 -0.12248323382E+03 -0.31061861291E+03  0.36333550320E+03  0.00000000000E+00 0. -1.
<scales pt_clust_5="13000.00000" pt_clust_6="13000.00000" pt_clust_7="13000.00000" pt_clust_8="13000.00000" pt_clust_9="68.18440" pt_clust_10="13000.00000"></scales>
<clustering>
<clus scale="   68.184">  1  9  2 -1</clus>
<clus scale="   80.010">  5  6 -1 -1</clus>
<clus scale="   90.846">  7  8 -1 -1</clus>
<clus scale="  177.251">  7 10 -1 -1</clus>
<clus scale="  304.097">  2  5  1 -1</clus>
<clus scale="   68.184">  1  5  2 -1</clus>
</clustering>
</event>
<event>
10    4  0.2866397E-005  0.4145236E+03  0.7546771E-02  0.1047853E+00
         21   -1    0    0  503  502  0.00000000000E+00  0.00000000000E+00  0.80837892980E+03  0.80837892980E+03  0.00000000000E+00 0.  1.
         -1   -1    0    0    0  501 -0.00000000000E+00 -0.00000000000E+00 -0.20690478979E+03  0.20690478979E+03  0.00000000000E+00 0.  1.
         24    2    1    2    0    0 -0.18194599782E+03 -0.23779130793E+03  0.13399900023E+03  0.33728598083E+03  0.78466862794E+02 0.  0.
         23    2    1    2    0    0 -0.33617682739E+02  0.74101373269E+02  0.46527056365E+02  0.13120912966E+03  0.91814522926E+02 0.  0.
        -13    1    3    3    0    0 -0.16951642476E+03 -0.23676022702E+03  0.11197760837E+03  0.31197789687E+03  0.00000000000E+00 0.  1.
         14    1    3    3    0    0 -0.12429573056E+02 -0.10310809085E+01  0.22021391861E+02  0.25308083960E+02  0.00000000000E+00 0. -1.
        -13    1    4    4    0    0 -0.22895432135E+02  0.47164840832E+02 -0.21957494702E+02  0.56840606937E+02  0.00000000000E+00 0. -1.
         13    1    4    4    0    0 -0.10722250604E+02  0.26936532436E+02  0.68484551067E+02  0.74368522726E+02  0.00000000000E+00 0.  1.
         21    1    1    2  503  501  0.17474847804E+02 -0.52199439042E+02  0.81903461238E+02  0.98682970693E+02  0.00000000000E+00 0.  1.
         -2    1    1    2    0  502  0.19808883275E+03  0.21588937370E+03  0.33904462218E+03  0.44810563840E+03  0.00000000000E+00 0.  1.
<scales pt_clust_5="13000.00000" pt_clust_6="13000.00000" pt_clust_7="13000.00000" pt_clust_8="13000.00000" pt_clust_9="55.04681" pt_clust_10="13000.00000"></scales>
<clustering>
<clus scale="   55.047">  1  9  2 -1</clus>
<clus scale="   78.467">  5  6 -1 -1</clus>
<clus scale="   91.815">  7  8 -1 -1</clus>
<clus scale="  279.641">  7 10 -1 -1</clus>
<clus scale="  319.675">  2  5  1 -1</clus>
<clus scale="   55.047">  1  5  2 -1</clus>
</clustering>
</event>
<event>
10    4  0.2866397E-005  0.4018729E+03  0.7546771E-02  0.1086051E+00
         21   -1    0    0  501  502  0.00000000000E+00  0.00000000000E+00  0.18090195935E+03  0.18090195935E+03  0.00000000000E+00 0. -1.
          2   -1    0    0  503    0 -0.00000000000E+00 -0.00000000000E+00 -0.11881012886E+04  0.11881012886E+04  0.00000000000E+00 0. -1.
         24    2    1    2    0    0 -0.90179637231E+02 -0.44115532205E+02 -0.30241065428E+03  0.32871562778E+03  0.80766409936E+02 0.  0.
         23    2    1    2    0    0 -0.13853109534E+03 -0.61659549170E+02 -0.45726792676E+03  0.49019394508E+03  0.90572526592E+02 0.  0.
        -11    1    3    3    0    0 -0.14168583390E+02  0.20925641109E+02 -0.34725210810E+02  0.42947310474E+02  0.00000000000E+00 0.  1.
         12    1    3    3    0    0 -0.76011053840E+02 -0.65041173315E+02 -0.26768544347E+03  0.28576831731E+03  0.00000000000E+00 0. -1.
        -11    1    4    4    0    0 -0.12868466522E+03 -0.19573837271E+02 -0.37977521378E+03  0.40146244055E+03  0.00000000000E+00 0. -1.
         11    1    4    4    0    0 -0.98464301191E+01 -0.42085711900E+02 -0.77492712975E+02  0.88731504532E+02  0.00000000000E+00 0.  1.
         21    1    1    2  503  502  0.38100355699E+02  0.10738381657E+02  0.11942459246E+03  0.12581408200E+03  0.00000000000E+00 0. -1.
          1    1    1    2  501    0  0.19061037687E+03  0.95036699719E+02 -0.36694534065E+03  0.42427959306E+03  0.00000000000E+00 0. -1.
<scales pt_clust_5="13000.00000" pt_clust_6="13000.00000" pt_clust_7="13000.00000" pt_clust_8="13000.00000" pt_clust_9="39.58472" pt_clust_10="13000.00000"></scales>
<clustering>
<clus scale="   39.585">  1  9  2 -1</clus>
<clus scale="   80.766">  5  6 -1 -1</clus>
<clus scale="   90.573">  7  8 -1 -1</clus>
<clus scale="  122.135">  2  5  1 -1</clus>
<clus scale="  184.112">  7 10 -1 -1</clus>
<clus scale="   39.585">  1  5  2 -1</clus>
</clustering>
</event>
<event>
10    4  0.2866397E-005  0.8942542E+03  0.7546771E-02  0.9787430E-01
          2   -1    0    0  503    0 -0.00000000000E+00  0.00000000000E+00  0.13783734019E+04  0.13783734019E+04  0.00000000000E+00 0. -1.
         21   -1    0    0  501  502  0.00000000000E+00 -0.00000000000E+00 -0.95765946260E+03  0.95765946260E+03  0.00000000000E+00 0. -1.
         24    2    1    2    0    0  0.24692793253E+03  0.58223637023E+02  0.90514276699E+03  0.94341960788E+03  0.79960816271E+02 0.  0.
         23    2    1    2    0    0  0.67514620880E+02  0.12148857618E+03  0.16516521812E+03  0.23349567193E+03  0.89011130538E+02 0.  0.
        -11    1    3    3    0    0  0.64751984527E+02  0.51782299376E+02  0.31793802005E+03  0.32857086089E+03  0.00000000000E+00 0.  1.
         12    1    3    3    0    0  0.18217594800E+03  0.64413376467E+01  0.58720474693E+03  0.61484874699E+03  0.00000000000E+00 0. -1.
        -13    1    4    4    0    0  0.17809368391E+02 -0.11532604852E+02  0.34616080007E+02  0.40601078461E+02  0.00000000000E+00 0.  1.
         13    1    4    4    0    0  0.49705252489E+02  0.13302118104E+03  0.13054913811E+03  0.19289459347E+03  0.00000000000E+00 0. -1.
         21    1    1    2  503  502  0.28713208157E+03 -0.16394081886E+03 -0.10340958401E+03  0.34643176301E+03  0.00000000000E+00 0. -1.
          1    1    1    2  501    0 -0.60157463498E+03 -0.15771394348E+02 -0.54618446184E+03  0.81268582163E+03  0.00000000000E+00 0. -1.
<scales pt_clust_5="13000.00000" pt_clust_6="13000.00000" pt_clust_7="13000.00000" pt_clust_8="13000.00000" pt_clust_9="383.10137" pt_clust_10="13000.00000"></scales>
<clustering>
<clus scale="   79.961">  5  6 -1 -1</clus>
<clus scale="   89.011">  7  8 -1 -1</clus>
<clus scale="  266.002">  1  5  2 -1</clus>
<clus scale="  383.101">  2  9  1 -1</clus>
<clus scale="  264.383">  7 10 -1 -1</clus>
<clus scale="  383.101">  2  5  1 -1</clus>
</clustering>
</event>
<event>
10    4  0.2866397E-005  0.5952040E+03  0.7546771E-02  0.9998109E-01
          2   -1    0    0  503    0 -0.00000000000E+00  0.00000000000E+00  0.27466152303E+04  0.27466152303E+04  0.00000000000E+00 0. -1.
         21   -1    0    0  501  502  0.00000000000E+00 -0.00000000000E+00 -0.29235565107E+03  0.29235565107E+03  0.00000000000E+00 0. -1.
         24    2    1    2    0    0 -0.45016235683E+03  0.56681394396E+02  0.16415411976E+04  0.17047025068E+04  0.74122907487E+02 0.  0.
         23    2    1    2    0    0 -0.13889319043E+02 -0.52414079009E+02  0.38397781458E+03  0.39808704702E+03  0.89967694487E+02 0.  0.
        -11    1    3    3    0    0 -0.49268402369E+02  0.21468312172E+02  0.27195844669E+03  0.27721771340E+03  0.00000000000E+00 0.  1.
         12    1    3    3    0    0 -0.40089395446E+03  0.35213082225E+02  0.13695827509E+04  0.14274847934E+04  0.00000000000E+00 0. -1.
        -13    1    4    4    0    0  0.57938348452E+01 -0.74572280412E+02  0.29337654382E+03  0.30276127558E+03  0.00000000000E+00 0.  1.
         13    1    4    4    0    0 -0.19683153888E+02  0.22158201403E+02  0.90601270761E+02  0.95325771437E+02  0.00000000000E+00 0. -1.
         21    1    1    2  503  502  0.17557817906E+02  0.65155629869E+02 -0.17183205761E+03  0.18460712093E+03  0.00000000000E+00 0. -1.
          1    1    1    2  501    0  0.44649385797E+03 -0.69422945257E+02  0.60057262471E+03  0.75157420664E+03  0.00000000000E+00 0. -1.
<scales pt_clust_5="13000.00000" pt_clust_6="13000.00000" pt_clust_7="13000.00000" pt_clust_8="13000.00000" pt_clust_9="67.47987" pt_clust_10="13000.00000"></scales>
<clustering>
<clus scale="   67.480">  2  9  1 -1</clus>
<clus scale="   74.123">  5  6 -1 -1</clus>
<clus scale="   89.968">  7  8 -1 -1</clus>
<clus scale="  457.571">  1  5  2 -1</clus>
<clus scale="  170.881">  7 10 -1 -1</clus>
<clus scale="   67.480">  2  5  1 -1</clus>
</clustering>
</event>
<event>
10    4  0.2866397E-005  0.1663062E+03  0.7546771E-02  0.1214475E+00
         21   -1    0    0  503  502  0.00000000000E+00  0.00000000000E+00  0.80291381148E+02  0.80291381148E+02  0.00000000000E+00 0. -1.
          2   -1    0    0  502    0 -0.00000000000E+00 -0.00000000000E+00 -0.52295960000E+03  0.52295960000E+03  0.00000000000E+00 0. -1.
         24    2    1    2    0    0  0.57447253887E+01  0.56699858091E+01 -0.24162508282E+03  0.25468559675E+03  0.80105692269E+02 0.  0.
         23    2    1    2    0    0 -0.23328710010E+02 -0.79974877957E+02 -0.22395082851E+03  0.25583281716E+03  0.91412509726E+02 0.  0.
        -13    1    3    3    0    0 -0.35095319699E+02 -0.96321627827E+01 -0.12423751431E+03  0.12945817852E+03  0.00000000000E+00 0.  1.
         14    1    3    3    0    0  0.40840045088E+02  0.15302148592E+02 -0.11738756851E+03  0.12522741823E+03  0.00000000000E+00 0. -1.
        -13    1    4    4    0    0  0.22807078958E+02  0.27614191396E+01 -0.82139289546E+02  0.85291565664E+02  0.00000000000E+00 0.  1.
         13    1    4    4    0    0 -0.46135788968E+02 -0.82736297097E+02 -0.14181153896E+03  0.17054125150E+03  0.00000000000E+00 0. -1.
         21    1    1    2  503  501  0.52016755390E+01  0.41509062566E+02  0.36120407353E+02  0.55269734311E+02  0.00000000000E+00 0. -1.
          1    1    1    2  501    0  0.12382309083E+02  0.32795829582E+02 -0.13212714877E+02  0.37462832923E+02  0.00000000000E+00 0. -1.
<scales pt_clust_5="13000.00000" pt_clust_6="13000.00000" pt_clust_7="13000.00000" pt_clust_8="13000.00000" pt_clust_9="41.83371" pt_clust_10="13000.00000"></scales>
<clustering>
<clus scale="   41.834">  1  9  2 -1</clus>
<clus scale="   80.106">  5  6 -1 -1</clus>
<clus scale="   81.514">  2  5  1 -1</clus>
<clus scale="   91.413">  7  8 -1 -1</clus>
<clus scale="   52.757">  7 10 -1 -1</clus>
<clus scale="   41.834">  1  5  2 -1</clus>
</clustering>
</event>
<event>
10    4  0.2866397E-005  0.2268497E+03  0.7546771E-02  0.1142957E+00
         21   -1    0    0  501  502  0.00000000000E+00  0.00000000000E+00  0.20860403055E+03  0.20860403055E+03  0.00000000000E+00 0.  1.
          2   -1    0    0  503    0 -0.00000000000E+00 -0.00000000000E+00 -0.21995740676E+03  0.21995740676E+03  0.00000000000E+00 0. -1.
         24    2    1    2    0    0  0.14269379997E+03 -0.27188785126E+01 -0.65502794468E+02  0.17599059414E+03  0.79455398135E+02 0.  0.
         23    2    1    2    0    0 -0.48385421820E+02  0.18822841762E+02  0.91419689920E+02  0.14044704190E+03  0.93125525265E+02 0.  0.
        -13    1    3    3    0    0  0.13054566241E+03 -0.68308152006E+01 -0.82588000192E+02  0.15462731901E+03  0.00000000000E+00 0.  1.
         14    1    3    3    0    0  0.12148137564E+02  0.41119366881E+01  0.17085205724E+02  0.21363275128E+02  0.00000000000E+00 0. -1.
        -11    1    4    4    0    0  0.24645613147E+02  0.16209860847E+02  0.45218059280E+02  0.53989246347E+02  0.00000000000E+00 0. -1.
         11    1    4    4    0    0 -0.73031034967E+02  0.26129809157E+01  0.46201630639E+02  0.86457795550E+02  0.00000000000E+00 0.  1.
         21    1    1    2  503  502 -0.99600427659E+01 -0.18640402244E+02 -0.45692195536E+01  0.21622784627E+02  0.00000000000E+00 0.  1.
          1    1    1    2  501    0 -0.84348335386E+02  0.25364389939E+01 -0.32701052108E+02  0.90501016647E+02  0.00000000000E+00 0. -1.
<scales pt_clust_5="13000.00000" pt_clust_6="13000.00000" pt_clust_7="13000.00000" pt_clust_8="13000.00000" pt_clust_9="21.13451" pt_clust_10="13000.00000"></scales>
<clustering>
<clus scale="   21.135">  1  9  2 -1</clus>
<clus scale="   79.455">  5  6 -1 -1</clus>
<clus scale="   93.126">  7  8 -1 -1</clus>
<clus scale="   85.787">  7 10 -1 -1</clus>
<clus scale="  161.119">  2  5  1 -1</clus>
<clus scale="   21.135">  1  5  2 -1</clus>
</clustering>
</event>
<event>
10    4  0.2866397E-005  0.2542313E+03  0.7546771E-02  0.1122007E+00
         21   -1    0    0  501  502  0.00000000000E+00  0.00000000000E+00  0.19917450642E+03  0.19917450642E+03  0.00000000000E+00 0. -1.
          4   -1    0    0  503    0 -0.00000000000E+00 -0.00000000000E+00 -0.67511613214E+03  0.67511613214E+03  0.00000000000E+00 0. -1.
         24    2    1    2    0    0 -0.92549733697E+02 -0.17775295795E+03 -0.13766840632E+03  0.25630605586E+03  0.81108796713E+02 0.  0.
         23    2    1    2    0    0  0.60871741335E+02  0.31282409429E+02 -0.12706868341E+03  0.17073065672E+03  0.91206078793E+02 0.  0.
        -11    1    3    3    0    0 -0.44159799066E+02 -0.33115172539E+02 -0.70799380461E+02  0.89773352280E+02  0.00000000000E+00 0.  1.
         12    1    3    3    0    0 -0.48389934631E+02 -0.14463778542E+03 -0.66869025860E+02  0.16653270358E+03  0.00000000000E+00 0. -1.
        -11    1    4    4    0    0  0.70288180025E+01  0.44382194840E+02 -0.18026979680E+02  0.48416479609E+02  0.00000000000E+00 0. -1.
         11    1    4    4    0    0  0.53842923332E+02 -0.13099785411E+02 -0.10904170373E+03  0.12231417711E+03  0.00000000000E+00 0.  1.
         21    1    1    2  503  502  0.25466896664E+02  0.34209476052E+02  0.10410309312E+03  0.11250024477E+03  0.00000000000E+00 0. -1.
          3    1    1    2  501    0  0.62110956985E+01  0.11226107247E+03 -0.31530762911E+03  0.33475368120E+03  0.00000000000E+00 0. -1.
<scales pt_clust_5="13000.00000" pt_clust_6="13000.00000" pt_clust_7="13000.00000" pt_clust_8="13000.00000" pt_clust_9="42.64799" pt_clust_10="13000.00000"></scales>
<clustering>
<clus scale="   42.648">  1  9  2 -1</clus>
<clus scale="   81.109">  5  6 -1 -1</clus>
<clus scale="   91.206">  7  8 -1 -1</clus>
<clus scale="  116.265">  7 10 -1 -1</clus>
<clus scale="  191.048">  2  5  1 -1</clus>
<clus scale="   42.648">  1  5  2 -1</clus>
</clustering>
</event>
<event>
10    4  0.2866397E-005  0.5305629E+03  0.7546771E-02  0.1050976E+00
         21   -1    0    0  503  502  0.00000000000E+00  0.00000000000E+00  0.14015734585E+04  0.14015734585E+04  0.00000000000E+00 0. -1.
          4   -1    0    0  502    0 -0.00000000000E+00 -0.00000000000E+00 -0.25103673809E+03  0.25103673809E+03  0.00000000000E+00 0. -1.
         24    2    1    2    0    0  0.60933081608E+02 -0.94125071537E+02  0.28709065084E+02  0.14237104588E+03  0.82903164968E+02 0.  0.
         23    2    1    2    0    0 -0.30649150275E+02 -0.24402288934E+03  0.10906654219E+03  0.28432119311E+03  0.91959171859E+02 0.  0.
        -11    1    3    3    0    0  0.30666329099E+02 -0.78756221243E+02 -0.16221901175E+02  0.86058795034E+02  0.00000000000E+00 0.  1.
         12    1    3    3    0    0  0.30266752508E+02 -0.15368850294E+02  0.44930966259E+02  0.56312250849E+02  0.00000000000E+00 0. -1.
        -13    1    4    4    0    0 -0.14875253403E+02 -0.30965109176E+02  0.53487677952E+02  0.63569197279E+02  0.00000000000E+00 0.  1.
         13    1    4    4    0    0 -0.15773896872E+02 -0.21305778017E+03  0.55578864238E+02  0.22075199583E+03  0.00000000000E+00 0. -1.
         21    1    1    2  503  501  0.11797485702E+03  0.10785206300E+03  0.92441082275E+03  0.93812872443E+03  0.00000000000E+00 0. -1.
          3    1    1    2  501    0 -0.14825878835E+03  0.23029589788E+03  0.88350290362E+02  0.28778923314E+03  0.00000000000E+00 0. -1.
<scales pt_clust_5="13000.00000" pt_clust_6="13000.00000" pt_clust_7="13000.00000" pt_clust_8="13000.00000" pt_clust_9="159.23731" pt_clust_10="13000.00000"></scales>
<clustering>
<clus scale="   82.903">  5  6 -1 -1</clus>
<clus scale="   91.959">  7  8 -1 -1</clus>
<clus scale="  139.446">  2  5  1 -1</clus>
<clus scale="  159.237">  1  9  2 -1</clus>
<clus scale="  232.565">  7 10 -1 -1</clus>
<clus scale="  159.237">  1  5  2 -1</clus>
</clustering>
</event>
<event>
10    4  0.2866397E-005  0.1742261E+03  0.7546771E-02  0.1199577E+00
         21   -1    0    0  503  502  0.00000000000E+00  0.00000000000E+00  0.13851827838E+03  0.13851827838E+03  0.00000000000E+00 0.  1.
          2   -1    0    0  502    0 -0.00000000000E+00 -0.00000000000E+00 -0.50184703804E+03  0.50184703804E+03  0.00000000000E+00 0. -1.
         24    2    1    2    0    0  0.13351330133E+02 -0.35925670905E+02 -0.39342917079E+02  0.10872454420E+03  0.93830962591E+02 0.  0.
         23    2    1    2    0    0 -0.65377361301E+02 -0.41258158818E+02 -0.37505612422E+03  0.39327022997E+03  0.89542964125E+02 0.  0.
        -11    1    3    3    0    0  0.53156033487E+02 -0.29009820068E+02 -0.28288864408E+02  0.66838562268E+02  0.00000000000E+00 0.  1.
         12    1    3    3    0    0 -0.39804703354E+02 -0.69158508367E+01 -0.11054052671E+02  0.41885981931E+02  0.00000000000E+00 0. -1.
        -11    1    4    4    0    0 -0.16446374269E+01 -0.21387044742E+02 -0.12938341194E+02  0.25050173411E+02  0.00000000000E+00 0.  1.
         11    1    4    4    0    0 -0.63732723874E+02 -0.19871114076E+02 -0.36211778303E+03  0.36822005656E+03  0.00000000000E+00 0. -1.
         21    1    1    2  503  501  0.20332537525E+02  0.62588065214E+02  0.72110603463E+02  0.97624879623E+02  0.00000000000E+00 0.  1.
          1    1    1    2  501    0  0.31693493643E+02  0.14595764509E+02 -0.21040321824E+02  0.40745662632E+02  0.00000000000E+00 0. -1.
<scales pt_clust_5="13000.00000" pt_clust_6="13000.00000" pt_clust_7="13000.00000" pt_clust_8="13000.00000" pt_clust_9="65.80789" pt_clust_10="13000.00000"></scales>
<clustering>
<clus scale="   65.808">  1  9  2 -1</clus>
<clus scale="   89.543">  7  8 -1 -1</clus>
<clus scale="   43.998">  7 10 -1 -1</clus>
<clus scale="   93.831">  5  6 -1 -1</clus>
<clus scale="   97.607">  2  5  1 -1</clus>
<clus scale="   65.808">  1  5  2 -1</clus>
</clustering>
</event>
<event>
10    4  0.2866397E-005  0.2132286E+03  0.7546771E-02  0.1166161E+00
         21   -1    0    0  501  502  0.00000000000E+00  0.00000000000E+00  0.41412534308E+02  0.41412534308E+02  0.00000000000E+00 0. -1.
          2   -1    0    0  503    0 -0.00000000000E+00 -0.00000000000E+00 -0.11247904261E+04  0.11247904261E+04  0.00000000000E+00 0. -1.
         24    2    1    2    0    0 -0.64690234033E+00  0.73378043721E+02 -0.40479162550E+03  0.41999982555E+03  0.84609914342E+02 0.  0.
         23    2    1    2    0    0 -0.87642893380E+02 -0.29620233278E+02 -0.38273079670E+03  0.40668275105E+03  0.10173181545E+03 0.  0.
        -13    1    3    3    0    0  0.20838107795E+02  0.77847186191E+02 -0.37140009083E+03  0.38004267998E+03  0.00000000000E+00 0.  1.
         14    1    3    3    0    0 -0.21485010135E+02 -0.44691424702E+01 -0.33391534669E+02  0.39957145575E+02  0.00000000000E+00 0. -1.
        -13    1    4    4    0    0  0.17570770210E+02  0.12455947841E+02 -0.95707430400E+02  0.98100942075E+02  0.00000000000E+00 0.  1.
         13    1    4    4    0    0 -0.10521366359E+03 -0.42076181119E+02 -0.28702336630E+03  0.30858180897E+03  0.00000000000E+00 0. -1.
         21    1    1    2  503  502  0.28592200368E+02  0.67974421144E+00  0.54890232000E+01  0.29122248364E+02  0.00000000000E+00 0. -1.
          1    1    1    2  501    0  0.59697595353E+02 -0.44437554654E+02 -0.30134449281E+03  0.31039813546E+03  0.00000000000E+00 0. -1.
<scales pt_clust_5="13000.00000" pt_clust_6="13000.00000" pt_clust_7="13000.00000" pt_clust_8="13000.00000" pt_clust_9="28.60028" pt_clust_10="13000.00000"></scales>
<clustering>
<clus scale="   28.600">  1  9  2 -1</clus>
<clus scale="   84.610">  5  6 -1 -1</clus>
<clus scale="  101.732">  7  8 -1 -1</clus>
<clus scale="   78.721">  7 10 -1 -1</clus>
<clus scale="  112.449">  2  5  1 -1</clus>
<clus scale="   28.600">  1  5  2 -1</clus>
</clustering>
</event>
<event>
10    4  0.2866397E-005  0.3180531E+03  0.7546771E-02  0.1120416E+00
         21   -1    0    0  501  502  0.00000000000E+00  0.00000000000E+00  0.12311005333E+03  0.12311005333E+03  0.00000000000E+00 0. -1.
          2   -1    0    0  503    0 -0.00000000000E+00 -0.00000000000E+00 -0.63627115724E+03  0.63627115724E+03  0.00000000000E+00 0. -1.
         24    2    1    2    0    0 -0.46399629489E+02 -0.39042261571E+02 -0.29459632243E+03  0.31077372803E+03  0.78205454040E+02 0.  0.
         23    2    1    2    0    0 -0.43848025425E+02  0.11726367183E+03 -0.22434673032E+03  0.27239545150E+03  0.90522972381E+02 0.  0.
        -11    1    3    3    0    0  0.20261082799E+02 -0.75910607639E+00 -0.40306421661E+02  0.45118680669E+02  0.00000000000E+00 0.  1.
         12    1    3    3    0    0 -0.66660712287E+02 -0.38283155495E+02 -0.25428990077E+03  0.26565504736E+03  0.00000000000E+00 0. -1.
        -11    1    4    4    0    0 -0.90825328849E+01  0.10732135171E+03 -0.11654895841E+03  0.15869475304E+03  0.00000000000E+00 0. -1.
         11    1    4    4    0    0 -0.34765492540E+02  0.99423201142E+01 -0.10779777191E+03  0.11370069846E+03  0.00000000000E+00 0.  1.
         21    1    1    2  503  502 -0.21548575784E+02 -0.53384841612E+02 -0.15746007393E+02  0.59684329443E+02  0.00000000000E+00 0. -1.
          1    1    1    2  501    0  0.11179623070E+03 -0.24836568645E+02  0.21527956228E+02  0.11652770160E+03  0.00000000000E+00 0. -1.
<scales pt_clust_5="13000.00000" pt_clust_6="13000.00000" pt_clust_7="13000.00000" pt_clust_8="13000.00000" pt_clust_9="57.56980" pt_clust_10="13000.00000"></scales>
<clustering>
<clus scale="   57.570">  1  9  2 -1</clus>
<clus scale="   78.205">  5  6 -1 -1</clus>
<clus scale="   90.523">  7  8 -1 -1</clus>
<clus scale="  101.527">  2  5  1 -1</clus>
<clus scale="  111.509">  7 10 -1 -1</clus>
<clus scale="   57.570">  1  5  2 -1</clus>
</clustering>
</event>
<event>
10    4  0.2866397E-005  0.2977723E+03  0.7546771E-02  0.1122233E+00
          2   -1    0    0  503    0 -0.00000000000E+00  0.00000000000E+00  0.74466512050E+03  0.74466512050E+03  0.00000000000E+00 0. -1.
         21   -1    0    0  501  502  0.00000000000E+00 -0.00000000000E+00 -0.14336949877E+03  0.14336949877E+03  0.00000000000E+00 0. -1.
         24    2    1    2    0    0  0.62994982707E+02 -0.84414219730E+02  0.45919290459E+02  0.14038203944E+03  0.80649906530E+02 0.  0.
         23    2    1    2    0    0  0.60305615103E+02  0.10685576370E+03  0.23101224273E+03  0.27805769333E+03  0.94310673205E+02 0.  0.
        -11    1    3    3    0    0 -0.15001739964E+02 -0.18412724509E+02 -0.77326250017E+01  0.24977472154E+02  0.00000000000E+00 0.  1.
         12    1    3    3    0    0  0.77996722671E+02 -0.66001495222E+02  0.53651915461E+02  0.11540456729E+03  0.00000000000E+00 0. -1.
        -11    1    4    4    0    0  0.24273736166E+01  0.34812214922E+02  0.68079093306E+01  0.35554607014E+02  0.00000000000E+00 0.  1.
         11    1    4    4    0    0  0.57878241486E+02  0.72043548777E+02  0.22420433340E+03  0.24250308632E+03  0.00000000000E+00 0. -1.
         21    1    1    2  503  502 -0.11078308931E+02  0.32433063760E+02 -0.57984904686E+02  0.67356378503E+02  0.00000000000E+00 0. -1.
          1    1    1    2  501    0 -0.11222228888E+03 -0.54874607729E+02  0.38234899323E+03  0.40223850800E+03  0.00000000000E+00 0. -1.
<scales pt_clust_5="13000.00000" pt_clust_6="13000.00000" pt_clust_7="13000.00000" pt_clust_8="13000.00000" pt_clust_9="34.27291" pt_clust_10="13000.00000"></scales>
<clustering>
<clus scale="   34.273">  2  9  1 -1</clus>
<clus scale="   80.650">  5  6 -1 -1</clus>
<clus scale="   94.311">  7  8 -1 -1</clus>
<clus scale="  118.234">  1  5  2 -1</clus>
<clus scale="  120.157">  7 10 -1 -1</clus>
<clus scale="   34.273">  2  5  1 -1</clus>
</clustering>
</event>
<event>
10    4  0.2866397E-005  0.3794326E+03  0.7546771E-02  0.1104302E+00
         21   -1    0    0  503  502  0.00000000000E+00  0.00000000000E+00  0.64045410413E+02  0.64045410413E+02  0.00000000000E+00 0. -1.
          2   -1    0    0  502    0 -0.00000000000E+00 -0.00000000000E+00 -0.12820911381E+04  0.12820911381E+04  0.00000000000E+00 0. -1.
         24    2    1    2    0    0 -0.24254312291E+02  0.28447322649E+02 -0.30950831283E+03  0.32246511725E+03  0.82406518593E+02 0.  0.
         23    2    1    2    0    0 -0.38936235349E+02  0.16889086816E+03 -0.48058009708E+03  0.51871620743E+03  0.89828271540E+02 0.  0.
        -13    1    3    3    0    0  0.22474115944E+02  0.35603533741E+02 -0.17118948278E+03  0.17629105626E+03  0.00000000000E+00 0.  1.
         14    1    3    3    0    0 -0.46728428236E+02 -0.71562110921E+01 -0.13831883005E+03  0.14617406100E+03  0.00000000000E+00 0. -1.
        -13    1    4    4    0    0 -0.43741179084E+02  0.49664985748E+02 -0.10039455872E+03  0.12024545304E+03  0.00000000000E+00 0.  1.
         13    1    4    4    0    0  0.48049437354E+01  0.11922588241E+03 -0.38018553836E+03  0.39847075439E+03  0.00000000000E+00 0. -1.
         21    1    1    2  503  501 -0.20635064370E+02 -0.32400365670E+02  0.32849804760E+00  0.38414808187E+02  0.00000000000E+00 0. -1.
          1    1    1    2  501    0  0.83825612010E+02 -0.16493782514E+03 -0.42828581585E+03  0.46654041566E+03  0.00000000000E+00 0. -1.
<scales pt_clust_5="13000.00000" pt_clust_6="13000.00000" pt_clust_7="13000.00000" pt_clust_8="13000.00000" pt_clust_9="38.41340" pt_clust_10="13000.00000"></scales>
<clustering>
<clus scale="   38.413">  1  9  2 -1</clus>
<clus scale="   82.407">  5  6 -1 -1</clus>
<clus scale="   89.828">  7  8 -1 -1</clus>
<clus scale="   89.985">  2  5  1 -1</clus>
<clus scale="  177.252">  7 10 -1 -1</clus>
<clus scale="   38.413">  1  5  2 -1</clus>
</clustering>
</event>
<event>
10    4  0.2866397E-005  0.2463696E+03  0.7546771E-02  0.1150724E+00
          2   -1    0    0  503    0 -0.00000000000E+00  0.00000000000E+00  0.35844052611E+03  0.35844052611E+03  0.00000000000E+00 0. -1.
         21   -1    0    0  501  502  0.00000000000E+00 -0.00000000000E+00 -0.14010599254E+03  0.14010599254E+03  0.00000000000E+00 0.  1.
         24    2    1    2    0    0  0.67154654545E+02  0.11370571941E+02  0.18677870040E+03  0.21445426504E+03  0.80407159741E+02 0.  0.
         23    2    1    2    0    0 -0.13554376680E+02  0.10292972361E+03  0.45284300637E+02  0.14662140785E+03  0.93107036393E+02 0.  0.
        -13    1    3    3    0    0  0.39305584448E+02  0.45696924724E+02  0.12132571700E+03  0.13547349373E+03  0.00000000000E+00 0.  1.
         14    1    3    3    0    0  0.27849070097E+02 -0.34326352783E+02  0.65452983397E+02  0.78980771306E+02  0.00000000000E+00 0. -1.
        -13    1    4    4    0    0 -0.39870407974E+02  0.10133412547E+03  0.21257274016E+02  0.11095100773E+03  0.00000000000E+00 0.  1.
         13    1    4    4    0    0  0.26316031294E+02  0.15955981347E+01  0.24027026621E+02  0.35670400120E+02  0.00000000000E+00 0. -1.
         21    1    1    2  503  502 -0.75799884519E+01 -0.21214553746E+02 -0.24249169968E+02  0.33098878527E+02  0.00000000000E+00 0. -1.
          1    1    1    2  501    0 -0.46020289413E+02 -0.93085741800E+02  0.10520702507E+02  0.10437196724E+03  0.00000000000E+00 0. -1.
<scales pt_clust_5="13000.00000" pt_clust_6="13000.00000" pt_clust_7="13000.00000" pt_clust_8="13000.00000" pt_clust_9="22.52806" pt_clust_10="13000.00000"></scales>
<clustering>
<clus scale="   22.528">  2  9  1 -1</clus>
<clus scale="   80.407">  5  6 -1 -1</clus>
<clus scale="   93.107">  7  8 -1 -1</clus>
<clus scale="  104.527">  1  5  2 -1</clus>
<clus scale="  100.236">  7 10 -1 -1</clus>
<clus scale="   22.528">  2  5  1 -1</clus>
</clustering>
</event>
<event>
10    4  0.2866397E-005  0.3870754E+03  0.7546771E-02  0.1067046E+00
         21   -1    0    0  503  502  0.00000000000E+00  0.00000000000E+00  0.92225793229E+02  0.92225793229E+02  0.00000000000E+00 0. -1.
          2   -1    0    0  502    0 -0.00000000000E+00 -0.00000000000E+00 -0.12635343783E+04  0.12635343783E+04  0.00000000000E+00 0. -1.
         24    2    1    2    0    0  0.14557710872E+03 -0.16838495771E+03 -0.56457926142E+03  0.61230990398E+03  0.81409382202E+02 0.  0.
         23    2    1    2    0    0 -0.83859513135E+02  0.19142220664E+03 -0.20573600035E+03  0.30630817381E+03  0.88444990608E+02 0.  0.
        -13    1    3    3    0    0  0.53764184122E+02 -0.13334297874E+02 -0.16299986688E+03  0.17215501037E+03  0.00000000000E+00 0.  1.
         14    1    3    3    0    0  0.91812924600E+02 -0.15505065984E+03 -0.40157939455E+03  0.44015489361E+03  0.00000000000E+00 0. -1.
        -11    1    4    4    0    0 -0.18795469104E+01  0.10307883751E+03 -0.12108451815E+03  0.15902905387E+03  0.00000000000E+00 0. -1.
         11    1    4    4    0    0 -0.81979966225E+02  0.88343369135E+02 -0.84651482203E+02  0.14727911994E+03  0.00000000000E+00 0.  1.
         21    1    1    2  503  501 -0.67253346899E+01  0.32065528959E+02 -0.44909469634E+01  0.33069576331E+02  0.00000000000E+00 0.  1.
          1    1    1    2  501    0 -0.54992260897E+02 -0.55102777887E+02 -0.39650237632E+03  0.40407251740E+03  0.00000000000E+00 0. -1.
<scales pt_clust_5="13000.00000" pt_clust_6="13000.00000" pt_clust_7="13000.00000" pt_clust_8="13000.00000" pt_clust_9="32.76322" pt_clust_10="13000.00000"></scales>
<clustering>
<clus scale="   32.763">  1  9  2 -1</clus>
<clus scale="   81.409">  5  6 -1 -1</clus>
<clus scale="   88.445">  7  8 -1 -1</clus>
<clus scale="   76.989">  7 10 -1 -1</clus>
<clus scale="  228.841">  2  5  1 -1</clus>
<clus scale="   32.763">  1  5  2 -1</clus>
</clustering>
</event>
<event>
10    4  0.2866397E-005  0.3262107E+03  0.7546771E-02  0.1093918E+00
         21   -1    0    0  501  502  0.00000000000E+00  0.00000000000E+00  0.23878228953E+04  0.23878228953E+04  0.00000000000E+00 0.  1.
         -1   -1    0    0    0  501 -0.00000000000E+00 -0.00000000000E+00 -0.13753241360E+03  0.13753241360E+03  0.00000000000E+00 0.  1.
         24    2    1    2    0    0 -0.74467628083E+01 -0.16666618711E+03  0.29506832216E+03  0.34852100150E+03  0.81046292610E+02 0.  0.
         23    2    1    2    0    0 -0.17117523069E+03 -0.66753556564E+02  0.96723832852E+02  0.22713241198E+03  0.92068647306E+02 0.  0.
        -11    1    3    3    0    0 -0.88577340882E+01 -0.17579987102E+03  0.28368756895E+03  0.33386028647E+03  0.00000000000E+00 0.  1.
         12    1    3    3    0    0  0.14109712799E+01  0.91336839115E+01  0.11380753211E+02  0.14660715037E+02  0.00000000000E+00 0. -1.
        -11    1    4    4    0    0 -0.16260359411E+03 -0.28702925983E+02  0.67441044200E+02  0.17835941584E+03  0.00000000000E+00 0.  1.
         11    1    4    4    0    0 -0.85716365785E+01 -0.38050630581E+02  0.29282788652E+02  0.48772996140E+02  0.00000000000E+00 0. -1.
         21    1    1    2  503  502  0.15608665622E+03  0.17901081272E+03  0.18738510296E+04  0.18888423959E+04  0.00000000000E+00 0.  1.
         -2    1    1    2    0  503  0.22535337275E+02  0.54408930957E+02 -0.15352702931E+02  0.60859499515E+02  0.00000000000E+00 0.  1.
<scales pt_clust_5="13000.00000" pt_clust_6="13000.00000" pt_clust_7="13000.00000" pt_clust_8="13000.00000" pt_clust_9="228.78271" pt_clust_10="13000.00000"></scales>
<clustering>
<clus scale="   81.046">  5  6 -1 -1</clus>
<clus scale="   92.069">  7  8 -1 -1</clus>
<clus scale="   58.891">  7 10 -1 -1</clus>
<clus scale="  185.477">  2  5  1 -1</clus>
<clus scale="  228.783">  1  9  2 -1</clus>
<clus scale="  228.783">  1  5  2 -1</clus>
</clustering>
</event>
<event>
10    4  0.2866397E-005  0.1357048E+03  0.7546771E-02  0.1235624E+00
          2   -1    0    0  503    0 -0.00000000000E+00  0.00000000000E+00  0.26428701913E+03  0.26428701913E+03  0.00000000000E+00 0. -1.
         21   -1    0    0  501  502  0.00000000000E+00 -0.00000000000E+00 -0.24877788730E+03  0.24877788730E+03  0.00000000000E+00 0.  1.
         24    2    1    2    0    0 -0.44363770515E+02  0.13245945365E+02  0.18825051265E+03  0.21099066417E+03  0.83277882125E+02 0.  0.
         23    2    1    2    0    0  0.44877023457E+02  0.12811229554E+02 -0.70205913736E+01  0.10281062942E+03  0.91338173733E+02 0.  0.
        -11    1    3    3    0    0  0.20516617363E+02  0.36002215105E+01  0.14802222677E+02  0.25553844703E+02  0.00000000000E+00 0.  1.
         12    1    3    3    0    0 -0.64880387877E+02  0.96457238543E+01  0.17344828997E+03  0.18543681947E+03  0.00000000000E+00 0. -1.
        -11    1    4    4    0    0  0.12426048967E+02 -0.32719160291E+02  0.20428225929E+02  0.40524838774E+02  0.00000000000E+00 0.  1.
         11    1    4    4    0    0  0.32450974490E+02  0.45530389845E+02 -0.27448817303E+02  0.62285790643E+02  0.00000000000E+00 0. -1.
         21    1    1    2  503  502 -0.19211202136E+02  0.99282325131E+01 -0.15609215950E+03  0.15758300145E+03  0.00000000000E+00 0.  1.
          1    1    1    2  501    0  0.18697949193E+02 -0.35985407432E+02 -0.96286299450E+01  0.41680611400E+02  0.00000000000E+00 0. -1.
<scales pt_clust_5="13000.00000" pt_clust_6="13000.00000" pt_clust_7="13000.00000" pt_clust_8="13000.00000" pt_clust_9="21.62499" pt_clust_10="13000.00000"></scales>
<clustering>
<clus scale="   21.625">  2  9  1 -1</clus>
<clus scale="   83.278">  5  6 -1 -1</clus>
<clus scale="   91.338">  7  8 -1 -1</clus>
<clus scale="   35.793">  7 10 -1 -1</clus>
<clus scale="   96.588">  1  5  2 -1</clus>
<clus scale="   21.625">  2  5  1 -1</clus>
</clustering>
</event>
<event>
10    4  0.2866397E-005  0.1816497E+03  0.7546771E-02  0.1189585E+00
         21   -1    0    0  503  502  0.00000000000E+00  0.00000000000E+00  0.55761601708E+03  0.55761601708E+03  0.00000000000E+00 0. -1.
          2   -1    0    0  502    0 -0.00000000000E+00 -0.00000000000E+00 -0.40946560300E+03  0.40946560300E+03  0.00000000000E+00 0. -1.
         24    2    1    2    0    0  0.89390257096E+01 -0.53003401681E+02 -0.93478621625E+02  0.13465949588E+03  0.80657673909E+02 0.  0.
         23    2    1    2    0    0 -0.63152528650E+02  0.10594981923E+02 -0.95214769841E+02  0.14652938653E+03  0.91129101848E+02 0.  0.
        -11    1    3    3    0    0 -0.10741701629E+02  0.18247100178E+02 -0.32725647486E+02  0.38978312203E+02  0.00000000000E+00 0.  1.
         12    1    3    3    0    0  0.19680727339E+02 -0.71250501860E+02 -0.60752974139E+02  0.95681183681E+02  0.00000000000E+00 0. -1.
        -11    1    4    4    0    0 -0.30427491770E+02  0.50184215364E+02 -0.39453760343E+02  0.70716949399E+02  0.00000000000E+00 0. -1.
         11    1    4    4    0    0 -0.32725036881E+02 -0.39589233441E+02 -0.55761009499E+02  0.75812437130E+02  0.00000000000E+00 0.  1.
         21    1    1    2  503  501  0.54510683295E+02 -0.28562096493E+02  0.50219629587E+03  0.50595289063E+03  0.00000000000E+00 0. -1.
          1    1    1    2  501    0 -0.29718035371E+00  0.70970516251E+02 -0.16535249032E+03  0.17993984703E+03  0.00000000000E+00 0. -1.
<scales pt_clust_5="13000.00000" pt_clust_6="13000.00000" pt_clust_7="13000.00000" pt_clust_8="13000.00000" pt_clust_9="61.54030" pt_clust_10="13000.00000"></scales>
<clustering>
<clus scale="   61.540">  1  9  2 -1</clus>
<clus scale="   80.658">  5  6 -1 -1</clus>
<clus scale="   91.129">  7  8 -1 -1</clus>
<clus scale="   67.457">  7 10 -1 -1</clus>
<clus scale="  107.211">  2  5  1 -1</clus>
<clus scale="   61.540">  1  5  2 -1</clus>
</clustering>
</event>
<event>
10    4  0.2866397E-005  0.2895645E+03  0.7546771E-02  0.1137083E+00
         21   -1    0    0  503  502  0.00000000000E+00  0.00000000000E+00  0.24578654657E+03  0.24578654657E+03  0.00000000000E+00 0.  1.
          2   -1    0    0  502    0 -0.00000000000E+00 -0.00000000000E+00 -0.51531428662E+03  0.51531428662E+03  0.00000000000E+00 0. -1.
         24    2    1    2    0    0  0.32674916710E+02 -0.13896048150E+02 -0.20117215028E+03  0.22055560771E+03  0.83149213493E+02 0.  0.
         23    2    1    2    0    0 -0.23615411012E+02  0.95874391556E+02 -0.15766449314E+02  0.13453128444E+03  0.90002772043E+02 0.  0.
        -13    1    3    3    0    0  0.16969512456E+02  0.34748469558E+02 -0.99661154032E+02  0.10690073018E+03  0.00000000000E+00 0.  1.
         14    1    3    3    0    0  0.15705404253E+02 -0.48644517708E+02 -0.10151099625E+03  0.11365487753E+03  0.00000000000E+00 0. -1.
        -13    1    4    4    0    0 -0.13340790509E+02  0.38751629377E+02  0.37649934038E+02  0.55652340507E+02  0.00000000000E+00 0.  1.
         13    1    4    4    0    0 -0.10274620503E+02  0.57122762179E+02 -0.53416383353E+02  0.78878943933E+02  0.00000000000E+00 0. -1.
         21    1    1    2  503  501 -0.23669357057E+02  0.70670483678E+01  0.16689043626E+03  0.16870862264E+03  0.00000000000E+00 0.  1.
          1    1    1    2  501    0  0.14609851359E+02 -0.89045391774E+02 -0.21947957671E+03  0.23730531841E+03  0.00000000000E+00 0. -1.
<scales pt_clust_5="13000.00000" pt_clust_6="13000.00000" pt_clust_7="13000.00000" pt_clust_8="13000.00000" pt_clust_9="24.70185" pt_clust_10="13000.00000"></scales>
<clustering>
<clus scale="   24.702">  1  9  2 -1</clus>
<clus scale="   83.149">  5  6 -1 -1</clus>
<clus scale="   89.260">  2  5  1 -1</clus>
<clus scale="   90.003">  7  8 -1 -1</clus>
<clus scale="  103.141">  7 10 -1 -1</clus>
<clus scale="   24.702">  1  5  2 -1</clus>
</clustering>
</event>
<event>
10    4  0.2866397E-005  0.1670098E+03  0.7546771E-02  0.1215043E+00
          2   -1    0    0  503    0 -0.00000000000E+00  0.00000000000E+00  0.10738352722E+04  0.10738352722E+04  0.00000000000E+00 0. -1.
         21   -1    0    0  501  502  0.00000000000E+00 -0.00000000000E+00 -0.33032206291E+02  0.33032206291E+02  0.00000000000E+00 0.  1.
         24    2    1    2    0    0  0.59484840574E+00  0.19531503587E+02  0.37798014804E+03  0.38666066634E+03  0.79092636250E+02 0.  0.
         23    2    1    2    0    0 -0.71825425396E+02  0.31719041070E+02  0.40950107493E+03  0.42715805055E+03  0.92778663972E+02 0.  0.
        -11    1    3    3    0    0  0.25465761944E+02  0.11956211319E+02  0.47843489326E+02  0.55501851242E+02  0.00000000000E+00 0.  1.
         12    1    3    3    0    0 -0.24870913538E+02  0.75752922684E+01  0.33013665871E+03  0.33115881510E+03  0.00000000000E+00 0. -1.
        -13    1    4    4    0    0 -0.10951204422E+02  0.41184584316E+02  0.68779382021E+02  0.80911694178E+02  0.00000000000E+00 0.  1.
         13    1    4    4    0    0 -0.60874220973E+02 -0.94655432456E+01  0.34072169290E+03  0.34624635638E+03  0.00000000000E+00 0. -1.
         21    1    1    2  503  502  0.22444891891E+02 -0.53731284065E+02  0.32088818253E+02  0.66486963505E+02  0.00000000000E+00 0.  1.
          1    1    1    2  501    0  0.48785685099E+02  0.24807394076E+01  0.22123302471E+03  0.22656179810E+03  0.00000000000E+00 0. -1.
<scales pt_clust_5="13000.00000" pt_clust_6="13000.00000" pt_clust_7="13000.00000" pt_clust_8="13000.00000" pt_clust_9="58.23078" pt_clust_10="13000.00000"></scales>
<clustering>
<clus scale="   58.231">  2  9  1 -1</clus>
<clus scale="   79.093">  5  6 -1 -1</clus>
<clus scale="   79.525">  1  5  2 -1</clus>
<clus scale="   92.779">  7  8 -1 -1</clus>
<clus scale="   55.546">  7 10 -1 -1</clus>
<clus scale="   58.231">  2  5  1 -1</clus>
</clustering>
</event>
<event>
10    4  0.2866397E-005  0.3623981E+03  0.7546771E-02  0.1114919E+00
          2   -1    0    0  503    0 -0.00000000000E+00  0.00000000000E+00  0.33325498295E+03  0.33325498295E+03  0.00000000000E+00 0. -1.
         21   -1    0    0  501  502  0.00000000000E+00 -0.00000000000E+00 -0.56327414624E+03  0.56327414624E+03  0.00000000000E+00 0. -1.
         24    2    1    2    0    0 -0.86081763261E+01 -0.72250014825E+01  0.12774217767E+03  0.15008719353E+03  0.77985898474E+02 0.  0.
         23    2    1    2    0    0 -0.39897676348E+02 -0.50735165649E+02 -0.12719548265E+03  0.16939484705E+03  0.91378563063E+02 0.  0.
        -13    1    3    3    0    0 -0.22515614433E+02 -0.30525859973E+02  0.11301934394E+03  0.11921473535E+03  0.00000000000E+00 0.  1.
         14    1    3    3    0    0  0.13907438107E+02  0.23300858491E+02  0.14722833728E+02  0.30872458180E+02  0.00000000000E+00 0. -1.
        -11    1    4    4    0    0 -0.42570926111E+02 -0.70908508224E+02 -0.12361708269E+03  0.14873292649E+03  0.00000000000E+00 0. -1.
         11    1    4    4    0    0  0.26732497626E+01  0.20173342576E+02 -0.35783999631E+01  0.20661920561E+02  0.00000000000E+00 0.  1.
         21    1    1    2  503  502  0.22565704216E+03  0.79939513382E+02 -0.30147841551E+03  0.38496839025E+03  0.00000000000E+00 0. -1.
          1    1    1    2  501    0 -0.17715118948E+03 -0.21979346251E+02  0.70912557203E+02  0.19207869837E+03  0.00000000000E+00 0. -1.
<scales pt_clust_5="13000.00000" pt_clust_6="13000.00000" pt_clust_7="13000.00000" pt_clust_8="13000.00000" pt_clust_9="237.13840" pt_clust_10="13000.00000"></scales>
<clustering>
<clus scale="   77.986">  5  6 -1 -1</clus>
<clus scale="   78.792">  1  5  2 -1</clus>
<clus scale="   91.379">  7  8 -1 -1</clus>
<clus scale="  184.938">  7 10 -1 -1</clus>
<clus scale="  237.138">  2  9  1 -1</clus>
<clus scale="  237.138">  2  5  1 -1</clus>
</clustering>
</event>
<event>
10    4  0.2866397E-005  0.1999624E+03  0.7546771E-02  0.1182167E+00
         -3   -1    0    0    0  501 -0.00000000000E+00  0.00000000000E+00  0.36356176853E+03  0.36356176853E+03  0.00000000000E+00 0.  1.
         21   -1    0    0  503  502  0.00000000000E+00 -0.00000000000E+00 -0.11869635492E+03  0.11869635492E+03  0.00000000000E+00 0. -1.
         24    2    1    2    0    0 -0.38919400291E+02 -0.55262669896E+02 -0.27301347472E+02  0.10801094212E+03  0.79701428093E+02 0.  0.
         23    2    1    2    0    0  0.25031745580E+02 -0.58897569740E+01  0.49163090590E+02  0.10870137015E+03  0.93475669944E+02 0.  0.
        -11    1    3    3    0    0 -0.51793224073E+02 -0.97811662889E+01  0.13703052083E+01  0.52726530420E+02  0.00000000000E+00 0.  1.
         12    1    3    3    0    0  0.12873823782E+02 -0.45481503607E+02 -0.28671652680E+02  0.55284411696E+02  0.00000000000E+00 0. -1.
        -13    1    4    4    0    0  0.60764656348E+02 -0.58274488597E+00  0.32612869746E+02  0.68965805482E+02  0.00000000000E+00 0.  1.
         13    1    4    4    0    0 -0.35732910768E+02 -0.53070120881E+01  0.16550220844E+02  0.39735564665E+02  0.00000000000E+00 0. -1.
         21    1    1    2  503  501  0.68006024885E+01  0.24923396342E+02 -0.11410831141E+02  0.28242360857E+02  0.00000000000E+00 0. -1.
         -4    1    1    2    0  502  0.70870522221E+01  0.36229030528E+02  0.23441450164E+03  0.23730345033E+03  0.00000000000E+00 0.  1.
<scales pt_clust_5="13000.00000" pt_clust_6="13000.00000" pt_clust_7="13000.00000" pt_clust_8="13000.00000" pt_clust_9="25.83455" pt_clust_10="13000.00000"></scales>
<clustering>
<clus scale="   25.835">  2  9  1 -1</clus>
<clus scale="   79.701">  5  6 -1 -1</clus>
<clus scale="   93.476">  7  8 -1 -1</clus>
<clus scale="   37.292">  7 10 -1 -1</clus>
<clus scale="   94.796">  1  5  2 -1</clus>
<clus scale="   25.835">  2  5  1 -1</clus>
</clustering>
</event>
<event>
10    4  0.2866397E-005  0.3824719E+03  0.7546771E-02  0.1102530E+00
         -1   -1    0    0    0  501 -0.00000000000E+00  0.00000000000E+00  0.59671025001E+03  0.59671025001E+03  0.00000000000E+00 0.  1.
         21   -1    0    0  503  502  0.00000000000E+00 -0.00000000000E+00 -0.17787595459E+03  0.17787595459E+03  0.00000000000E+00 0. -1.
         24    2    1    2    0    0  0.39905944011E+02  0.28915463375E+02  0.14207093736E+03  0.17026491644E+03  0.79858638470E+02 0.  0.
         23    2    1    2    0    0  0.81369253471E+02 -0.16820680442E+01 -0.30694162044E+02  0.11986652938E+03  0.82474653796E+02 0.  0.
        -13    1    3    3    0    0  0.59176222581E+02  0.16623752671E+01  0.10370164884E+03  0.11940946689E+03  0.00000000000E+00 0.  1.
         14    1    3    3    0    0 -0.19270278569E+02  0.27253088107E+02  0.38369288517E+02  0.50855449549E+02  0.00000000000E+00 0. -1.
        -11    1    4    4    0    0  0.61705182535E+02  0.32560789211E+02  0.13577539481E+00  0.69769283934E+02  0.00000000000E+00 0.  1.
         11    1    4    4    0    0  0.19664070936E+02 -0.34242857256E+02 -0.30829937439E+02  0.50097245446E+02  0.00000000000E+00 0. -1.
         21    1    1    2  503  501 -0.13068051231E+02 -0.25421361913E+02 -0.78536544799E+02  0.83576363126E+02  0.00000000000E+00 0. -1.
         -2    1    1    2    0  502 -0.10820714625E+03 -0.18120334173E+01  0.38599406491E+03  0.40087839566E+03  0.00000000000E+00 0.  1.
<scales pt_clust_5="13000.00000" pt_clust_6="13000.00000" pt_clust_7="13000.00000" pt_clust_8="13000.00000" pt_clust_9="28.58355" pt_clust_10="13000.00000"></scales>
<clustering>
<clus scale="   28.584">  2  9  1 -1</clus>
<clus scale="   79.859">  5  6 -1 -1</clus>
<clus scale="   82.475">  7  8 -1 -1</clus>
<clus scale="   91.964">  1  5  2 -1</clus>
<clus scale="   77.365">  7 10 -1 -1</clus>
<clus scale="   28.584">  2  5  1 -1</clus>
</clustering>
</event>
<event>
10    4  0.2866397E-005  0.1852577E+03  0.7546771E-02  0.1192530E+00
          2   -1    0    0  502    0 -0.00000000000E+00  0.00000000000E+00  0.63882869156E+03  0.63882869156E+03  0.00000000000E+00 0. -1.
         21   -1    0    0  503  502  0.00000000000E+00 -0.00000000000E+00 -0.11691361261E+03  0.11691361261E+03  0.00000000000E+00 0. -1.
         24    2    1    2    0    0 -0.22573392198E+02  0.54916857839E+02  0.20009691903E+03  0.22297102408E+03  0.78433929298E+02 0.  0.
         23    2    1    2    0    0  0.16677696155E+02  0.27990008411E+02  0.16226960236E+03  0.19338511928E+03  0.10002396907E+03 0.  0.
        -13    1    3    3    0    0  0.22450618233E+02  0.44198730069E+02  0.78265167777E+02  0.92644451998E+02  0.00000000000E+00 0.  1.
         14    1    3    3    0    0 -0.45024010432E+02  0.10718127770E+02  0.12183175125E+03  0.13032657208E+03  0.00000000000E+00 0. -1.
        -13    1    4    4    0    0  0.58676363168E+02  0.18914323121E+02  0.85492005190E+02  0.10540185086E+03  0.00000000000E+00 0. -1.
         13    1    4    4    0    0 -0.41998667013E+02  0.90756852903E+01  0.76777597174E+02  0.87983268421E+02  0.00000000000E+00 0.  1.
         21    1    1    2  503  501 -0.35911390211E+01 -0.20373403280E+02 -0.84644005380E+02  0.87135408919E+02  0.00000000000E+00 0. -1.
          1    1    1    2  501    0  0.94868350641E+01 -0.62533462970E+02  0.24419256294E+03  0.25225075188E+03  0.00000000000E+00 0. -1.
<scales pt_clust_5="13000.00000" pt_clust_6="13000.00000" pt_clust_7="13000.00000" pt_clust_8="13000.00000" pt_clust_9="20.68748" pt_clust_10="13000.00000"></scales>
<clustering>
<clus scale="   20.687">  2  9  1 -1</clus>
<clus scale="   78.434">  5  6 -1 -1</clus>
<clus scale="   94.712">  1  5  2 -1</clus>
<clus scale="  100.024">  7  8 -1 -1</clus>
<clus scale="   36.688">  7 10 -1 -1</clus>
<clus scale="   20.687">  2  5  1 -1</clus>
</clustering>
</event>
<event>
10    4  0.2866397E-005  0.5571745E+03  0.7546771E-02  0.1014450E+00
         21   -1    0    0  503  502  0.00000000000E+00  0.00000000000E+00  0.60707128434E+03  0.60707128434E+03  0.00000000000E+00 0.  1.
          2   -1    0    0  502    0 -0.00000000000E+00 -0.00000000000E+00 -0.39694449751E+03  0.39694449751E+03  0.00000000000E+00 0. -1.
         24    2    1    2    0    0  0.13532981270E+03  0.32588810413E+03  0.20379172771E+03  0.41789715188E+03  0.92680886093E+02 0.  0.
         23    2    1    2    0    0  0.11757000383E+03  0.17591447205E+02 -0.11509246475E+02  0.14975166036E+03  0.90337878054E+02 0.  0.
        -13    1    3    3    0    0  0.11330134745E+03  0.29292549268E+03  0.20993716072E+03  0.37777791234E+03  0.00000000000E+00 0.  1.
         14    1    3    3    0    0  0.22028465243E+02  0.32962611452E+02 -0.61454330120E+01  0.40119239545E+02  0.00000000000E+00 0. -1.
        -11    1    4    4    0    0  0.78018504596E+02  0.43007235388E+02 -0.36775001228E+02  0.96378991852E+02  0.00000000000E+00 0.  1.
         11    1    4    4    0    0  0.39551499238E+02 -0.25415788183E+02  0.25265754753E+02  0.53372668513E+02  0.00000000000E+00 0. -1.
         21    1    1    2  503  501 -0.24769224907E+02 -0.12687272415E+02  0.20439268563E+02  0.34528902143E+02  0.00000000000E+00 0.  1.
          1    1    1    2  501    0 -0.22813059162E+03 -0.33079227892E+03 -0.25949629624E+01  0.40183806746E+03  0.00000000000E+00 0. -1.
<scales pt_clust_5="13000.00000" pt_clust_6="13000.00000" pt_clust_7="13000.00000" pt_clust_8="13000.00000" pt_clust_9="27.82951" pt_clust_10="13000.00000"></scales>
<clustering>
<clus scale="   27.830">  1  9  2 -1</clus>
<clus scale="   90.338">  7  8 -1 -1</clus>
<clus scale="   92.681">  5  6 -1 -1</clus>
<clus scale="  353.977">  2  5  1 -1</clus>
<clus scale="  180.550">  7 10 -1 -1</clus>
<clus scale="   27.830">  1  5  2 -1</clus>
</clustering>
</event>
<event>
10    4  0.2866397E-005  0.5979235E+03  0.7546771E-02  0.1004521E+00
         21   -1    0    0  501  502  0.00000000000E+00  0.00000000000E+00  0.29681793520E+03  0.29681793520E+03  0.00000000000E+00 0. -1.
          2   -1    0    0  503    0 -0.00000000000E+00 -0.00000000000E+00 -0.10102365819E+04  0.10102365819E+04  0.00000000000E+00 0. -1.
         24    2    1    2    0    0  0.31686262804E+03 -0.16537257146E+03 -0.46124442860E+02  0.37376787811E+03  0.99120885979E+02 0.  0.
         23    2    1    2    0    0  0.50463036924E+02  0.17913888783E+03 -0.13374065842E+03  0.24666529254E+03  0.91213724866E+02 0.  0.
        -11    1    3    3    0    0  0.16591434317E+03 -0.89420885797E+02 -0.74039593210E+02  0.20249821098E+03  0.00000000000E+00 0.  1.
         12    1    3    3    0    0  0.15094828487E+03 -0.75951685660E+02  0.27915150350E+02  0.17126966713E+03  0.00000000000E+00 0. -1.
        -13    1    4    4    0    0  0.68711699620E+01  0.11223509116E+03 -0.12206639916E+03  0.16596425660E+03  0.00000000000E+00 0. -1.
         13    1    4    4    0    0  0.43591866962E+02  0.66903796663E+02 -0.11674259261E+02  0.80701035944E+02  0.00000000000E+00 0.  1.
         21    1    1    2  503  502  0.15865714721E+02 -0.40021239121E+02 -0.26633328688E+02  0.50623657329E+02  0.00000000000E+00 0. -1.
          1    1    1    2  501    0 -0.38319137969E+03  0.26254922752E+02 -0.50692021677E+03  0.63599768915E+03  0.00000000000E+00 0. -1.
<scales pt_clust_5="13000.00000" pt_clust_6="13000.00000" pt_clust_7="13000.00000" pt_clust_8="13000.00000" pt_clust_9="43.05137" pt_clust_10="13000.00000"></scales>
<clustering>
<clus scale="   43.051">  1  9  2 -1</clus>
<clus scale="   91.214">  7  8 -1 -1</clus>
<clus scale="   99.121">  5  6 -1 -1</clus>
<clus scale="  379.985">  7 10 -1 -1</clus>
<clus scale="  389.339">  2  5  1 -1</clus>
<clus scale="   43.051">  1  5  2 -1</clus>
</clustering>
</event>
<event>
10    4  0.2866397E-005  0.2786064E+03  0.7546771E-02  0.1143724E+00
          2   -1    0    0  503    0 -0.00000000000E+00  0.00000000000E+00  0.14184741449E+03  0.14184741449E+03  0.00000000000E+00 0. -1.
         21   -1    0    0  501  502  0.00000000000E+00 -0.00000000000E+00 -0.45519570941E+03  0.45519570941E+03  0.00000000000E+00 0. -1.
         24    2    1    2    0    0  0.18708543563E+02  0.15515059435E+02  0.43401842432E+02  0.94781964648E+02  0.80679453546E+02 0.  0.
         23    2    1    2    0    0 -0.82220720728E+02  0.56864451170E+02 -0.22463937445E+02  0.14014032008E+03  0.95607887247E+02 0.  0.
        -13    1    3    3    0    0 -0.21956135562E+02  0.83725766672E+01 -0.11440752144E+02  0.26135468974E+02  0.00000000000E+00 0.  1.
         14    1    3    3    0    0  0.40664679126E+02  0.71424827683E+01  0.54842594576E+02  0.68646495674E+02  0.00000000000E+00 0. -1.
        -13    1    4    4    0    0 -0.84430994412E+02  0.30776232321E+01 -0.14494848506E+02  0.85721439648E+02  0.00000000000E+00 0.  1.
         13    1    4    4    0    0  0.22102736845E+01  0.53786827938E+02 -0.79690889385E+01  0.54418880436E+02  0.00000000000E+00 0. -1.
         21    1    1    2  503  502  0.57698867124E+02  0.50462878629E+01 -0.10323599874E+03  0.11837354318E+03  0.00000000000E+00 0.  1.
          1    1    1    2  501    0  0.58133100401E+01 -0.77425798468E+02 -0.23105020116E+03  0.24374729599E+03  0.00000000000E+00 0. -1.
<scales pt_clust_5="13000.00000" pt_clust_6="13000.00000" pt_clust_7="13000.00000" pt_clust_8="13000.00000" pt_clust_9="57.91912" pt_clust_10="13000.00000"></scales>
<clustering>
<clus scale="   57.919">  2  9  1 -1</clus>
<clus scale="   80.679">  5  6 -1 -1</clus>
<clus scale="   85.389">  1  5  2 -1</clus>
<clus scale="   95.608">  7  8 -1 -1</clus>
<clus scale="   86.764">  7 10 -1 -1</clus>
<clus scale="   57.919">  2  5  1 -1</clus>
</clustering>
</event>
<event>
10    4  0.2866397E-005  0.4121532E+03  0.7546771E-02  0.1041781E+00
         21   -1    0    0  503  502  0.00000000000E+00  0.00000000000E+00  0.31590018045E+03  0.31590018045E+03  0.00000000000E+00 0. -1.
          2   -1    0    0  502    0 -0.00000000000E+00 -0.00000000000E+00 -0.75969350774E+03  0.75969350774E+03  0.00000000000E+00 0. -1.
         24    2    1    2    0    0  0.34376762547E+03 -0.12463030378E+03  0.70239909066E+02  0.38118003571E+03  0.81582362460E+02 0.  0.
         23    2    1    2    0    0 -0.12896586893E+03  0.15766751496E+02 -0.11994674062E+03  0.19721195373E+03  0.87318659567E+02 0.  0.
        -11    1    3    3    0    0  0.17763909946E+03 -0.36062159187E+02  0.65889429392E+02  0.19286665313E+03  0.00000000000E+00 0.  1.
         12    1    3    3    0    0  0.16612852600E+03 -0.88568144591E+02  0.43504796734E+01  0.18831338259E+03  0.00000000000E+00 0. -1.
        -13    1    4    4    0    0 -0.11397072645E+03  0.44572681275E+02 -0.10587349353E+03  0.16181856209E+03  0.00000000000E+00 0. -1.
         13    1    4    4    0    0 -0.14995142474E+02 -0.28805929780E+02 -0.14073247088E+02  0.35393391641E+02  0.00000000000E+00 0.  1.
         21    1    1    2  503  501  0.29729050401E+02  0.34430758115E+02 -0.82263475585E+02  0.94003047597E+02  0.00000000000E+00 0. -1.
          1    1    1    2  501    0 -0.24453080694E+03  0.74432794166E+02 -0.31182302014E+03  0.40319865114E+03  0.00000000000E+00 0. -1.
<scales pt_clust_5="13000.00000" pt_clust_6="13000.00000" pt_clust_7="13000.00000" pt_clust_8="13000.00000" pt_clust_9="45.48951" pt_clust_10="13000.00000"></scales>
<clustering>
<clus scale="   45.490">  1  9  2 -1</clus>
<clus scale="   81.582">  5  6 -1 -1</clus>
<clus scale="   87.319">  7  8 -1 -1</clus>
<clus scale="  252.969">  7 10 -1 -1</clus>
<clus scale="  387.420">  2  5  1 -1</clus>
<clus scale="   45.490">  1  5  2 -1</clus>
</clustering>
</event>
<event>
10    4  0.2866397E-005  0.4125178E+03  0.7546771E-02  0.1066651E+00
         21   -1    0    0  503  502  0.00000000000E+00  0.00000000000E+00  0.32533239111E+03  0.32533239111E+03  0.00000000000E+00 0. -1.
          2   -1    0    0  502    0 -0.00000000000E+00 -0.00000000000E+00 -0.77699892174E+03  0.77699892174E+03  0.00000000000E+00 0. -1.
         24    2    1    2    0    0  0.12204695311E+03 -0.12220481279E+03 -0.57714694968E+03  0.60795996190E+03  0.81775538610E+02 0.  0.
         23    2    1    2    0    0  0.78653627144E+02 -0.60130592848E+02  0.51289417780E+02  0.14367925110E+03  0.90614797689E+02 0.  0.
        -13    1    3    3    0    0  0.75506698983E+02 -0.22391778332E+02 -0.19630804141E+03  0.21151713985E+03  0.00000000000E+00 0.  1.
         14    1    3    3    0    0  0.46540254127E+02 -0.99813034460E+02 -0.38083890826E+03  0.39644282204E+03  0.00000000000E+00 0. -1.
        -13    1    4    4    0    0  0.90822908046E+00 -0.52182297305E+02  0.40192184975E+01  0.52344733731E+02  0.00000000000E+00 0.  1.
         13    1    4    4    0    0  0.77745398063E+02 -0.79482955429E+01  0.47270199282E+02  0.91334517365E+02  0.00000000000E+00 0. -1.
         21    1    1    2  503  501  0.42563205223E+02  0.42295244327E+02  0.28031804241E+02  0.66229118827E+02  0.00000000000E+00 0. -1.
          1    1    1    2  501    0 -0.24326378548E+03  0.14004016131E+03  0.46159197031E+02  0.28446298103E+03  0.00000000000E+00 0. -1.
<scales pt_clust_5="13000.00000" pt_clust_6="13000.00000" pt_clust_7="13000.00000" pt_clust_8="13000.00000" pt_clust_9="60.00428" pt_clust_10="13000.00000"></scales>
<clustering>
<clus scale="   60.004">  1  9  2 -1</clus>
<clus scale="   81.776">  5  6 -1 -1</clus>
<clus scale="   90.615">  7  8 -1 -1</clus>
<clus scale="  191.130">  2  5  1 -1</clus>
<clus scale="  161.279">  7 10 -1 -1</clus>
<clus scale="   60.004">  1  5  2 -1</clus>
</clustering>
</event>
<event>
10    4  0.2866397E-005  0.7175699E+03  0.7546771E-02  0.1015801E+00
          2   -1    0    0  502    0 -0.00000000000E+00  0.00000000000E+00  0.31784558021E+03  0.31784558021E+03  0.00000000000E+00 0. -1.
         21   -1    0    0  503  502  0.00000000000E+00 -0.00000000000E+00 -0.17804098718E+04  0.17804098718E+04  0.00000000000E+00 0. -1.
         24    2    1    2    0    0 -0.11699220646E+03 -0.68967550303E+02 -0.11352773953E+03  0.19537962127E+03  0.82710032014E+02 0.  0.
         23    2    1    2    0    0 -0.19539244332E+02  0.41152412046E+03 -0.20887697565E+03  0.47061715991E+03  0.90094597262E+02 0.  0.
        -13    1    3    3    0    0 -0.77225076871E+02  0.54386308541E+00 -0.41504176667E+02  0.87673285359E+02  0.00000000000E+00 0.  1.
         14    1    3    3    0    0 -0.39767129591E+02 -0.69511413388E+02 -0.72023562862E+02  0.10770633591E+03  0.00000000000E+00 0. -1.
        -13    1    4    4    0    0 -0.25877972310E+02  0.21672385860E+03 -0.63017271882E+02  0.22717851327E+03  0.00000000000E+00 0. -1.
         13    1    4    4    0    0  0.63387279789E+01  0.19480026186E+03 -0.14585970377E+03  0.24343864664E+03  0.00000000000E+00 0.  1.
         21    1    1    2  503  501 -0.15085315616E+03 -0.16129638944E+03 -0.10605292126E+04  0.10832799318E+04  0.00000000000E+00 0. -1.
          1    1    1    2  501    0  0.28738460695E+03 -0.18126018072E+03 -0.79630363814E+02  0.34897873899E+03  0.00000000000E+00 0. -1.
<scales pt_clust_5="13000.00000" pt_clust_6="13000.00000" pt_clust_7="13000.00000" pt_clust_8="13000.00000" pt_clust_9="226.20388" pt_clust_10="13000.00000"></scales>
<clustering>
<clus scale="   82.710">  5  6 -1 -1</clus>
<clus scale="   90.095">  7  8 -1 -1</clus>
<clus scale="  159.011">  1  5  2 -1</clus>
<clus scale="  226.204">  2  9  1 -1</clus>
<clus scale="  328.804">  7 10 -1 -1</clus>
<clus scale="  226.204">  2  5  1 -1</clus>
</clustering>
</event>
<event>
10    4  0.2866397E-005  0.1378570E+03  0.7546771E-02  0.1239990E+00
         21   -1    0    0  503  502  0.00000000000E+00  0.00000000000E+00  0.55862892147E+03  0.55862892147E+03  0.00000000000E+00 0. -1.
          2   -1    0    0  502    0 -0.00000000000E+00 -0.00000000000E+00 -0.15284559635E+03  0.15284559635E+03  0.00000000000E+00 0. -1.
         24    2    1    2    0    0  0.18473305285E+02 -0.20942900427E+02 -0.12392006370E+03  0.14965861631E+03  0.79130595619E+02 0.  0.
         23    2    1    2    0    0 -0.21827714308E+01 -0.95952660177E-01  0.22805121687E+03  0.24385900485E+03  0.86342822710E+02 0.  0.
        -11    1    3    3    0    0 -0.44930848775E+01 -0.25490846048E+02 -0.25025956227E+01  0.26004500165E+02  0.00000000000E+00 0.  1.
         12    1    3    3    0    0  0.22966390162E+02  0.45479456207E+01 -0.12141746807E+03  0.12365411615E+03  0.00000000000E+00 0. -1.
        -13    1    4    4    0    0  0.29385010056E+02  0.29017384046E+02  0.85001419083E+02  0.94502532447E+02  0.00000000000E+00 0. -1.
         13    1    4    4    0    0 -0.31567781487E+02 -0.29113336706E+02  0.14304979778E+03  0.14935647240E+03  0.00000000000E+00 0.  1.
         21    1    1    2  503  501  0.22456114080E+02 -0.28514220462E+02  0.13612031475E+03  0.14087610839E+03  0.00000000000E+00 0. -1.
          1    1    1    2  501    0 -0.38746647934E+02  0.49553073550E+02  0.16553185720E+03  0.17708078826E+03  0.00000000000E+00 0. -1.
<scales pt_clust_5="13000.00000" pt_clust_6="13000.00000" pt_clust_7="13000.00000" pt_clust_8="13000.00000" pt_clust_9="36.29515" pt_clust_10="13000.00000"></scales>
<clustering>
<clus scale="   36.295">  1  9  2 -1</clus>
<clus scale="   79.131">  5  6 -1 -1</clus>
<clus scale="   84.290">  2  5  1 -1</clus>
<clus scale="   86.343">  7  8 -1 -1</clus>
<clus scale="   39.505">  7 10 -1 -1</clus>
<clus scale="   36.295">  1  5  2 -1</clus>
</clustering>
</event>
<event>
10    4  0.2866397E-005  0.4222267E+03  0.7546771E-02  0.1078788E+00
         21   -1    0    0  501  502  0.00000000000E+00  0.00000000000E+00  0.38749603814E+03  0.38749603814E+03  0.00000000000E+00 0. -1.
          4   -1    0    0  503    0 -0.00000000000E+00 -0.00000000000E+00 -0.58160224539E+03  0.58160224539E+03  0.00000000000E+00 0. -1.
         24    2    1    2    0    0  0.55027451095E+02  0.82942603630E+02  0.69338672615E+02  0.14553156605E+03  0.80399560489E+02 0.  0.
         23    2    1    2    0    0  0.50349317584E+02 -0.16331823370E+03 -0.33415193522E+02  0.19766042098E+03  0.93515600962E+02 0.  0.
        -11    1    3    3    0    0  0.32427244349E+02 -0.81520601964E+01  0.24883692699E+02  0.41679496444E+02  0.00000000000E+00 0.  1.
         12    1    3    3    0    0  0.22600206745E+02  0.91094663826E+02  0.44454979916E+02  0.10385206961E+03  0.00000000000E+00 0. -1.
        -11    1    4    4    0    0  0.67556274933E+02 -0.71591324998E+02  0.28908149707E+00  0.98433996495E+02  0.00000000000E+00 0. -1.
         11    1    4    4    0    0 -0.17206957349E+02 -0.91726908702E+02 -0.33704275019E+02  0.99226424484E+02  0.00000000000E+00 0.  1.
         21    1    1    2  503  502 -0.30125127957E+03  0.15101643675E+03 -0.31913318384E+02  0.33849188691E+03  0.00000000000E+00 0. -1.
          3    1    1    2  501    0  0.19587451089E+03 -0.70640806684E+02 -0.19811636796E+03  0.28741440959E+03  0.00000000000E+00 0. -1.
<scales pt_clust_5="13000.00000" pt_clust_6="13000.00000" pt_clust_7="13000.00000" pt_clust_8="13000.00000" pt_clust_9="334.58576" pt_clust_10="13000.00000"></scales>
<clustering>
<clus scale="   80.400">  5  6 -1 -1</clus>
<clus scale="   93.516">  7  8 -1 -1</clus>
<clus scale="  127.952">  2  5  1 -1</clus>
<clus scale="  222.998">  7 10 -1 -1</clus>
<clus scale="  334.586">  1  9  2 -1</clus>
<clus scale="  334.586">  1  5  2 -1</clus>
</clustering>
</event>
<event>
10    4  0.2866397E-005  0.3537570E+03  0.7546771E-02  0.1097608E+00
          2   -1    0    0  502    0 -0.00000000000E+00  0.00000000000E+00  0.40886429593E+03  0.40886429593E+03  0.00000000000E+00 0. -1.
         21   -1    0    0  503  502  0.00000000000E+00 -0.00000000000E+00 -0.17482962521E+03  0.17482962521E+03  0.00000000000E+00 0. -1.
         24    2    1    2    0    0  0.70167977523E+02 -0.90286595479E+02  0.75033306540E+02  0.15599320290E+03  0.75024448473E+02 0.  0.
         23    2    1    2    0    0  0.40159473686E+02 -0.96052455668E+02  0.13877853144E+03  0.19492148699E+03  0.88859708154E+02 0.  0.
        -11    1    3    3    0    0  0.43184108228E+02 -0.96995984200E+02  0.45750797558E+02  0.11561238529E+03  0.00000000000E+00 0.  1.
         12    1    3    3    0    0  0.26983869295E+02  0.67093887208E+01  0.29282508982E+02  0.40380817617E+02  0.00000000000E+00 0. -1.
        -13    1    4    4    0    0  0.27068073364E+02  0.93527146808E+01  0.44393819360E+02  0.52829585129E+02  0.00000000000E+00 0.  1.
         13    1    4    4    0    0  0.13091400322E+02 -0.10540517035E+03  0.94384712081E+02  0.14209190186E+03  0.00000000000E+00 0. -1.
         21    1    1    2  503  501  0.34065066916E+01  0.29577669096E+02 -0.18801720829E+02  0.35212888310E+02  0.00000000000E+00 0.  1.
          1    1    1    2  501    0 -0.11373395790E+03  0.15676138205E+03  0.39024553563E+02  0.19756634294E+03  0.00000000000E+00 0. -1.
<scales pt_clust_5="13000.00000" pt_clust_6="13000.00000" pt_clust_7="13000.00000" pt_clust_8="13000.00000" pt_clust_9="29.77319" pt_clust_10="13000.00000"></scales>
<clustering>
<clus scale="   29.773">  2  9  1 -1</clus>
<clus scale="   75.024">  5  6 -1 -1</clus>
<clus scale="   88.860">  7  8 -1 -1</clus>
<clus scale="  132.056">  1  5  2 -1</clus>
<clus scale="  156.532">  7 10 -1 -1</clus>
<clus scale="   29.773">  2  5  1 -1</clus>
</clustering>
</event>
<event>
10    4  0.2866397E-005  0.2727396E+03  0.7546771E-02  0.1144692E+00
         21   -1    0    0  501  502  0.00000000000E+00  0.00000000000E+00  0.92176817882E+03  0.92176817882E+03  0.00000000000E+00 0. -1.
          2   -1    0    0  503    0 -0.00000000000E+00 -0.00000000000E+00 -0.10653288203E+03  0.10653288203E+03  0.00000000000E+00 0. -1.
         24    2    1    2    0    0  0.28762143833E+02  0.24507496929E+02 -0.36249382421E+02  0.96501861449E+02  0.81059935933E+02 0.  0.
         23    2    1    2    0    0  0.71194362838E+02  0.23402431212E+02  0.42208071082E+03  0.43825390637E+03  0.91093627194E+02 0.  0.
        -11    1    3    3    0    0  0.24216110048E+02 -0.26807157911E+02 -0.24540284406E+02  0.43672293962E+02  0.00000000000E+00 0.  1.
         12    1    3    3    0    0  0.45460337854E+01  0.51314654840E+02 -0.11709098015E+02  0.52829567487E+02  0.00000000000E+00 0. -1.
        -13    1    4    4    0    0  0.89035267943E+02  0.15169100573E+01  0.33927350316E+03  0.35076500667E+03  0.00000000000E+00 0. -1.
         13    1    4    4    0    0 -0.17840905105E+02  0.21885521154E+02  0.82807207653E+02  0.87488899699E+02  0.00000000000E+00 0.  1.
         21    1    1    2  503  502 -0.48447043649E+02  0.21947975152E+02  0.39754644971E+03  0.40108853054E+03  0.00000000000E+00 0. -1.
          1    1    1    2  501    0 -0.51509463022E+02 -0.69857903293E+02  0.31857518682E+02  0.92456762489E+02  0.00000000000E+00 0. -1.
<scales pt_clust_5="13000.00000" pt_clust_6="13000.00000" pt_clust_7="13000.00000" pt_clust_8="13000.00000" pt_clust_9="53.18674" pt_clust_10="13000.00000"></scales>
<clustering>
<clus scale="   53.187">  1  9  2 -1</clus>
<clus scale="   81.060">  5  6 -1 -1</clus>
<clus scale="   88.934">  2  5  1 -1</clus>
<clus scale="   91.094">  7  8 -1 -1</clus>
<clus scale="   60.089">  7 10 -1 -1</clus>
<clus scale="   53.187">  1  5  2 -1</clus>
</clustering>
</event>
<event>
10    4  0.2866397E-005  0.1167113E+03  0.7546771E-02  0.1265121E+00
         21   -1    0    0  503  502  0.00000000000E+00  0.00000000000E+00  0.90353385380E+02  0.90353385380E+02  0.00000000000E+00 0. -1.
          2   -1    0    0  502    0 -0.00000000000E+00 -0.00000000000E+00 -0.23524847301E+03  0.23524847301E+03  0.00000000000E+00 0. -1.
         24    2    1    2    0    0 -0.79194196634E+01  0.16645289878E+02 -0.73159275643E+02  0.11077306156E+03  0.81108622668E+02 0.  0.
         23    2    1    2    0    0  0.30925822644E+02 -0.21882857457E+02 -0.50314793313E+02  0.89194949921E+02  0.63157697144E+02 0.  0.
        -13    1    3    3    0    0  0.18523212940E+01  0.48262916966E+02 -0.54344250097E+02  0.72705142644E+02  0.00000000000E+00 0.  1.
         14    1    3    3    0    0 -0.97717409574E+01 -0.31617627088E+02 -0.18815025547E+02  0.38067918913E+02  0.00000000000E+00 0. -1.
        -11    1    4    4    0    0  0.12643137538E+02 -0.40331267345E+02 -0.46674524476E+02  0.62968017974E+02  0.00000000000E+00 0.  1.
         11    1    4    4    0    0  0.18282685107E+02  0.18448409889E+02 -0.36402688364E+01  0.26226931947E+02  0.00000000000E+00 0. -1.
         21    1    1    2  503  501  0.15977587376E+02  0.14270399337E+02  0.44003721137E+02  0.48941343152E+02  0.00000000000E+00 0. -1.
          1    1    1    2  501    0 -0.38983990357E+02 -0.90328317589E+01 -0.65424739806E+02  0.76692503756E+02  0.00000000000E+00 0. -1.
<scales pt_clust_5="13000.00000" pt_clust_6="13000.00000" pt_clust_7="13000.00000" pt_clust_8="13000.00000" pt_clust_9="21.42260" pt_clust_10="13000.00000"></scales>
<clustering>
<clus scale="   21.423">  1  9  2 -1</clus>
<clus scale="   63.158">  7  8 -1 -1</clus>
<clus scale="   37.628">  7 10 -1 -1</clus>
<clus scale="   81.109">  5  6 -1 -1</clus>
<clus scale="   84.249">  2  5  1 -1</clus>
<clus scale="   21.423">  1  5  2 -1</clus>
</clustering>
</event>
<event>
10    4  0.2866397E-005  0.2685016E+03  0.7546771E-02  0.1124146E+00
         21   -1    0    0  501  502  0.00000000000E+00  0.00000000000E+00  0.77766133362E+03  0.77766133362E+03  0.00000000000E+00 0.  1.
          2   -1    0    0  503    0 -0.00000000000E+00 -0.00000000000E+00 -0.33574463842E+03  0.33574463842E+03  0.00000000000E+00 0. -1.
         24    2    1    2    0    0  0.62322245366E+02 -0.84955868755E+02 -0.34879706679E+02  0.13743730219E+03  0.81060817854E+02 0.  0.
         23    2    1    2    0    0 -0.37549996687E+02  0.49054341243E+02 -0.17151240651E+03  0.20507674395E+03  0.93934203973E+02 0.  0.
        -11    1    3    3    0    0  0.61123185956E+02 -0.15270753571E+02 -0.12438484014E+02  0.64218032207E+02  0.00000000000E+00 0.  1.
         12    1    3    3    0    0  0.11990594100E+01 -0.69685115184E+02 -0.22441222666E+02  0.73219269980E+02  0.00000000000E+00 0. -1.
        -13    1    4    4    0    0 -0.33480933287E+02 -0.22706156498E+02 -0.57707612811E+02  0.70474896333E+02  0.00000000000E+00 0.  1.
         13    1    4    4    0    0 -0.40690633994E+01  0.71760497742E+02 -0.11380479370E+03  0.13460184762E+03  0.00000000000E+00 0. -1.
         21    1    1    2  503  502  0.99244632417E+02 -0.34160324178E+01  0.63202262437E+03  0.63977633909E+03  0.00000000000E+00 0.  1.
          1    1    1    2  501    0 -0.12401688110E+03  0.39317559929E+02  0.16286184009E+02  0.13111558681E+03  0.00000000000E+00 0. -1.
<scales pt_clust_5="13000.00000" pt_clust_6="13000.00000" pt_clust_7="13000.00000" pt_clust_8="13000.00000" pt_clust_9="99.30341" pt_clust_10="13000.00000"></scales>
<clustering>
<clus scale="   81.061">  5  6 -1 -1</clus>
<clus scale="   93.934">  7  8 -1 -1</clus>
<clus scale="   99.303">  1  9  2 -1</clus>
<clus scale="   81.573">  7 10 -1 -1</clus>
<clus scale="  153.777">  2  5  1 -1</clus>
<clus scale="   99.303">  1  5  2 -1</clus>
</clustering>
</event>
<event>
10    4  0.2866397E-005  0.7984216E+03  0.7546771E-02  0.9850122E-01
          2   -1    0    0  502    0 -0.00000000000E+00  0.00000000000E+00  0.23274018311E+04  0.23274018311E+04  0.00000000000E+00 0. -1.
         21   -1    0    0  503  502  0.00000000000E+00 -0.00000000000E+00 -0.18403880544E+03  0.18403880544E+03  0.00000000000E+00 0. -1.
         24    2    1    2    0    0  0.25256630777E+03 -0.17266561432E+03  0.65170683386E+03  0.72405783373E+03  0.77037621368E+02 0.  0.
         23    2    1    2    0    0  0.20007118532E+03  0.18631439023E+03  0.28866067886E+03  0.40761034570E+03  0.89887013517E+02 0.  0.
        -11    1    3    3    0    0  0.22531832409E+03 -0.14834168065E+03  0.61818162311E+03  0.67447914759E+03  0.00000000000E+00 0.  1.
         12    1    3    3    0    0  0.27247983675E+02 -0.24323933671E+02  0.33525210750E+02  0.49578686140E+02  0.00000000000E+00 0. -1.
        -11    1    4    4    0    0  0.66223378578E+02  0.61117043429E+02  0.39720482625E+02  0.98481194183E+02  0.00000000000E+00 0.  1.
         11    1    4    4    0    0  0.13384780674E+03  0.12519734680E+03  0.24894019623E+03  0.30912915151E+03  0.00000000000E+00 0. -1.
         21    1    1    2  503  501 -0.27287348282E+02  0.33659654586E+02 -0.43774282648E+02  0.61593502453E+02  0.00000000000E+00 0. -1.
          1    1    1    2  501    0 -0.42535014480E+03 -0.47308430501E+02  0.12467697956E+04  0.13181789547E+04  0.00000000000E+00 0. -1.
<scales pt_clust_5="13000.00000" pt_clust_6="13000.00000" pt_clust_7="13000.00000" pt_clust_8="13000.00000" pt_clust_9="43.33096" pt_clust_10="13000.00000"></scales>
<clustering>
<clus scale="   43.331">  2  9  1 -1</clus>
<clus scale="   77.038">  5  6 -1 -1</clus>
<clus scale="   89.887">  7  8 -1 -1</clus>
<clus scale="  304.439">  1  5  2 -1</clus>
<clus scale="  292.223">  7 10 -1 -1</clus>
<clus scale="   43.331">  2  5  1 -1</clus>
</clustering>
</event>
<event>
10    4  0.2866397E-005  0.2731948E+03  0.7546771E-02  0.1128628E+00
         -1   -1    0    0    0  501 -0.00000000000E+00  0.00000000000E+00  0.11770554036E+03  0.11770554036E+03  0.00000000000E+00 0.  1.
         21   -1    0    0  501  502  0.00000000000E+00 -0.00000000000E+00 -0.78215428993E+03  0.78215428993E+03  0.00000000000E+00 0.  1.
         24    2    1    2    0    0  0.62271169187E+02  0.57376785767E+02 -0.13072047391E+03  0.17405095219E+03  0.77692326522E+02 0.  0.
         23    2    1    2    0    0  0.21175800567E+02  0.36665611437E+02 -0.16736247145E+02  0.10363845668E+03  0.93102342302E+02 0.  0.
        -11    1    3    3    0    0  0.51580241747E+02  0.81112172221E+01 -0.10542871392E+03  0.11765001871E+03  0.00000000000E+00 0.  1.
         12    1    3    3    0    0  0.10690927441E+02  0.49265568545E+02 -0.25291759992E+02  0.56400933477E+02  0.00000000000E+00 0. -1.
        -13    1    4    4    0    0  0.10141750383E+02  0.68077260754E+02 -0.13956992741E+02  0.70229382590E+02  0.00000000000E+00 0.  1.
         13    1    4    4    0    0  0.11034050184E+02 -0.31411649317E+02 -0.27792544037E+01  0.33409074087E+02  0.00000000000E+00 0. -1.
         21    1    1    2  503  502  0.99645644475E+01  0.58728045185E+02 -0.40846183090E+03  0.41278244044E+03  0.00000000000E+00 0.  1.
         -2    1    1    2    0  503 -0.93411534202E+02 -0.15277044239E+03 -0.10853019761E+03  0.20938798099E+03  0.00000000000E+00 0.  1.
<scales pt_clust_5="13000.00000" pt_clust_6="13000.00000" pt_clust_7="13000.00000" pt_clust_8="13000.00000" pt_clust_9="59.56741" pt_clust_10="13000.00000"></scales>
<clustering>
<clus scale="   59.567">  2  9  1 -1</clus>
<clus scale="   77.692">  5  6 -1 -1</clus>
<clus scale="   93.102">  7  8 -1 -1</clus>
<clus scale="  130.675">  1  5  2 -1</clus>
<clus scale="  108.892">  7 10 -1 -1</clus>
<clus scale="   59.567">  2  5  1 -1</clus>
</clustering>
</event>
<event>
10    4  0.2866397E-005  0.1469063E+03  0.7546771E-02  0.1231070E+00
         21   -1    0    0  503  502  0.00000000000E+00  0.00000000000E+00  0.10027270034E+03  0.10027270034E+03  0.00000000000E+00 0. -1.
          4   -1    0    0  502    0 -0.00000000000E+00 -0.00000000000E+00 -0.43479996489E+03  0.43479996489E+03  0.00000000000E+00 0. -1.
         24    2    1    2    0    0  0.32648531506E+02 -0.74243601531E+01 -0.15162688017E+03  0.17529594942E+03  0.81344399676E+02 0.  0.
         23    2    1    2    0    0 -0.15983005303E+02  0.88883625342E+01 -0.23642153762E+03  0.25426504726E+03  0.91766613554E+02 0.  0.
        -11    1    3    3    0    0  0.37361956799E+02  0.30852756519E+02 -0.96977189444E+02  0.10840841145E+03  0.00000000000E+00 0.  1.
         12    1    3    3    0    0 -0.47134252926E+01 -0.38277116673E+02 -0.54649690726E+02  0.66887537966E+02  0.00000000000E+00 0. -1.
        -13    1    4    4    0    0  0.33924613047E+02  0.22373718645E+02 -0.12487143302E+03  0.13131769660E+03  0.00000000000E+00 0.  1.
         13    1    4    4    0    0 -0.49907618350E+02 -0.13485356111E+02 -0.11155010460E+03  0.12294735066E+03  0.00000000000E+00 0. -1.
         21    1    1    2  503  501 -0.36181212576E+02  0.20959201748E+02  0.61834180787E+02  0.74644719806E+02  0.00000000000E+00 0. -1.
          3    1    1    2  501    0  0.19515686373E+02 -0.22423204129E+02 -0.83130275457E+01  0.30866948748E+02  0.00000000000E+00 0. -1.
<scales pt_clust_5="13000.00000" pt_clust_6="13000.00000" pt_clust_7="13000.00000" pt_clust_8="13000.00000" pt_clust_9="41.81349" pt_clust_10="13000.00000"></scales>
<clustering>
<clus scale="   41.813">  1  9  2 -1</clus>
<clus scale="   81.344">  5  6 -1 -1</clus>
<clus scale="   83.599">  2  5  1 -1</clus>
<clus scale="   91.767">  7  8 -1 -1</clus>
<clus scale="   16.884">  7 10 -1 -1</clus>
<clus scale="   41.813">  1  5  2 -1</clus>
</clustering>
</event>
<event>
10    4  0.2866397E-005  0.9340111E+03  0.7546771E-02  0.9971975E-01
          2   -1    0    0  502    0 -0.00000000000E+00  0.00000000000E+00  0.18267757147E+04  0.18267757147E+04  0.00000000000E+00 0. -1.
         21   -1    0    0  503  502  0.00000000000E+00 -0.00000000000E+00 -0.18223673129E+03  0.18223673129E+03  0.00000000000E+00 0.  1.
         24    2    1    2    0    0  0.10462287380E+03  0.19639757358E+02  0.17398091968E+03  0.21927898722E+03  0.80512409165E+02 0.  0.
         23    2    1    2    0    0  0.18091809845E+03 -0.31578689654E+03  0.22567154227E+03  0.43772090391E+03  0.90659926968E+02 0.  0.
        -13    1    3    3    0    0 -0.45413752261E+01  0.23285353240E+02  0.24059268021E+02  0.33788757630E+02  0.00000000000E+00 0.  1.
         14    1    3    3    0    0  0.10916424903E+03 -0.36455958826E+01  0.14992165166E+03  0.18549022959E+03  0.00000000000E+00 0. -1.
        -13    1    4    4    0    0  0.10650195166E+02 -0.21821089856E+02  0.49286797760E+02  0.54943380429E+02  0.00000000000E+00 0. -1.
         13    1    4    4    0    0  0.17026790329E+03 -0.29396580668E+03  0.17638474451E+03  0.38277752348E+03  0.00000000000E+00 0.  1.
         21    1    1    2  503  501 -0.43735250379E+02  0.11817344623E+01 -0.60995583754E+01  0.44174350413E+02  0.00000000000E+00 0.  1.
          1    1    1    2  501    0 -0.24180572188E+03  0.29496540472E+03  0.12509860799E+04  0.13078382045E+04  0.00000000000E+00 0. -1.
<scales pt_clust_5="13000.00000" pt_clust_6="13000.00000" pt_clust_7="13000.00000" pt_clust_8="13000.00000" pt_clust_9="43.75121" pt_clust_10="13000.00000"></scales>
<clustering>
<clus scale="   43.751">  2  9  1 -1</clus>
<clus scale="   80.512">  5  6 -1 -1</clus>
<clus scale="   90.660">  7  8 -1 -1</clus>
<clus scale="  128.612">  1  5  2 -1</clus>
<clus scale="  354.867">  7 10 -1 -1</clus>
<clus scale="   43.751">  2  5  1 -1</clus>
</clustering>
</event>
<event>
10    4  0.2866397E-005  0.2871476E+03  0.7546771E-02  0.1101978E+00
          4   -1    0    0  503    0 -0.00000000000E+00  0.00000000000E+00  0.76390878601E+03  0.76390878601E+03  0.00000000000E+00 0. -1.
         21   -1    0    0  501  502  0.00000000000E+00 -0.00000000000E+00 -0.25454398603E+03  0.25454398603E+03  0.00000000000E+00 0.  1.
         24    2    1    2    0    0 -0.20500538629E+03  0.47636981496E+00  0.17081244913E+03  0.27887516552E+03  0.81037212633E+02 0.  0.
         23    2    1    2    0    0 -0.44936134611E+02 -0.32031974073E+02  0.24678607749E+03  0.26907155647E+03  0.91928400946E+02 0.  0.
        -13    1    3    3    0    0 -0.30366524890E+02 -0.95159861081E+01  0.70208612491E+02  0.77083909432E+02  0.00000000000E+00 0.  1.
         14    1    3    3    0    0 -0.17463886140E+03  0.99923559231E+01  0.10060383664E+03  0.20179125609E+03  0.00000000000E+00 0. -1.
        -11    1    4    4    0    0 -0.27708876358E+02  0.30107898107E+02  0.72662452660E+02  0.83391242850E+02  0.00000000000E+00 0.  1.
         11    1    4    4    0    0 -0.17227258253E+02 -0.62139872181E+02  0.17412362483E+03  0.18568031362E+03  0.00000000000E+00 0. -1.
         21    1    1    2  503  502  0.17771740101E+03  0.14464886913E+03 -0.88619349846E+02  0.24568304608E+03  0.00000000000E+00 0.  1.
          3    1    1    2  501    0  0.72224119889E+02 -0.11309326487E+03  0.18038562321E+03  0.22482300397E+03  0.00000000000E+00 0. -1.
<scales pt_clust_5="13000.00000" pt_clust_6="13000.00000" pt_clust_7="13000.00000" pt_clust_8="13000.00000" pt_clust_9="206.89021" pt_clust_10="13000.00000"></scales>
<clustering>
<clus scale="   81.037">  5  6 -1 -1</clus>
<clus scale="   91.928">  7  8 -1 -1</clus>
<clus scale="  134.188">  7 10 -1 -1</clus>
<clus scale="  220.442">  1  5  2 -1</clus>
<clus scale="  206.890">  2  9  1 -1</clus>
<clus scale="  206.890">  2  5  1 -1</clus>
</clustering>
</event>
<event>
10    4  0.2866397E-005  0.2847651E+03  0.7546771E-02  0.1137358E+00
         21   -1    0    0  501  502  0.00000000000E+00  0.00000000000E+00  0.28611199529E+03  0.28611199529E+03  0.00000000000E+00 0.  1.
          2   -1    0    0  503    0 -0.00000000000E+00 -0.00000000000E+00 -0.13594741727E+04  0.13594741727E+04  0.00000000000E+00 0. -1.
         24    2    1    2    0    0 -0.15810360055E+02  0.50017505908E+02 -0.10941791527E+04  0.10981434818E+04  0.77067308559E+02 0.  0.
         23    2    1    2    0    0  0.94640995443E+02 -0.19196968500E+02 -0.87728443203E+02  0.16486760782E+03  0.10079487458E+03 0.  0.
        -13    1    3    3    0    0 -0.14503844803E+02  0.30011134560E+02 -0.14616834476E+03  0.14992069477E+03  0.00000000000E+00 0.  1.
         14    1    3    3    0    0 -0.13065152519E+01  0.20006371348E+02 -0.94801080791E+03  0.94822278700E+03  0.00000000000E+00 0. -1.
        -11    1    4    4    0    0  0.30111117480E+02 -0.30749560394E+02  0.12757564756E+02  0.44888420766E+02  0.00000000000E+00 0. -1.
         11    1    4    4    0    0  0.64529877962E+02  0.11552591894E+02 -0.10048600796E+03  0.11997918705E+03  0.00000000000E+00 0.  1.
         21    1    1    2  503  502 -0.11353874521E+03 -0.15596329864E+03  0.15203265521E+03  0.24562069423E+03  0.00000000000E+00 0.  1.
          1    1    1    2  501    0  0.34708109819E+02  0.12514276123E+03 -0.43487236701E+02  0.13695438413E+03  0.00000000000E+00 0. -1.
<scales pt_clust_5="13000.00000" pt_clust_6="13000.00000" pt_clust_7="13000.00000" pt_clust_8="13000.00000" pt_clust_9="187.53103" pt_clust_10="13000.00000"></scales>
<clustering>
<clus scale="   77.067">  5  6 -1 -1</clus>
<clus scale="   93.226">  2  5  1 -1</clus>
<clus scale="  100.795">  7  8 -1 -1</clus>
<clus scale="  145.264">  7 10 -1 -1</clus>
<clus scale="  187.531">  1  9  2 -1</clus>
<clus scale="  187.531">  1  5  2 -1</clus>
</clustering>
</event>
<event>
10    4  0.2866397E-005  0.4176349E+03  0.7546771E-02  0.1078870E+00
         21   -1    0    0  501  502  0.00000000000E+00  0.00000000000E+00  0.27227704446E+03  0.27227704446E+03  0.00000000000E+00 0. -1.
          2   -1    0    0  503    0 -0.00000000000E+00 -0.00000000000E+00 -0.34230121842E+03  0.34230121842E+03  0.00000000000E+00 0. -1.
         24    2    1    2    0    0 -0.24502589410E+02 -0.10437011392E+03  0.18713169052E+02  0.13615369314E+03  0.81817772471E+02 0.  0.
         23    2    1    2    0    0 -0.37298235972E+02 -0.26189700644E+02  0.11854067694E+03  0.15811579000E+03  0.94189448096E+02 0.  0.
        -11    1    3    3    0    0 -0.18992814698E+02 -0.11345315387E+03  0.45855323595E+00  0.11503284489E+03  0.00000000000E+00 0.  1.
         12    1    3    3    0    0 -0.55097747117E+01  0.90830399497E+01  0.18254615816E+02  0.21120848247E+02  0.00000000000E+00 0. -1.
        -13    1    4    4    0    0  0.14633464401E+02 -0.46522412294E+02  0.58691026271E+02  0.76309302780E+02  0.00000000000E+00 0.  1.
         13    1    4    4    0    0 -0.51931700373E+02  0.20332711650E+02  0.59849650665E+02  0.81806487221E+02  0.00000000000E+00 0. -1.
         21    1    1    2  503  502  0.22118699351E+02  0.69051011734E+01  0.36999374033E+02  0.43656282045E+02  0.00000000000E+00 0.  1.
          1    1    1    2  501    0  0.39682126030E+02  0.12365471339E+03 -0.24427739398E+03  0.27665249769E+03  0.00000000000E+00 0. -1.
<scales pt_clust_5="13000.00000" pt_clust_6="13000.00000" pt_clust_7="13000.00000" pt_clust_8="13000.00000" pt_clust_9="23.17148" pt_clust_10="13000.00000"></scales>
<clustering>
<clus scale="   23.171">  1  9  2 -1</clus>
<clus scale="   81.818">  5  6 -1 -1</clus>
<clus scale="   94.189">  7  8 -1 -1</clus>
<clus scale="  130.803">  7 10 -1 -1</clus>
<clus scale="  131.926">  2  5  1 -1</clus>
<clus scale="   23.171">  1  5  2 -1</clus>
</clustering>
</event>
<event>
10    4  0.2866397E-005  0.2950025E+03  0.7546771E-02  0.1107619E+00
         21   -1    0    0  503  502  0.00000000000E+00  0.00000000000E+00  0.13280024841E+03  0.13280024841E+03  0.00000000000E+00 0.  1.
          2   -1    0    0  502    0 -0.00000000000E+00 -0.00000000000E+00 -0.63405176551E+03  0.63405176551E+03  0.00000000000E+00 0. -1.
         24    2    1    2    0    0  0.76585448142E+02 -0.15547720575E+03 -0.67740571061E+02  0.20237755961E+03  0.79557521902E+02 0.  0.
         23    2    1    2    0    0  0.34773135807E+02 -0.18964944238E+02 -0.10198537920E+03  0.14216389205E+03  0.90778381495E+02 0.  0.
        -11    1    3    3    0    0  0.72411979594E+02 -0.15253858839E+03 -0.39147104930E+02  0.17333208463E+03  0.00000000000E+00 0.  1.
         12    1    3    3    0    0  0.41734685484E+01 -0.29386173618E+01 -0.28593466131E+02  0.29045474985E+02  0.00000000000E+00 0. -1.
        -11    1    4    4    0    0 -0.82492040102E+01 -0.44360638843E+02 -0.28718310854E+02  0.53485110298E+02  0.00000000000E+00 0.  1.
         11    1    4    4    0    0  0.43022339817E+02  0.25395694605E+02 -0.73267068350E+02  0.88678781748E+02  0.00000000000E+00 0. -1.
         21    1    1    2  503  501  0.23457909189E+02  0.45979104120E+02 -0.12816110683E+02  0.53184623833E+02  0.00000000000E+00 0.  1.
          1    1    1    2  501    0 -0.13481649314E+03  0.12846304587E+03 -0.31870945616E+03  0.36912593843E+03  0.00000000000E+00 0. -1.
<scales pt_clust_5="13000.00000" pt_clust_6="13000.00000" pt_clust_7="13000.00000" pt_clust_8="13000.00000" pt_clust_9="51.61736" pt_clust_10="13000.00000"></scales>
<clustering>
<clus scale="   51.617">  1  9  2 -1</clus>
<clus scale="   79.558">  5  6 -1 -1</clus>
<clus scale="   90.778">  7  8 -1 -1</clus>
<clus scale="  175.844">  2  5  1 -1</clus>
<clus scale="   77.942">  7 10 -1 -1</clus>
<clus scale="   51.617">  1  5  2 -1</clus>
</clustering>
</event>
<event>
10    4  0.2866397E-005  0.2297993E+03  0.7546771E-02  0.1155642E+00
         -3   -1    0    0    0  501 -0.00000000000E+00  0.00000000000E+00  0.23472823346E+03  0.23472823346E+03  0.00000000000E+00 0.  1.
         21   -1    0    0  501  502  0.00000000000E+00 -0.00000000000E+00 -0.16542504490E+03  0.16542504490E+03  0.00000000000E+00 0. -1.
         24    2    1    2    0    0 -0.59721461027E+02 -0.59654453861E+02  0.22393647121E+02  0.11720064716E+03  0.78161432248E+02 0.  0.
         23    2    1    2    0    0 -0.13368361555E+02 -0.40090558312E+02  0.14051347678E+02  0.10087111279E+03  0.90507320523E+02 0.  0.
        -13    1    3    3    0    0 -0.50593344287E+02 -0.83399753683E+01  0.36813432773E+02  0.63122662395E+02  0.00000000000E+00 0.  1.
         14    1    3    3    0    0 -0.91281167398E+01 -0.51314478493E+02 -0.14419785652E+02  0.54077984767E+02  0.00000000000E+00 0. -1.
        -13    1    4    4    0    0  0.73824636942E+01 -0.60003725309E+02 -0.12493300851E+02  0.61733543453E+02  0.00000000000E+00 0.  1.
         13    1    4    4    0    0 -0.20750825249E+02  0.19913166997E+02  0.26544648529E+02  0.39137569341E+02  0.00000000000E+00 0. -1.
         21    1    1    2  503  502  0.17543703089E+02 -0.14276890296E+02 -0.32346314683E+02  0.39470181000E+02  0.00000000000E+00 0. -1.
         -4    1    1    2    0  503  0.55546119493E+02  0.11402190247E+03  0.65204508444E+02  0.14261133740E+03  0.00000000000E+00 0.  1.
<scales pt_clust_5="13000.00000" pt_clust_6="13000.00000" pt_clust_7="13000.00000" pt_clust_8="13000.00000" pt_clust_9="22.61882" pt_clust_10="13000.00000"></scales>
<clustering>
<clus scale="   22.619">  2  9  1 -1</clus>
<clus scale="   78.161">  5  6 -1 -1</clus>
<clus scale="   90.507">  7  8 -1 -1</clus>
<clus scale="  114.715">  1  5  2 -1</clus>
<clus scale="   74.406">  7 10 -1 -1</clus>
<clus scale="   22.619">  2  5  1 -1</clus>
</clustering>
</event>
<event>
10    4  0.2866397E-005  0.9779200E+03  0.7546771E-02  0.9968581E-01
          2   -1    0    0  503    0 -0.00000000000E+00  0.00000000000E+00  0.24263404628E+04  0.24263404628E+04  0.00000000000E+00 0. -1.
         21   -1    0    0  501  502  0.00000000000E+00 -0.00000000000E+00 -0.14875751184E+03  0.14875751184E+03  0.00000000000E+00 0. -1.
         24    2    1    2    0    0 -0.44797839685E+02  0.67596575204E+02  0.33038353233E+03  0.34898697713E+03  0.77861982668E+02 0.  0.
         23    2    1    2    0    0 -0.77041607392E+02  0.33135270407E+03  0.24181884710E+03  0.42748276316E+03  0.92385790149E+02 0.  0.
        -13    1    3    3    0    0 -0.32733573962E+02 -0.54849033353E+01  0.59193860649E+02  0.67863717607E+02  0.00000000000E+00 0.  1.
         14    1    3    3    0    0 -0.12064265723E+02  0.73081478540E+02  0.27118967169E+03  0.28112325952E+03  0.00000000000E+00 0. -1.
        -13    1    4    4    0    0 -0.11770642679E+01  0.10380646186E+03  0.11929724112E+03  0.15814233697E+03  0.00000000000E+00 0.  1.
         13    1    4    4    0    0 -0.75864543124E+02  0.22754624222E+03  0.12252160599E+03  0.26934042620E+03  0.00000000000E+00 0. -1.
         21    1    1    2  503  502 -0.62978778701E+02 -0.24830245075E+02  0.33636608853E+02  0.75592916946E+02  0.00000000000E+00 0. -1.
          1    1    1    2  501    0  0.18481822578E+03 -0.37411903420E+03  0.16717439627E+04  0.17230353175E+04  0.00000000000E+00 0. -1.
<scales pt_clust_5="13000.00000" pt_clust_6="13000.00000" pt_clust_7="13000.00000" pt_clust_8="13000.00000" pt_clust_9="67.69688" pt_clust_10="13000.00000"></scales>
<clustering>
<clus scale="   67.697">  2  9  1 -1</clus>
<clus scale="   77.862">  5  6 -1 -1</clus>
<clus scale="   92.386">  7  8 -1 -1</clus>
<clus scale="  113.267">  1  5  2 -1</clus>
<clus scale="  350.949">  7 10 -1 -1</clus>
<clus scale="   67.697">  2  5  1 -1</clus>
</clustering>
</event>
<event>
10    4  0.2866397E-005  0.1980440E+03  0.7546771E-02  0.1174016E+00
          2   -1    0    0  502    0 -0.00000000000E+00  0.00000000000E+00  0.53715828083E+03  0.53715828083E+03  0.00000000000E+00 0. -1.
         21   -1    0    0  503  502  0.00000000000E+00 -0.00000000000E+00 -0.85633552221E+02  0.85633552221E+02  0.00000000000E+00 0.  1.
         24    2    1    2    0    0  0.52073777057E+01 -0.84517975443E+02  0.26519134094E+03  0.28755051234E+03  0.72030860631E+02 0.  0.
         23    2    1    2    0    0  0.24198771484E+02  0.30532634748E+02  0.10600137580E+03  0.14448691665E+03  0.90124109353E+02 0.  0.
        -11    1    3    3    0    0  0.27979765647E+02 -0.60797756715E+01  0.54126023009E+02  0.61232812484E+02  0.00000000000E+00 0.  1.
         12    1    3    3    0    0 -0.22772387942E+02 -0.78438199772E+02  0.21106531793E+03  0.22631769986E+03  0.00000000000E+00 0. -1.
        -13    1    4    4    0    0  0.49070533021E+02  0.33495606717E+01  0.24296028726E+02  0.54858306385E+02  0.00000000000E+00 0.  1.
         13    1    4    4    0    0 -0.24871761536E+02  0.27183074076E+02  0.81705347074E+02  0.89628610269E+02  0.00000000000E+00 0. -1.
         21    1    1    2  503  501  0.34571506762E+02 -0.43924178800E+02  0.22190030840E+02  0.60140834977E+02  0.00000000000E+00 0.  1.
          1    1    1    2  501    0 -0.63977655952E+02  0.97909519495E+02  0.58141981024E+02  0.13061356907E+03  0.00000000000E+00 0. -1.
<scales pt_clust_5="13000.00000" pt_clust_6="13000.00000" pt_clust_7="13000.00000" pt_clust_8="13000.00000" pt_clust_9="55.89743" pt_clust_10="13000.00000"></scales>
<clustering>
<clus scale="   55.897">  2  9  1 -1</clus>
<clus scale="   72.031">  5  6 -1 -1</clus>
<clus scale="   90.124">  7  8 -1 -1</clus>
<clus scale="   86.732">  7 10 -1 -1</clus>
<clus scale="  117.271">  1  5  2 -1</clus>
<clus scale="   55.897">  2  5  1 -1</clus>
</clustering>
</event>
<event>
10    4  0.2866397E-005  0.2693289E+03  0.7546771E-02  0.1144788E+00
         21   -1    0    0  501  502  0.00000000000E+00  0.00000000000E+00  0.21835098620E+03  0.21835098620E+03  0.00000000000E+00 0.  1.
         -3   -1    0    0    0  501 -0.00000000000E+00 -0.00000000000E+00 -0.31978794895E+03  0.31978794895E+03  0.00000000000E+00 0.  1.
         24    2    1    2    0    0  0.50963021344E+02  0.31876440891E+02  0.86459686433E+02  0.13245486486E+03  0.80347226581E+02 0.  0.
         23    2    1    2    0    0  0.21395899131E+01  0.66044278855E+02 -0.26662603071E+00  0.11233341501E+03  0.90842173158E+02 0.  0.
        -11    1    3    3    0    0  0.65755788296E+02  0.21748380549E+02  0.90614721793E+02  0.11405193359E+03  0.00000000000E+00 0.  1.
         12    1    3    3    0    0 -0.14792766952E+02  0.10128060343E+02 -0.41550353609E+01  0.18402931268E+02  0.00000000000E+00 0. -1.
        -13    1    4    4    0    0 -0.11855728351E+02  0.83556692830E+02 -0.14709644401E+02  0.85665937512E+02  0.00000000000E+00 0.  1.
         13    1    4    4    0    0  0.13995318264E+02 -0.17512413975E+02  0.14443018370E+02  0.26667477499E+02  0.00000000000E+00 0. -1.
         21    1    1    2  503  502 -0.10866022943E+02 -0.34655810602E+02  0.39595874760E+02  0.53730149461E+02  0.00000000000E+00 0. -1.
         -4    1    1    2    0  503 -0.42236588315E+02 -0.63264909145E+02 -0.22722589792E+03  0.23962050581E+03  0.00000000000E+00 0.  1.
<scales pt_clust_5="13000.00000" pt_clust_6="13000.00000" pt_clust_7="13000.00000" pt_clust_8="13000.00000" pt_clust_9="36.31936" pt_clust_10="13000.00000"></scales>
<clustering>
<clus scale="   36.319">  1  9  2 -1</clus>
<clus scale="   80.347">  5  6 -1 -1</clus>
<clus scale="   90.842">  7  8 -1 -1</clus>
<clus scale="   77.327">  7 10 -1 -1</clus>
<clus scale="   92.144">  2  5  1 -1</clus>
<clus scale="   36.319">  1  5  2 -1</clus>
</clustering>
</event>
<event>
10    4  0.2866397E-005  0.2279788E+03  0.7546771E-02  0.1171933E+00
          2   -1    0    0  502    0 -0.00000000000E+00  0.00000000000E+00  0.73028852546E+03  0.73028852546E+03  0.00000000000E+00 0. -1.
         21   -1    0    0  503  502  0.00000000000E+00 -0.00000000000E+00 -0.45498279688E+02  0.45498279688E+02  0.00000000000E+00 0.  1.
         24    2    1    2    0    0  0.21594835350E+02 -0.22218659763E+02  0.10304888601E+03  0.13352559537E+03  0.79056979178E+02 0.  0.
         23    2    1    2    0    0  0.87574791914E+02  0.24721539376E+02  0.19266527930E+03  0.23274916570E+03  0.93657704416E+02 0.  0.
        -11    1    3    3    0    0 -0.17295839284E+02 -0.34254539463E+02  0.25905538430E+02  0.46299205735E+02  0.00000000000E+00 0.  1.
         12    1    3    3    0    0  0.38890674635E+02  0.12035879700E+02  0.77143347577E+02  0.87226389637E+02  0.00000000000E+00 0. -1.
        -11    1    4    4    0    0  0.52043296099E+02 -0.30857252603E+02  0.63471081734E+02  0.87688385340E+02  0.00000000000E+00 0.  1.
         11    1    4    4    0    0  0.35531495815E+02  0.55578791980E+02  0.12919419757E+03  0.14506078036E+03  0.00000000000E+00 0. -1.
         21    1    1    2  503  501 -0.37716476610E+02  0.21388468595E+02  0.76004522326E+02  0.87502494883E+02  0.00000000000E+00 0.  1.
          1    1    1    2  501    0 -0.71453150655E+02 -0.23891348208E+02  0.31307155814E+03  0.32200954919E+03  0.00000000000E+00 0. -1.
<scales pt_clust_5="13000.00000" pt_clust_6="13000.00000" pt_clust_7="13000.00000" pt_clust_8="13000.00000" pt_clust_9="43.35896" pt_clust_10="13000.00000"></scales>
<clustering>
<clus scale="   43.359">  2  9  1 -1</clus>
<clus scale="   79.057">  5  6 -1 -1</clus>
<clus scale="   80.607">  1  5  2 -1</clus>
<clus scale="   93.658">  7  8 -1 -1</clus>
<clus scale="   77.410">  7 10 -1 -1</clus>
<clus scale="   43.359">  2  5  1 -1</clus>
</clustering>
</event>
<event>
10    4  0.2866397E-005  0.2600306E+03  0.7546771E-02  0.1116277E+00
         21   -1    0    0  501  502  0.00000000000E+00  0.00000000000E+00  0.15062258287E+03  0.15062258287E+03  0.00000000000E+00 0. -1.
          2   -1    0    0  503    0 -0.00000000000E+00 -0.00000000000E+00 -0.91320150142E+03  0.91320150142E+03  0.00000000000E+00 0. -1.
         24    2    1    2    0    0 -0.15598182046E+03 -0.98462232709E+02 -0.65263195292E+03  0.68303176331E+03  0.81109704242E+02 0.  0.
         23    2    1    2    0    0  0.13454650802E+03  0.25995010988E+01 -0.11875497091E+03  0.20064596629E+03  0.89702510827E+02 0.  0.
        -11    1    3    3    0    0 -0.64568529547E+02  0.10050608321E+00 -0.26496679801E+03  0.27272056974E+03  0.00000000000E+00 0.  1.
         12    1    3    3    0    0 -0.91413290918E+02 -0.98562738792E+02 -0.38766515491E+03  0.41031119357E+03  0.00000000000E+00 0. -1.
        -13    1    4    4    0    0  0.73293854476E+02 -0.18276662261E+02 -0.12979335082E+02  0.76645212678E+02  0.00000000000E+00 0. -1.
         13    1    4    4    0    0  0.61252653539E+02  0.20876163359E+02 -0.10577563583E+03  0.12400075361E+03  0.00000000000E+00 0.  1.
         21    1    1    2  503  502 -0.35486422967E+02 -0.39237550689E+01  0.47055238284E+02  0.59066720907E+02  0.00000000000E+00 0. -1.
          1    1    1    2  501    0  0.56921735416E+02  0.99786486679E+02 -0.38247233001E+02  0.12107963379E+03  0.00000000000E+00 0. -1.
<scales pt_clust_5="13000.00000" pt_clust_6="13000.00000" pt_clust_7="13000.00000" pt_clust_8="13000.00000" pt_clust_9="35.70269" pt_clust_10="13000.00000"></scales>
<clustering>
<clus scale="   35.703">  1  9  2 -1</clus>
<clus scale="   81.110">  5  6 -1 -1</clus>
<clus scale="   89.703">  7  8 -1 -1</clus>
<clus scale="  106.676">  7 10 -1 -1</clus>
<clus scale="  206.107">  2  5  1 -1</clus>
<clus scale="   35.703">  1  5  2 -1</clus>
</clustering>
</event>
<event>
10    4  0.2866397E-005  0.4528958E+03  0.7546771E-02  0.1057717E+00
          2   -1    0    0  502    0 -0.00000000000E+00  0.00000000000E+00  0.66622320817E+03  0.66622320817E+03  0.00000000000E+00 0. -1.
         21   -1    0    0  503  502  0.00000000000E+00 -0.00000000000E+00 -0.51879779446E+03  0.51879779446E+03  0.00000000000E+00 0. -1.
         24    2    1    2    0    0  0.47909851237E+02  0.16547814333E+03  0.36371759364E+03  0.41030638280E+03  0.79890362841E+02 0.  0.
         23    2    1    2    0    0  0.61931279482E+02  0.88479215507E+02  0.16054333478E+03  0.21498366918E+03  0.93700377346E+02 0.  0.
        -11    1    3    3    0    0  0.40898624910E+02  0.33149531143E+02  0.14859147786E+03  0.15764205095E+03  0.00000000000E+00 0.  1.
         12    1    3    3    0    0  0.70112263273E+01  0.13232861219E+03  0.21512611579E+03  0.25266433185E+03  0.00000000000E+00 0. -1.
        -11    1    4    4    0    0 -0.14122343211E+02  0.17301730349E+02  0.80713825264E+02  0.83746713604E+02  0.00000000000E+00 0.  1.
         11    1    4    4    0    0  0.76053622693E+02  0.71177485158E+02  0.79829509520E+02  0.13123695557E+03  0.00000000000E+00 0. -1.
         21    1    1    2  503  501 -0.62017087772E+02 -0.29053283487E+02 -0.31397962162E+03  0.32136181361E+03  0.00000000000E+00 0. -1.
          1    1    1    2  501    0 -0.47824042947E+02 -0.22490407535E+03 -0.62855893101E+02  0.23836913704E+03  0.00000000000E+00 0. -1.
<scales pt_clust_5="13000.00000" pt_clust_6="13000.00000" pt_clust_7="13000.00000" pt_clust_8="13000.00000" pt_clust_9="68.48513" pt_clust_10="13000.00000"></scales>
<clustering>
<clus scale="   68.485">  2  9  1 -1</clus>
<clus scale="   79.890">  5  6 -1 -1</clus>
<clus scale="   93.700">  7  8 -1 -1</clus>
<clus scale="  185.262">  1  5  2 -1</clus>
<clus scale="  196.963">  7 10 -1 -1</clus>
<clus scale="   68.485">  2  5  1 -1</clus>
</clustering>
</event>
<event>
10    4  0.2866397E-005  0.2874586E+03  0.7546771E-02  0.1125291E+00
         21   -1    0    0  501  502  0.00000000000E+00  0.00000000000E+00  0.12121511195E+04  0.12121511195E+04  0.00000000000E+00 0. -1.
         -1   -1    0    0    0  501 -0.00000000000E+00 -0.00000000000E+00 -0.21167610361E+03  0.21167610361E+03  0.00000000000E+00 0.  1.
         24    2    1    2    0    0 -0.74043492634E+02 -0.55609419906E+02  0.42272960606E+02  0.12893610892E+03  0.79137036854E+02 0.  0.
         23    2    1    2    0    0  0.23150792991E+02 -0.49937994038E+02 -0.23250930269E+02  0.11117986873E+03  0.93758172909E+02 0.  0.
        -11    1    3    3    0    0 -0.81566284219E+02 -0.24306205532E+02  0.45623311118E+02  0.96567783790E+02  0.00000000000E+00 0.  1.
         12    1    3    3    0    0  0.75227915852E+01 -0.31303214374E+02 -0.33503505117E+01  0.32368325134E+02  0.00000000000E+00 0. -1.
        -13    1    4    4    0    0  0.20222132128E+02 -0.73737580251E+02 -0.35447198201E+02  0.84277335206E+02  0.00000000000E+00 0.  1.
         13    1    4    4    0    0  0.29286608624E+01  0.23799586214E+02  0.12196267932E+02  0.26902533521E+02  0.00000000000E+00 0. -1.
         21    1    1    2  503  502 -0.15545014430E+03  0.36983229232E+02  0.95079037899E+03  0.96412387761E+03  0.00000000000E+00 0. -1.
         -2    1    1    2    0  503  0.20634284394E+03  0.68564184712E+02  0.30662606554E+02  0.21958736783E+03  0.00000000000E+00 0.  1.
<scales pt_clust_5="13000.00000" pt_clust_6="13000.00000" pt_clust_7="13000.00000" pt_clust_8="13000.00000" pt_clust_9="162.15641" pt_clust_10="13000.00000"></scales>
<clustering>
<clus scale="   79.137">  5  6 -1 -1</clus>
<clus scale="   93.758">  7  8 -1 -1</clus>
<clus scale="  121.809">  2  5  1 -1</clus>
<clus scale="  162.156">  1  9  2 -1</clus>
<clus scale="   99.829">  7 10 -1 -1</clus>
<clus scale="  162.156">  1  5  2 -1</clus>
</clustering>
</event>
<event>
10    4  0.2866397E-005  0.1801538E+03  0.7546771E-02  0.1174871E+00
          2   -1    0    0  503    0 -0.00000000000E+00  0.00000000000E+00  0.11757635339E+04  0.11757635339E+04  0.00000000000E+00 0. -1.
         21   -1    0    0  501  502  0.00000000000E+00 -0.00000000000E+00 -0.78028960928E+02  0.78028960928E+02  0.00000000000E+00 0.  1.
         24    2    1    2    0    0  0.19460708894E+02  0.11449542819E+03  0.21136667547E+03  0.25432498094E+03  0.80730428954E+02 0.  0.
         23    2    1    2    0    0 -0.23739881053E+02 -0.66360244040E+02  0.56232908751E+03  0.57470330721E+03  0.95407676413E+02 0.  0.
        -11    1    3    3    0    0  0.31289813944E+02  0.11633023383E+03  0.15294412284E+03  0.19468867577E+03  0.00000000000E+00 0.  1.
         12    1    3    3    0    0 -0.11829105050E+02 -0.18348056395E+01  0.58422552632E+02  0.59636305167E+02  0.00000000000E+00 0. -1.
        -13    1    4    4    0    0 -0.59636158450E+02 -0.37582283909E+02  0.28526082975E+03  0.29384118236E+03  0.00000000000E+00 0.  1.
         13    1    4    4    0    0  0.35896277398E+02 -0.28777960131E+02  0.27706825776E+03  0.28086212485E+03  0.00000000000E+00 0. -1.
         21    1    1    2  503  502  0.27811459371E+02  0.13146230179E+02 -0.42460334576E+02  0.52432629656E+02  0.00000000000E+00 0.  1.
          1    1    1    2  501    0 -0.23532287213E+02 -0.61281414333E+02  0.36649914457E+03  0.37233157703E+03  0.00000000000E+00 0. -1.
<scales pt_clust_5="13000.00000" pt_clust_6="13000.00000" pt_clust_7="13000.00000" pt_clust_8="13000.00000" pt_clust_9="30.76200" pt_clust_10="13000.00000"></scales>
<clustering>
<clus scale="   30.762">  2  9  1 -1</clus>
<clus scale="   80.730">  5  6 -1 -1</clus>
<clus scale="   95.408">  7  8 -1 -1</clus>
<clus scale="   63.556">  7 10 -1 -1</clus>
<clus scale="  152.796">  1  5  2 -1</clus>
<clus scale="   30.762">  2  5  1 -1</clus>
</clustering>
</event>
<event>
10    4  0.2866397E-005  0.1321993E+03  0.7546771E-02  0.1245096E+00
         21   -1    0    0  503  502  0.00000000000E+00  0.00000000000E+00  0.88526313783E+02  0.88526313783E+02  0.00000000000E+00 0. -1.
         -1   -1    0    0    0  501 -0.00000000000E+00 -0.00000000000E+00 -0.46508757309E+03  0.46508757309E+03  0.00000000000E+00 0.  1.
         24    2    1    2    0    0 -0.26904562092E+02 -0.99202049257E+01 -0.37564757372E+03  0.38528760941E+03  0.80704252653E+02 0.  0.
         23    2    1    2    0    0  0.38454951952E+02 -0.10696407816E+02 -0.89507472276E+00  0.10024889984E+03  0.91955664814E+02 0.  0.
        -13    1    3    3    0    0 -0.36136508093E+02 -0.40161755601E+02 -0.23818195492E+03  0.24423238418E+03  0.00000000000E+00 0.  1.
         14    1    3    3    0    0  0.92319460009E+01  0.30241550675E+02 -0.13746561879E+03  0.14105522523E+03  0.00000000000E+00 0. -1.
        -11    1    4    4    0    0  0.15353135956E+02  0.18054654993E+02  0.39176526310E+02  0.45787438936E+02  0.00000000000E+00 0. -1.
         11    1    4    4    0    0  0.23101815995E+02 -0.28751062809E+02 -0.40071601032E+02  0.54461460908E+02  0.00000000000E+00 0.  1.
         21    1    1    2  503  501 -0.18198264257E+02 -0.14306194338E+02  0.16944945973E+02  0.28687544553E+02  0.00000000000E+00 0. -1.
         -2    1    1    2    0  502  0.66478743979E+01  0.34922807080E+02 -0.16963556838E+02  0.39389833066E+02  0.00000000000E+00 0.  1.
<scales pt_clust_5="13000.00000" pt_clust_6="13000.00000" pt_clust_7="13000.00000" pt_clust_8="13000.00000" pt_clust_9="23.14830" pt_clust_10="13000.00000"></scales>
<clustering>
<clus scale="   23.148">  1  9  2 -1</clus>
<clus scale="   80.704">  5  6 -1 -1</clus>
<clus scale="   86.203">  2  5  1 -1</clus>
<clus scale="   91.956">  7  8 -1 -1</clus>
<clus scale="   29.507">  7 10 -1 -1</clus>
<clus scale="   23.148">  1  5  2 -1</clus>
</clustering>
</event>
<event>
10    4  0.2866397E-005  0.1380000E+03  0.7546771E-02  0.1240278E+00
         21   -1    0    0  501  502  0.00000000000E+00  0.00000000000E+00  0.23076514619E+02  0.23076514619E+02  0.00000000000E+00 0. -1.
          4   -1    0    0  503    0 -0.00000000000E+00 -0.00000000000E+00 -0.65714178329E+03  0.65714178329E+03  0.00000000000E+00 0. -1.
         24    2    1    2    0    0 -0.18444087486E+02 -0.29950753198E+01 -0.21201808639E+03  0.22795323422E+03  0.81620176397E+02 0.  0.
         23    2    1    2    0    0 -0.20201285655E+02 -0.95328563090E+01 -0.20356275477E+03  0.22384847378E+03  0.90395668016E+02 0.  0.
        -13    1    3    3    0    0  0.22377423384E+02 -0.21602825438E+02 -0.13748983157E+03  0.14096412639E+03  0.00000000000E+00 0.  1.
         14    1    3    3    0    0 -0.40821510870E+02  0.18607750118E+02 -0.74528254826E+02  0.86989107833E+02  0.00000000000E+00 0. -1.
        -13    1    4    4    0    0 -0.16017160739E+02  0.40034409452E+02 -0.10276019014E+03  0.11144038790E+03  0.00000000000E+00 0.  1.
         13    1    4    4    0    0 -0.41841249157E+01 -0.49567265761E+02 -0.10080256463E+03  0.11240808588E+03  0.00000000000E+00 0. -1.
         21    1    1    2  503  502  0.33526613171E+01  0.19718397583E+02 -0.27152683405E+02  0.33724231010E+02  0.00000000000E+00 0. -1.
          3    1    1    2  501    0  0.35292711823E+02 -0.71904659538E+01 -0.19133174411E+03  0.19469235889E+03  0.00000000000E+00 0. -1.
<scales pt_clust_5="13000.00000" pt_clust_6="13000.00000" pt_clust_7="13000.00000" pt_clust_8="13000.00000" pt_clust_9="20.00139" pt_clust_10="13000.00000"></scales>
<clustering>
<clus scale="   20.001">  1  9  2 -1</clus>
<clus scale="   81.620">  5  6 -1 -1</clus>
<clus scale="   83.537">  2  5  1 -1</clus>
<clus scale="   90.396">  7  8 -1 -1</clus>
<clus scale="   27.910">  7 10 -1 -1</clus>
<clus scale="   20.001">  1  5  2 -1</clus>
</clustering>
</event>
<event>
10    4  0.2866397E-005  0.8204061E+03  0.7546771E-02  0.1018787E+00
         21   -1    0    0  503  502  0.00000000000E+00  0.00000000000E+00  0.65358050059E+03  0.65358050059E+03  0.00000000000E+00 0.  1.
          2   -1    0    0  502    0 -0.00000000000E+00 -0.00000000000E+00 -0.38958159717E+03  0.38958159717E+03  0.00000000000E+00 0. -1.
         24    2    1    2    0    0 -0.38067537035E+02 -0.41298828108E+02 -0.17338993551E+02  0.99707245135E+02  0.80536721165E+02 0.  0.
         23    2    1    2    0    0 -0.37264189692E+03  0.86358767531E+02  0.19697682525E+03  0.44011823948E+03  0.92651902104E+02 0.  0.
        -13    1    3    3    0    0 -0.15958210429E+02  0.17075271159E+02  0.16590155169E+02  0.28661169093E+02  0.00000000000E+00 0.  1.
         14    1    3    3    0    0 -0.22109326607E+02 -0.58374099266E+02 -0.33929148720E+02  0.71046076043E+02  0.00000000000E+00 0. -1.
        -13    1    4    4    0    0 -0.18905614524E+02 -0.16596855946E+02  0.13243893287E+02  0.28430240893E+02  0.00000000000E+00 0. -1.
         13    1    4    4    0    0 -0.35373628240E+03  0.10295562348E+03  0.18373293196E+03  0.41168799859E+03  0.00000000000E+00 0.  1.
         21    1    1    2  503  501  0.17455664405E+02  0.17057778398E+02  0.10193824342E+03  0.10481924201E+03  0.00000000000E+00 0.  1.
          1    1    1    2  501    0  0.39325376956E+03 -0.62117717822E+02 -0.17577171694E+02  0.39851737114E+03  0.00000000000E+00 0. -1.
<scales pt_clust_5="13000.00000" pt_clust_6="13000.00000" pt_clust_7="13000.00000" pt_clust_8="13000.00000" pt_clust_9="24.40631" pt_clust_10="13000.00000"></scales>
<clustering>
<clus scale="   24.406">  1  9  2 -1</clus>
<clus scale="   80.537">  5  6 -1 -1</clus>
<clus scale="   92.652">  7  8 -1 -1</clus>
<clus scale="   97.156">  2  5  1 -1</clus>
<clus scale="  384.462">  7 10 -1 -1</clus>
<clus scale="   24.406">  1  5  2 -1</clus>
</clustering>
</event>
<event>
10    4  0.2866397E-005  0.2361219E+03  0.7546771E-02  0.1152432E+00
         21   -1    0    0  503  502  0.00000000000E+00  0.00000000000E+00  0.11008273976E+03  0.11008273976E+03  0.00000000000E+00 0.  1.
          2   -1    0    0  502    0 -0.00000000000E+00 -0.00000000000E+00 -0.58803454052E+03  0.58803454052E+03  0.00000000000E+00 0. -1.
         24    2    1    2    0    0  0.87761776792E+02 -0.24986586707E+02 -0.14967142767E+03  0.19297623440E+03  0.80695921831E+02 0.  0.
         23    2    1    2    0    0  0.19712019065E+02 -0.69323583242E+02 -0.15886714559E+03  0.19637021793E+03  0.90156362247E+02 0.  0.
        -13    1    3    3    0    0  0.92283333986E+02 -0.41629698847E+02 -0.14124941158E+03  0.17378331862E+03  0.00000000000E+00 0.  1.
         14    1    3    3    0    0 -0.45215571940E+01  0.16643112140E+02 -0.84220160923E+01  0.19192915782E+02  0.00000000000E+00 0. -1.
        -11    1    4    4    0    0  0.39133170498E+02 -0.17191650086E+02 -0.12290860868E+03  0.13012872071E+03  0.00000000000E+00 0. -1.
         11    1    4    4    0    0 -0.19421151433E+02 -0.52131933156E+02 -0.35958536909E+02  0.66241497222E+02  0.00000000000E+00 0.  1.
         21    1    1    2  503  501 -0.22669863640E+02  0.19028733376E+02  0.52099479376E+02  0.59919705962E+02  0.00000000000E+00 0.  1.
          1    1    1    2  501    0 -0.84803932217E+02  0.75281436574E+02 -0.22151270687E+03  0.24885112199E+03  0.00000000000E+00 0. -1.
<scales pt_clust_5="13000.00000" pt_clust_6="13000.00000" pt_clust_7="13000.00000" pt_clust_8="13000.00000" pt_clust_9="29.59756" pt_clust_10="13000.00000"></scales>
<clustering>
<clus scale="   29.598">  1  9  2 -1</clus>
<clus scale="   80.696">  5  6 -1 -1</clus>
<clus scale="   90.156">  7  8 -1 -1</clus>
<clus scale="  114.038">  2  5  1 -1</clus>
<clus scale="   81.058">  7 10 -1 -1</clus>
<clus scale="   29.598">  1  5  2 -1</clus>
</clustering>
</event>
<event>
10    4  0.2866397E-005  0.6978575E+03  0.7546771E-02  0.1033761E+00
         21   -1    0    0  503  502  0.00000000000E+00  0.00000000000E+00  0.11084113697E+04  0.11084113697E+04  0.00000000000E+00 0.  1.
         -1   -1    0    0    0  501 -0.00000000000E+00 -0.00000000000E+00 -0.15354999956E+03  0.15354999956E+03  0.00000000000E+00 0.  1.
         24    2    1    2    0    0 -0.42986909712E+02  0.42841304798E+02  0.84603242869E+02  0.13141648972E+03  0.80183123302E+02 0.  0.
         23    2    1    2    0    0 -0.21205563309E+03  0.17952089173E+03  0.17188499618E+03  0.33952245453E+03  0.92388869062E+02 0.  0.
        -11    1    3    3    0    0 -0.34842726423E+02  0.51226092957E+02  0.96540570112E+02  0.11470924052E+03  0.00000000000E+00 0.  1.
         12    1    3    3    0    0 -0.81441832892E+01 -0.83847881585E+01 -0.11937327243E+02  0.16707249193E+02  0.00000000000E+00 0. -1.
        -13    1    4    4    0    0 -0.21188430668E+03  0.14589766397E+03  0.16367558273E+03  0.30491110860E+03  0.00000000000E+00 0.  1.
         13    1    4    4    0    0 -0.17132640997E+00  0.33623227758E+02  0.82094134545E+01  0.34611345927E+02  0.00000000000E+00 0. -1.
         21    1    1    2  503  501 -0.19268086693E+02 -0.12254100925E+02  0.23103069234E+02  0.32483441356E+02  0.00000000000E+00 0.  1.
         -2    1    1    2    0  502  0.27431062950E+03 -0.21010809560E+03  0.67527006184E+03  0.75853898364E+03  0.00000000000E+00 0.  1.
<scales pt_clust_5="13000.00000" pt_clust_6="13000.00000" pt_clust_7="13000.00000" pt_clust_8="13000.00000" pt_clust_9="22.83468" pt_clust_10="13000.00000"></scales>
<clustering>
<clus scale="   22.835">  1  9  2 -1</clus>
<clus scale="   80.183">  5  6 -1 -1</clus>
<clus scale="   92.389">  7  8 -1 -1</clus>
<clus scale="  100.888">  2  5  1 -1</clus>
<clus scale="  320.175">  7 10 -1 -1</clus>
<clus scale="   22.835">  1  5  2 -1</clus>
</clustering>
</event>
<event>
10    4  0.2866397E-005  0.2792755E+03  0.7546771E-02  0.1139076E+00
         21   -1    0    0  503  502  0.00000000000E+00  0.00000000000E+00  0.91913885335E+02  0.91913885335E+02  0.00000000000E+00 0. -1.
          2   -1    0    0  502    0 -0.00000000000E+00 -0.00000000000E+00 -0.50747465063E+03  0.50747465063E+03  0.00000000000E+00 0. -1.
         24    2    1    2    0    0 -0.46326284710E+02 -0.50272346927E+01 -0.75314515904E+02  0.12020721528E+03  0.81277921704E+02 0.  0.
         23    2    1    2    0    0 -0.75624803557E+02  0.10217115678E+03 -0.17698045990E+03  0.23802409539E+03  0.95787946037E+02 0.  0.
        -11    1    3    3    0    0 -0.50423505004E+01 -0.28797219741E+02  0.20988079619E+01  0.29310580994E+02  0.00000000000E+00 0.  1.
         12    1    3    3    0    0 -0.41283934210E+02  0.23769985048E+02 -0.77413323866E+02  0.90896634289E+02  0.00000000000E+00 0. -1.
        -13    1    4    4    0    0 -0.30370936405E+02 -0.11685797817E+02 -0.61899058524E+02  0.69931717374E+02  0.00000000000E+00 0. -1.
         13    1    4    4    0    0 -0.45253867152E+02  0.11385695460E+03 -0.11508140138E+03  0.16809237801E+03  0.00000000000E+00 0.  1.
         21    1    1    2  503  501  0.61451598670E+01 -0.53136350237E+02 -0.53157376423E+02  0.75411811903E+02  0.00000000000E+00 0.  1.
          1    1    1    2  501    0  0.11580592840E+03 -0.44007571852E+02 -0.11010841306E+03  0.16574541339E+03  0.00000000000E+00 0. -1.
<scales pt_clust_5="13000.00000" pt_clust_6="13000.00000" pt_clust_7="13000.00000" pt_clust_8="13000.00000" pt_clust_9="53.49054" pt_clust_10="13000.00000"></scales>
<clustering>
<clus scale="   53.491">  1  9  2 -1</clus>
<clus scale="   81.278">  5  6 -1 -1</clus>
<clus scale="   94.808">  2  5  1 -1</clus>
<clus scale="   95.788">  7  8 -1 -1</clus>
<clus scale="  120.546">  7 10 -1 -1</clus>
<clus scale="   53.491">  1  5  2 -1</clus>
</clustering>
</event>
<event>
10    4  0.3285326E-005  0.2040042E+03  0.7546771E-02  0.1180122E+00
          4   -1    0    0  503    0 -0.00000000000E+00  0.00000000000E+00  0.65248769468E+03  0.65248769468E+03  0.00000000000E+00 0. -1.
         21   -1    0    0  501  502  0.00000000000E+00 -0.00000000000E+00 -0.47984799519E+03  0.47984799519E+03  0.00000000000E+00 0. -1.
         24    2    1    2    0    0 -0.50268013749E+02 -0.22634491929E+02  0.14735521312E+03  0.17687116526E+03  0.80812479461E+02 0.  0.
         23    2    1    2    0    0 -0.75770816833E+02  0.12617883525E+02  0.26888646255E+03  0.29369810849E+03  0.89767597277E+02 0.  0.
        -11    1    3    3    0    0  0.12238292469E+02 -0.16159948081E+02  0.44419669845E+01  0.20752127487E+02  0.00000000000E+00 0.  1.
         12    1    3    3    0    0 -0.62506306218E+02 -0.64745438480E+01  0.14291324613E+03  0.15611903777E+03  0.00000000000E+00 0. -1.
        -11    1    4    4    0    0 -0.41118186104E+01 -0.32960395223E+02  0.74382824174E+02  0.81462256522E+02  0.00000000000E+00 0.  1.
         11    1    4    4    0    0 -0.71658998223E+02  0.45578278748E+02  0.19450363837E+03  0.21223585197E+03  0.00000000000E+00 0. -1.
         21    1    1    2  503  502  0.49112758879E+02 -0.32504895569E+02 -0.44140345293E+03  0.44531521373E+03  0.00000000000E+00 0. -1.
          3    1    1    2  501    0  0.76926071704E+02  0.42521503973E+02  0.19780147676E+03  0.21645120239E+03  0.00000000000E+00 0. -1.
<scales pt_clust_5="13000.00000" pt_clust_6="13000.00000" pt_clust_7="13000.00000" pt_clust_8="13000.00000" pt_clust_9="58.89509" pt_clust_10="13000.00000"></scales>
<clustering>
<clus scale="   58.895">  2  9  1 -1</clus>
<clus scale="   80.812">  5  6 -1 -1</clus>
<clus scale="   89.768">  7  8 -1 -1</clus>
<clus scale="   93.463">  1  5  2 -1</clus>
<clus scale="   75.781">  7 10 -1 -1</clus>
<clus scale="   58.895">  2  5  1 -1</clus>
</clustering>
</event>
<event>
10    4  0.2866397E-005  0.4839085E+03  0.7546771E-02  0.1046964E+00
          2   -1    0    0  503    0 -0.00000000000E+00  0.00000000000E+00  0.13640514273E+04  0.13640514273E+04  0.00000000000E+00 0. -1.
         21   -1    0    0  501  502  0.00000000000E+00 -0.00000000000E+00 -0.11089779061E+03  0.11089779061E+03  0.00000000000E+00 0.  1.
         24    2    1    2    0    0 -0.51863982799E+02  0.18842196567E+03  0.24601739833E+03  0.32469465387E+03  0.81910610500E+02 0.  0.
         23    2    1    2    0    0 -0.10154531101E+03  0.83591317437E+02  0.49551361085E+03  0.52088321036E+03  0.92122862323E+02 0.  0.
        -11    1    3    3    0    0 -0.47988151029E+02  0.15427936805E+03  0.24073643566E+03  0.28992933191E+03  0.00000000000E+00 0.  1.
         12    1    3    3    0    0 -0.38758317701E+01  0.34142597623E+02  0.52809626620E+01  0.34765321960E+02  0.00000000000E+00 0. -1.
        -11    1    4    4    0    0 -0.30981775737E+02 -0.12982573067E+02  0.55236259667E+02  0.64648758792E+02  0.00000000000E+00 0. -1.
         11    1    4    4    0    0 -0.70563535276E+02  0.96573890503E+02  0.44027735118E+03  0.45623445157E+03  0.00000000000E+00 0.  1.
         21    1    1    2  503  502 -0.20192240782E+02 -0.21784858639E+02 -0.45500112418E+01  0.30050112413E+02  0.00000000000E+00 0. -1.
          1    1    1    2  501    0  0.17360153459E+03 -0.25022842447E+03  0.51617263873E+03  0.59932124123E+03  0.00000000000E+00 0. -1.
<scales pt_clust_5="13000.00000" pt_clust_6="13000.00000" pt_clust_7="13000.00000" pt_clust_8="13000.00000" pt_clust_9="29.70365" pt_clust_10="13000.00000"></scales>
<clustering>
<clus scale="   29.704">  2  9  1 -1</clus>
<clus scale="   81.911">  5  6 -1 -1</clus>
<clus scale="   92.123">  7  8 -1 -1</clus>
<clus scale="  206.126">  1  5  2 -1</clus>
<clus scale="  212.176">  7 10 -1 -1</clus>
<clus scale="   29.704">  2  5  1 -1</clus>
</clustering>
</event>
<event>
10    4  0.2866397E-005  0.1152092E+04  0.7546771E-02  0.9913059E-01
         21   -1    0    0  501  502  0.00000000000E+00  0.00000000000E+00  0.76049628466E+03  0.76049628466E+03  0.00000000000E+00 0. -1.
          2   -1    0    0  503    0 -0.00000000000E+00 -0.00000000000E+00 -0.12977536727E+04  0.12977536727E+04  0.00000000000E+00 0. -1.
         24    2    1    2    0    0 -0.31837365963E+02  0.22557741969E+02 -0.67274480148E+02  0.10766895168E+03  0.74459907889E+02 0.  0.
         23    2    1    2    0    0  0.12538315642E+03  0.24500367054E+03 -0.10753106789E+04  0.11136427637E+04  0.90329477608E+02 0.  0.
        -13    1    3    3    0    0  0.14166583326E+02 -0.17693529920E+02 -0.22135416032E+02  0.31681693880E+02  0.00000000000E+00 0.  1.
         14    1    3    3    0    0 -0.46003949289E+02  0.40251271890E+02 -0.45139064116E+02  0.75987257802E+02  0.00000000000E+00 0. -1.
        -11    1    4    4    0    0  0.64748567207E+02  0.19791726964E+03 -0.68913456797E+03  0.71990976890E+03  0.00000000000E+00 0. -1.
         11    1    4    4    0    0  0.60634589210E+02  0.47086400904E+02 -0.38617611088E+03  0.39373299477E+03  0.00000000000E+00 0.  1.
         21    1    1    2  503  502  0.77687616883E+02  0.25346142690E+02  0.46107193382E+03  0.46825753696E+03  0.00000000000E+00 0. -1.
          1    1    1    2  501    0 -0.17123340734E+03 -0.29290755520E+03  0.14425583718E+03  0.36868070500E+03  0.00000000000E+00 0. -1.
<scales pt_clust_5="13000.00000" pt_clust_6="13000.00000" pt_clust_7="13000.00000" pt_clust_8="13000.00000" pt_clust_9="81.71776" pt_clust_10="13000.00000"></scales>
<clustering>
<clus scale="   74.460">  5  6 -1 -1</clus>
<clus scale="   81.718">  1  9  2 -1</clus>
<clus scale="   82.694">  2  5  1 -1</clus>
<clus scale="   90.329">  7  8 -1 -1</clus>
<clus scale="  289.199">  7 10 -1 -1</clus>
<clus scale="   81.718">  1  5  2 -1</clus>
</clustering>
</event>
<event>
10    4  0.2866397E-005  0.3012508E+03  0.7546771E-02  0.1135916E+00
         -3   -1    0    0    0  501 -0.00000000000E+00  0.00000000000E+00  0.20202103410E+03  0.20202103410E+03  0.00000000000E+00 0.  1.
         21   -1    0    0  503  502  0.00000000000E+00 -0.00000000000E+00 -0.25386071977E+03  0.25386071977E+03  0.00000000000E+00 0. -1.
         24    2    1    2    0    0 -0.11236913458E+02 -0.20520874479E+02 -0.34906130506E+02  0.90425963382E+02  0.80068985214E+02 0.  0.
         23    2    1    2    0    0  0.10116530595E+03 -0.99036134732E+02  0.42391451651E+02  0.17402761446E+03  0.91902123538E+02 0.  0.
        -11    1    3    3    0    0  0.34237774396E+02 -0.71969358253E+01 -0.21944884740E+02  0.41298898861E+02  0.00000000000E+00 0.  1.
         12    1    3    3    0    0 -0.45474687854E+02 -0.13323938653E+02 -0.12961245765E+02  0.49127064521E+02  0.00000000000E+00 0. -1.
        -11    1    4    4    0    0  0.82032359031E+02 -0.19697655735E+02  0.57300321188E+01  0.84558493587E+02  0.00000000000E+00 0. -1.
         11    1    4    4    0    0  0.19132946916E+02 -0.79338478997E+02  0.36661419532E+02  0.89469120870E+02  0.00000000000E+00 0.  1.
         21    1    1    2  503  501  0.21846757018E+01  0.28704958188E+02 -0.54880734522E+02  0.61972917102E+02  0.00000000000E+00 0. -1.
         -4    1    1    2    0  502 -0.92113068190E+02  0.90852051022E+02 -0.44442722960E+01  0.12945525892E+03  0.00000000000E+00 0.  1.
<scales pt_clust_5="13000.00000" pt_clust_6="13000.00000" pt_clust_7="13000.00000" pt_clust_8="13000.00000" pt_clust_9="28.78797" pt_clust_10="13000.00000"></scales>
<clustering>
<clus scale="   28.788">  2  9  1 -1</clus>
<clus scale="   80.069">  5  6 -1 -1</clus>
<clus scale="   81.548">  1  5  2 -1</clus>
<clus scale="   91.902">  7  8 -1 -1</clus>
<clus scale="  135.577">  7 10 -1 -1</clus>
<clus scale="   28.788">  2  5  1 -1</clus>
</clustering>
</event>
<event>
10    4  0.2866397E-005  0.2214476E+03  0.7546771E-02  0.1175978E+00
         -1   -1    0    0    0  501 -0.00000000000E+00  0.00000000000E+00  0.64925175522E+03  0.64925175522E+03  0.00000000000E+00 0.  1.
         21   -1    0    0  503  502  0.00000000000E+00 -0.00000000000E+00 -0.66994637678E+02  0.66994637678E+02  0.00000000000E+00 0. -1.
         24    2    1    2    0    0  0.13765045990E+02  0.45793986703E+01  0.93322986083E+02  0.12306931365E+03  0.78907723631E+02 0.  0.
         23    2    1    2    0    0  0.49827357756E+02  0.30633171141E+01  0.14084850460E+03  0.17556706713E+03  0.92159342019E+02 0.  0.
        -11    1    3    3    0    0 -0.19626749384E+02 -0.18921409652E+02  0.78918464423E+01  0.28381512907E+02  0.00000000000E+00 0.  1.
         12    1    3    3    0    0  0.33391795374E+02  0.23500808323E+02  0.85431139640E+02  0.94687800747E+02  0.00000000000E+00 0. -1.
        -11    1    4    4    0    0  0.67263670077E+02  0.18628914715E+02  0.62099668248E+02  0.93422730490E+02  0.00000000000E+00 0. -1.
         11    1    4    4    0    0 -0.17436312321E+02 -0.15565597601E+02  0.78748836350E+02  0.82144336643E+02  0.00000000000E+00 0.  1.
         21    1    1    2  503  501 -0.18783012546E+02  0.90754724614E+02  0.61290473708E+02  0.11111140251E+03  0.00000000000E+00 0. -1.
         -2    1    1    2    0  502 -0.44809391200E+02 -0.98397440398E+02  0.28679515315E+03  0.30649860960E+03  0.00000000000E+00 0.  1.
<scales pt_clust_5="13000.00000" pt_clust_6="13000.00000" pt_clust_7="13000.00000" pt_clust_8="13000.00000" pt_clust_9="92.97638" pt_clust_10="13000.00000"></scales>
<clustering>
<clus scale="   78.908">  5  6 -1 -1</clus>
<clus scale="   80.230">  1  5  2 -1</clus>
<clus scale="   92.159">  7  8 -1 -1</clus>
<clus scale="   92.976">  2  9  1 -1</clus>
<clus scale="   74.479">  7 10 -1 -1</clus>
<clus scale="   92.976">  2  5  1 -1</clus>
</clustering>
</event>
<event>
10    4  0.2866397E-005  0.5529490E+03  0.7546771E-02  0.1036635E+00
         21   -1    0    0  503  502  0.00000000000E+00  0.00000000000E+00  0.22250975435E+03  0.22250975435E+03  0.00000000000E+00 0. -1.
          2   -1    0    0  502    0 -0.00000000000E+00 -0.00000000000E+00 -0.79314288244E+03  0.79314288244E+03  0.00000000000E+00 0. -1.
         24    2    1    2    0    0  0.14250905492E+03 -0.75248311198E+02 -0.42961808754E+01  0.17960777197E+03  0.79179261881E+02 0.  0.
         23    2    1    2    0    0 -0.15058872485E+03  0.25819299058E+03 -0.49677399436E+03  0.58243927566E+03  0.55772071102E+02 0.  0.
        -13    1    3    3    0    0  0.10611310661E+03 -0.45340852525E+02 -0.38217425201E+02  0.12155803508E+03  0.00000000000E+00 0.  1.
         14    1    3    3    0    0  0.36395948303E+02 -0.29907458673E+02  0.33921244326E+02  0.58049736897E+02  0.00000000000E+00 0. -1.
        -13    1    4    4    0    0 -0.29022108868E+02  0.82124349504E+02 -0.10871075215E+03  0.13930082275E+03  0.00000000000E+00 0.  1.
         13    1    4    4    0    0 -0.12156661599E+03  0.17606864108E+03 -0.38806324221E+03  0.44313845291E+03  0.00000000000E+00 0. -1.
         21    1    1    2  503  501  0.28442011569E+02  0.19372233599E+02  0.90768066500E+01  0.35589603477E+02  0.00000000000E+00 0. -1.
          1    1    1    2  501    0 -0.20362341629E+02 -0.20231691299E+03 -0.78639759505E+02  0.21801598568E+03  0.00000000000E+00 0. -1.
<scales pt_clust_5="13000.00000" pt_clust_6="13000.00000" pt_clust_7="13000.00000" pt_clust_8="13000.00000" pt_clust_9="34.41266" pt_clust_10="13000.00000"></scales>
<clustering>
<clus scale="   34.413">  1  9  2 -1</clus>
<clus scale="   55.772">  7  8 -1 -1</clus>
<clus scale="   79.179">  5  6 -1 -1</clus>
<clus scale="  186.389">  2  5  1 -1</clus>
<clus scale="  210.666">  7 10 -1 -1</clus>
<clus scale="   34.413">  1  5  2 -1</clus>
</clustering>
</event>
<event>
10    4  0.5125279E-005  0.4089569E+03  0.7546771E-02  0.1092188E+00
          2   -1    0    0  503    0 -0.00000000000E+00  0.00000000000E+00  0.53265742506E+03  0.53265742506E+03  0.00000000000E+00 0. -1.
         21   -1    0    0  501  502  0.00000000000E+00 -0.00000000000E+00 -0.37349622987E+03  0.37349622987E+03  0.00000000000E+00 0.  1.
         24    2    1    2    0    0  0.53420365159E+02  0.41060119135E+02 -0.59187033265E+02  0.12352711534E+03  0.84948069546E+02 0.  0.
         23    2    1    2    0    0 -0.86454361238E+02 -0.80102491098E+02  0.46295187392E+03  0.48596273702E+03  0.89132365351E+02 0.  0.
        -13    1    3    3    0    0 -0.37009663361E+01  0.50319377348E+02 -0.30246637080E+02  0.58826830131E+02  0.00000000000E+00 0.  1.
         14    1    3    3    0    0  0.57121331495E+02 -0.92592582133E+01 -0.28940396184E+02  0.64700285206E+02  0.00000000000E+00 0. -1.
        -11    1    4    4    0    0  0.17016478449E+02 -0.11141737887E+02  0.36878861618E+02  0.42115903127E+02  0.00000000000E+00 0.  1.
         11    1    4    4    0    0 -0.10347083969E+03 -0.68960753211E+02  0.42607301230E+03  0.44384683390E+03  0.00000000000E+00 0. -1.
         21    1    1    2  503  502 -0.26993645467E+02 -0.19696559530E+02 -0.19762854427E+03  0.20043366200E+03  0.00000000000E+00 0.  1.
          1    1    1    2  501    0  0.60027641546E+02  0.58738931494E+02 -0.46975101193E+02  0.96230140573E+02  0.00000000000E+00 0. -1.
<scales pt_clust_5="13000.00000" pt_clust_6="13000.00000" pt_clust_7="13000.00000" pt_clust_8="13000.00000" pt_clust_9="33.41574" pt_clust_10="13000.00000"></scales>
<clustering>
<clus scale="   33.416">  2  9  1 -1</clus>
<clus scale="   84.948">  5  6 -1 -1</clus>
<clus scale="   89.132">  7  8 -1 -1</clus>
<clus scale="   70.441">  7 10 -1 -1</clus>
<clus scale="   98.513">  1  5  2 -1</clus>
<clus scale="   33.416">  2  5  1 -1</clus>
</clustering>
</event>
<event>
10    4  0.2866397E-005  0.3556528E+03  0.7546771E-02  0.1091151E+00
         21   -1    0    0  501  502  0.00000000000E+00  0.00000000000E+00  0.93443856058E+03  0.93443856058E+03  0.00000000000E+00 0.  1.
          2   -1    0    0  503    0 -0.00000000000E+00 -0.00000000000E+00 -0.81608806374E+02  0.81608806374E+02  0.00000000000E+00 0. -1.
         24    2    1    2    0    0  0.11667521971E+03  0.53801364766E+02  0.22980352379E+03  0.27474427203E+03  0.78530641921E+02 0.  0.
         23    2    1    2    0    0 -0.20750838078E+03 -0.21236931477E+02  0.20361066021E+03  0.30603346602E+03  0.93211834099E+02 0.  0.
        -13    1    3    3    0    0  0.94906386014E+02  0.65612127767E+02  0.21938660273E+03  0.24787628946E+03  0.00000000000E+00 0.  1.
         14    1    3    3    0    0  0.21768833698E+02 -0.11810763001E+02  0.10416921061E+02  0.26867982575E+02  0.00000000000E+00 0. -1.
        -11    1    4    4    0    0 -0.10980674627E+03 -0.29920538122E+02  0.51220727328E+02  0.12480514026E+03  0.00000000000E+00 0. -1.
         11    1    4    4    0    0 -0.97701634510E+02  0.86836066454E+01  0.15238993289E+03  0.18122832575E+03  0.00000000000E+00 0.  1.
         21    1    1    2  503  502  0.26640385522E+02 -0.30256375365E+02  0.77346281684E+02  0.87221589537E+02  0.00000000000E+00 0.  1.
          1    1    1    2  501    0  0.64192775546E+02 -0.23080579245E+01  0.34206928851E+03  0.34804803937E+03  0.00000000000E+00 0. -1.
<scales pt_clust_5="13000.00000" pt_clust_6="13000.00000" pt_clust_7="13000.00000" pt_clust_8="13000.00000" pt_clust_9="40.31325" pt_clust_10="13000.00000"></scales>
<clustering>
<clus scale="   40.313">  1  9  2 -1</clus>
<clus scale="   78.531">  5  6 -1 -1</clus>
<clus scale="   93.212">  7  8 -1 -1</clus>
<clus scale="   76.381">  7 10 -1 -1</clus>
<clus scale="  153.928">  2  5  1 -1</clus>
<clus scale="   40.313">  1  5  2 -1</clus>
</clustering>
</event>
<event>
10    4  0.2866397E-005  0.3683106E+03  0.7546771E-02  0.1097272E+00
         21   -1    0    0  503  502  0.00000000000E+00  0.00000000000E+00  0.55150290357E+02  0.55150290357E+02  0.00000000000E+00 0. -1.
          2   -1    0    0  502    0 -0.00000000000E+00 -0.00000000000E+00 -0.17538003948E+04  0.17538003948E+04  0.00000000000E+00 0. -1.
         24    2    1    2    0    0  0.63042696646E+02 -0.56560388012E+02 -0.67503660002E+03  0.68487384330E+03  0.78767447375E+02 0.  0.
         23    2    1    2    0    0  0.61053461813E+01 -0.97303243055E+02 -0.99011381356E+02  0.15770978562E+03  0.74591731993E+02 0.  0.
        -11    1    3    3    0    0  0.13870628924E+02  0.16161236745E+02 -0.61376725347E+02  0.64966778697E+02  0.00000000000E+00 0.  1.
         12    1    3    3    0    0  0.49172067722E+02 -0.72721624756E+02 -0.61365987468E+03  0.61990706460E+03  0.00000000000E+00 0. -1.
        -13    1    4    4    0    0  0.24104962156E+02 -0.13755389243E+02 -0.54937363996E+02  0.61549767641E+02  0.00000000000E+00 0.  1.
         13    1    4    4    0    0 -0.17999615975E+02 -0.83547853811E+02 -0.44074017359E+02  0.96160017980E+02  0.00000000000E+00 0. -1.
         21    1    1    2  503  501  0.69910920550E+02  0.39833594242E+02 -0.14052040233E+03  0.16192663621E+03  0.00000000000E+00 0. -1.
          1    1    1    2  501    0 -0.13905896338E+03  0.11403003682E+03 -0.78408172072E+03  0.80444042002E+03  0.00000000000E+00 0. -1.
<scales pt_clust_5="13000.00000" pt_clust_6="13000.00000" pt_clust_7="13000.00000" pt_clust_8="13000.00000" pt_clust_9="80.46274" pt_clust_10="13000.00000"></scales>
<clustering>
<clus scale="   74.592">  7  8 -1 -1</clus>
<clus scale="   78.767">  5  6 -1 -1</clus>
<clus scale="   80.463">  1  9  2 -1</clus>
<clus scale="  118.042">  2  5  1 -1</clus>
<clus scale="  109.407">  7 10 -1 -1</clus>
<clus scale="   80.463">  1  5  2 -1</clus>
</clustering>
</event>
<event>
10    4  0.2866397E-005  0.1845275E+03  0.7546771E-02  0.1194639E+00
         21   -1    0    0  503  502  0.00000000000E+00  0.00000000000E+00  0.39538519842E+03  0.39538519842E+03  0.00000000000E+00 0. -1.
         -1   -1    0    0    0  501 -0.00000000000E+00 -0.00000000000E+00 -0.70311887357E+02  0.70311887357E+02  0.00000000000E+00 0.  1.
         24    2    1    2    0    0 -0.15431402341E+02 -0.49517934270E+02  0.16111717823E+03  0.18724278933E+03  0.80068489697E+02 0.  0.
         23    2    1    2    0    0 -0.22137754455E+02 -0.83612125647E+01  0.11151296887E+03  0.14388293044E+03  0.87790463029E+02 0.  0.
        -11    1    3    3    0    0  0.21940586179E+02  0.79830668803E+01  0.21714818304E+02  0.31884980989E+02  0.00000000000E+00 0.  1.
         12    1    3    3    0    0 -0.37371988520E+02 -0.57501001151E+02  0.13940235993E+03  0.15535780834E+03  0.00000000000E+00 0. -1.
        -11    1    4    4    0    0  0.24761436497E+02 -0.29352470784E+02  0.59134153477E+02  0.70509179445E+02  0.00000000000E+00 0.  1.
         11    1    4    4    0    0 -0.46899190952E+02  0.20991258219E+02  0.52378815389E+02  0.73373750995E+02  0.00000000000E+00 0. -1.
         21    1    1    2  503  501 -0.10308473224E+02  0.19614288392E+02  0.67848352360E+02  0.71374952521E+02  0.00000000000E+00 0. -1.
         -2    1    1    2    0  502  0.47877630019E+02  0.38264858443E+02 -0.15405188395E+02  0.63196413485E+02  0.00000000000E+00 0.  1.
<scales pt_clust_5="13000.00000" pt_clust_6="13000.00000" pt_clust_7="13000.00000" pt_clust_8="13000.00000" pt_clust_9="22.15818" pt_clust_10="13000.00000"></scales>
<clustering>
<clus scale="   22.158">  1  9  2 -1</clus>
<clus scale="   80.068">  5  6 -1 -1</clus>
<clus scale="   87.790">  7  8 -1 -1</clus>
<clus scale="   61.618">  7 10 -1 -1</clus>
<clus scale="   91.504">  2  5  1 -1</clus>
<clus scale="   22.158">  1  5  2 -1</clus>
</clustering>
</event>
<event>
10    4  0.2866397E-005  0.2082393E+03  0.7546771E-02  0.1152863E+00
         21   -1    0    0  501  502  0.00000000000E+00  0.00000000000E+00  0.44312918623E+03  0.44312918623E+03  0.00000000000E+00 0.  1.
          2   -1    0    0  503    0 -0.00000000000E+00 -0.00000000000E+00 -0.70091945713E+03  0.70091945713E+03  0.00000000000E+00 0. -1.
         24    2    1    2    0    0  0.18943114533E+02 -0.14782086848E+03 -0.11915404010E+03  0.20814155150E+03  0.83158700326E+02 0.  0.
         23    2    1    2    0    0  0.65821202966E+02  0.13166213248E+03 -0.49533450679E+03  0.52543582339E+03  0.95179740486E+02 0.  0.
        -11    1    3    3    0    0  0.38862832160E+02 -0.49639873018E+02 -0.17518843941E+02  0.65431999892E+02  0.00000000000E+00 0.  1.
         12    1    3    3    0    0 -0.19919717627E+02 -0.98180995466E+02 -0.10163519616E+03  0.14270955161E+03  0.00000000000E+00 0. -1.
        -13    1    4    4    0    0 -0.48888950203E+01  0.60098636462E+02 -0.93945919301E+02  0.11163146130E+03  0.00000000000E+00 0.  1.
         13    1    4    4    0    0  0.70710097987E+02  0.71563496020E+02 -0.40138858749E+03  0.41380436209E+03  0.00000000000E+00 0. -1.
         21    1    1    2  503  502 -0.10627071749E+03  0.23551710071E+02  0.36892751244E+03  0.38465004599E+03  0.00000000000E+00 0.  1.
          1    1    1    2  501    0  0.21506399991E+02 -0.73929740682E+01 -0.12229236443E+02  0.25821222476E+02  0.00000000000E+00 0. -1.
<scales pt_clust_5="13000.00000" pt_clust_6="13000.00000" pt_clust_7="13000.00000" pt_clust_8="13000.00000" pt_clust_9="108.84920" pt_clust_10="13000.00000"></scales>
<clustering>
<clus scale="   83.159">  5  6 -1 -1</clus>
<clus scale="   95.180">  7  8 -1 -1</clus>
<clus scale="   22.742">  7 10 -1 -1</clus>
<clus scale="  108.849">  1  9  2 -1</clus>
<clus scale="  164.574">  2  5  1 -1</clus>
<clus scale="  108.849">  1  5  2 -1</clus>
</clustering>
</event>
<event>
10    4  0.2866397E-005  0.3351996E+03  0.7546771E-02  0.1111934E+00
         21   -1    0    0  501  502  0.00000000000E+00  0.00000000000E+00  0.76702186457E+02  0.76702186457E+02  0.00000000000E+00 0. -1.
          2   -1    0    0  503    0 -0.00000000000E+00 -0.00000000000E+00 -0.77968822376E+03  0.77968822376E+03  0.00000000000E+00 0. -1.
         24    2    1    2    0    0 -0.38281848934E+01  0.81065040785E+02 -0.14147952950E+03  0.18129484173E+03  0.79152804968E+02 0.  0.
         23    2    1    2    0    0  0.98181438682E+02  0.87654868242E+02 -0.28427783393E+03  0.32635997577E+03  0.91509431707E+02 0.  0.
        -13    1    3    3    0    0  0.20984169970E+02 -0.66971605769E+01 -0.31123635617E+02  0.38129621597E+02  0.00000000000E+00 0.  1.
         14    1    3    3    0    0 -0.24812354863E+02  0.87762201362E+02 -0.11035589388E+03  0.14316522013E+03  0.00000000000E+00 0. -1.
        -11    1    4    4    0    0  0.11059425815E+03  0.51712610683E+02 -0.22335326183E+03  0.25454265577E+03  0.00000000000E+00 0. -1.
         11    1    4    4    0    0 -0.12412819465E+02  0.35942257559E+02 -0.60924572105E+02  0.71817319998E+02  0.00000000000E+00 0.  1.
         21    1    1    2  503  502  0.27695851147E+01 -0.28243769464E+02 -0.72757389060E+01  0.29297056027E+02  0.00000000000E+00 0.  1.
          1    1    1    2  501    0 -0.97122838904E+02 -0.14047613956E+03 -0.26995293497E+03  0.31943853669E+03  0.00000000000E+00 0. -1.
<scales pt_clust_5="13000.00000" pt_clust_6="13000.00000" pt_clust_7="13000.00000" pt_clust_8="13000.00000" pt_clust_9="28.37924" pt_clust_10="13000.00000"></scales>
<clustering>
<clus scale="   28.379">  1  9  2 -1</clus>
<clus scale="   79.153">  5  6 -1 -1</clus>
<clus scale="   91.509">  7  8 -1 -1</clus>
<clus scale="  107.383">  2  5  1 -1</clus>
<clus scale="  149.376">  7 10 -1 -1</clus>
<clus scale="   28.379">  1  5  2 -1</clus>
</clustering>
</event>
<event>
10    4  0.2866397E-005  0.1985351E+03  0.7546771E-02  0.1169493E+00
         21   -1    0    0  501  502  0.00000000000E+00  0.00000000000E+00  0.32316183676E+03  0.32316183676E+03  0.00000000000E+00 0. -1.
          2   -1    0    0  503    0 -0.00000000000E+00 -0.00000000000E+00 -0.13119871820E+03  0.13119871820E+03  0.00000000000E+00 0. -1.
         24    2    1    2    0    0 -0.86937083622E+02  0.26692068041E+02 -0.13342657709E+02  0.12344840353E+03  0.82407274044E+02 0.  0.
         23    2    1    2    0    0  0.13169215558E+03  0.79565500186E+01  0.93506726745E+02  0.18623613013E+03  0.92381046160E+02 0.  0.
        -11    1    3    3    0    0 -0.48203707341E+02  0.52138636136E+02 -0.25649342042E+02  0.75497837894E+02  0.00000000000E+00 0.  1.
         12    1    3    3    0    0 -0.38733376281E+02 -0.25446568095E+02  0.12306684333E+02  0.47950565640E+02  0.00000000000E+00 0. -1.
        -11    1    4    4    0    0  0.34887766317E+02 -0.37465105143E+02  0.47472833510E+02  0.69817334979E+02  0.00000000000E+00 0.  1.
         11    1    4    4    0    0  0.96804389261E+02  0.45421655162E+02  0.46033893235E+02  0.11641879515E+03  0.00000000000E+00 0. -1.
         21    1    1    2  503  502 -0.40097968134E+02  0.12690989252E+02  0.36914393742E+02  0.55960528250E+02  0.00000000000E+00 0. -1.
          1    1    1    2  501    0 -0.46571038223E+01 -0.47339607312E+02  0.74884655780E+02  0.88715493054E+02  0.00000000000E+00 0. -1.
<scales pt_clust_5="13000.00000" pt_clust_6="13000.00000" pt_clust_7="13000.00000" pt_clust_8="13000.00000" pt_clust_9="42.05839" pt_clust_10="13000.00000"></scales>
<clustering>
<clus scale="   42.058">  1  9  2 -1</clus>
<clus scale="   82.407">  5  6 -1 -1</clus>
<clus scale="   92.381">  7  8 -1 -1</clus>
<clus scale="   46.610">  7 10 -1 -1</clus>
<clus scale="  129.048">  2  5  1 -1</clus>
<clus scale="   42.058">  1  5  2 -1</clus>
</clustering>
</event>
<event>
10    4  0.2866397E-005  0.3426409E+03  0.7546771E-02  0.1081731E+00
         21   -1    0    0  503  502  0.00000000000E+00  0.00000000000E+00  0.17419464185E+03  0.17419464185E+03  0.00000000000E+00 0. -1.
          2   -1    0    0  502    0 -0.00000000000E+00 -0.00000000000E+00 -0.98377710001E+03  0.98377710001E+03  0.00000000000E+00 0. -1.
         24    2    1    2    0    0 -0.18699741065E+03 -0.45413504450E+02 -0.21682703912E+03  0.30023544601E+03  0.78082905749E+02 0.  0.
         23    2    1    2    0    0  0.13915889740E+02  0.68171852650E+02 -0.96173035168E+02  0.14759263062E+03  0.87711335862E+02 0.  0.
        -11    1    3    3    0    0 -0.29791063356E+02 -0.35083038465E+02 -0.26303572229E+02  0.53011366288E+02  0.00000000000E+00 0.  1.
         12    1    3    3    0    0 -0.15720634730E+03 -0.10330465985E+02 -0.19052346689E+03  0.24722407972E+03  0.00000000000E+00 0. -1.
        -13    1    4    4    0    0  0.13943375372E+01  0.49962131657E+02 -0.11092103331E+01  0.49993890871E+02  0.00000000000E+00 0.  1.
         13    1    4    4    0    0  0.12521552203E+02  0.18209720993E+02 -0.95063824835E+02  0.97598739748E+02  0.00000000000E+00 0. -1.
         21    1    1    2  503  501 -0.28947276288E+02 -0.53987263302E+01  0.87258220749E+02  0.92092823492E+02  0.00000000000E+00 0. -1.
          1    1    1    2  501    0  0.20202879720E+03 -0.17359621870E+02 -0.58384060463E+03  0.61805084174E+03  0.00000000000E+00 0. -1.
<scales pt_clust_5="13000.00000" pt_clust_6="13000.00000" pt_clust_7="13000.00000" pt_clust_8="13000.00000" pt_clust_9="29.44641" pt_clust_10="13000.00000"></scales>
<clustering>
<clus scale="   29.446">  1  9  2 -1</clus>
<clus scale="   78.083">  5  6 -1 -1</clus>
<clus scale="   87.711">  7  8 -1 -1</clus>
<clus scale="  197.036">  7 10 -1 -1</clus>
<clus scale="  221.184">  2  5  1 -1</clus>
<clus scale="   29.446">  1  5  2 -1</clus>
</clustering>
</event>
<event>
10    4  0.2866397E-005  0.3980448E+03  0.7546771E-02  0.1079251E+00
          2   -1    0    0  503    0 -0.00000000000E+00  0.00000000000E+00  0.10647644500E+04  0.10647644500E+04  0.00000000000E+00 0. -1.
         21   -1    0    0  501  502  0.00000000000E+00 -0.00000000000E+00 -0.14042326836E+03  0.14042326836E+03  0.00000000000E+00 0. -1.
         24    2    1    2    0    0  0.36822920477E+02  0.10906416831E+03  0.65352648715E+02  0.16437385732E+03  0.97451916318E+02 0.  0.
         23    2    1    2    0    0 -0.36299483634E+00 -0.25745869054E+03  0.49036721600E+03  0.56203212960E+03  0.95577189095E+02 0.  0.
        -13    1    3    3    0    0  0.37553229461E+02  0.36839439337E+02  0.74888451020E+02  0.91518683501E+02  0.00000000000E+00 0.  1.
         14    1    3    3    0    0 -0.73030898365E+00  0.72224728972E+02 -0.95358023050E+01  0.72855173817E+02  0.00000000000E+00 0. -1.
        -11    1    4    4    0    0 -0.38177448413E+02 -0.20429215108E+03  0.34623368277E+03  0.40381996439E+03  0.00000000000E+00 0. -1.
         11    1    4    4    0    0  0.37814453577E+02 -0.53166539464E+02  0.14413353323E+03  0.15821216520E+03  0.00000000000E+00 0.  1.
         21    1    1    2  503  502 -0.14795540512E+03  0.62517057636E+02  0.15677743901E+03  0.22445121916E+03  0.00000000000E+00 0. -1.
          1    1    1    2  501    0  0.11149547948E+03  0.85877464597E+02  0.21184387791E+03  0.25433051228E+03  0.00000000000E+00 0. -1.
<scales pt_clust_5="13000.00000" pt_clust_6="13000.00000" pt_clust_7="13000.00000" pt_clust_8="13000.00000" pt_clust_9="163.95939" pt_clust_10="13000.00000"></scales>
<clustering>
<clus scale="   95.577">  7  8 -1 -1</clus>
<clus scale="   97.452">  5  6 -1 -1</clus>
<clus scale="  140.735">  7 10 -1 -1</clus>
<clus scale="  150.824">  1  5  2 -1</clus>
<clus scale="  163.959">  2  9  1 -1</clus>
<clus scale="  163.959">  2  5  1 -1</clus>
</clustering>
</event>
<event>
10    4  0.2866397E-005  0.1484398E+03  0.7546771E-02  0.1228326E+00
         21   -1    0    0  501  502  0.00000000000E+00  0.00000000000E+00  0.13274193543E+03  0.13274193543E+03  0.00000000000E+00 0. -1.
          4   -1    0    0  503    0 -0.00000000000E+00 -0.00000000000E+00 -0.14471479410E+03  0.14471479410E+03  0.00000000000E+00 0. -1.
         24    2    1    2    0    0  0.42817223725E+02 -0.38309164719E+00  0.12191171819E+02  0.91860543153E+02  0.80350938459E+02 0.  0.
         23    2    1    2    0    0 -0.33710250852E+02 -0.46413255462E+02 -0.37230397810E+02  0.11406635399E+03  0.91293259865E+02 0.  0.
        -11    1    3    3    0    0  0.25502118949E+02  0.32658905361E+02 -0.16702072818E+02  0.44675736219E+02  0.00000000000E+00 0.  1.
         12    1    3    3    0    0  0.17315104776E+02 -0.33041997009E+02  0.28893244637E+02  0.47184806934E+02  0.00000000000E+00 0. -1.
        -11    1    4    4    0    0  0.13569474411E+02 -0.23457407912E+02  0.21981153986E+02  0.34893434229E+02  0.00000000000E+00 0.  1.
         11    1    4    4    0    0 -0.47279725263E+02 -0.22955847550E+02 -0.59211551796E+02  0.79172919763E+02  0.00000000000E+00 0. -1.
         21    1    1    2  503  502 -0.29741161134E+02  0.17604026341E+02  0.72103814837E+01  0.35304787355E+02  0.00000000000E+00 0. -1.
          3    1    1    2  501    0  0.20634188261E+02  0.29192320768E+02  0.58559858351E+01  0.36225045026E+02  0.00000000000E+00 0. -1.
<scales pt_clust_5="13000.00000" pt_clust_6="13000.00000" pt_clust_7="13000.00000" pt_clust_8="13000.00000" pt_clust_9="34.56065" pt_clust_10="13000.00000"></scales>
<clustering>
<clus scale="   34.561">  1  9  2 -1</clus>
<clus scale="   80.351">  5  6 -1 -1</clus>
<clus scale="   85.761">  2  5  1 -1</clus>
<clus scale="   91.293">  7  8 -1 -1</clus>
<clus scale="   39.658">  7 10 -1 -1</clus>
<clus scale="   34.561">  1  5  2 -1</clus>
</clustering>
</event>
<event>
10    4  0.2866397E-005  0.4644299E+03  0.7546771E-02  0.1047606E+00
         21   -1    0    0  503  502  0.00000000000E+00  0.00000000000E+00  0.21704565347E+03  0.21704565347E+03  0.00000000000E+00 0. -1.
          2   -1    0    0  502    0 -0.00000000000E+00 -0.00000000000E+00 -0.75902568231E+03  0.75902568231E+03  0.00000000000E+00 0. -1.
         24    2    1    2    0    0  0.15610692249E+03  0.74783702040E+02 -0.51367227657E+02  0.20017492666E+03  0.86425898002E+02 0.  0.
         23    2    1    2    0    0 -0.66426518844E+02  0.95301925472E+02 -0.10913074711E+02  0.14669633491E+03  0.88914453677E+02 0.  0.
        -13    1    3    3    0    0  0.54924218220E+01  0.32905889415E+02  0.55264582662E+01  0.33815765505E+02  0.00000000000E+00 0.  1.
         14    1    3    3    0    0  0.15061450067E+03  0.41877812624E+02 -0.56893685923E+02  0.16635916116E+03  0.00000000000E+00 0. -1.
        -11    1    4    4    0    0 -0.15001445342E+02  0.68626003783E+02 -0.41083893770E+02  0.81378486622E+02  0.00000000000E+00 0. -1.
         11    1    4    4    0    0 -0.51425073501E+02  0.26675921689E+02  0.30170819059E+02  0.65317848290E+02  0.00000000000E+00 0.  1.
         21    1    1    2  503  501  0.85516279421E+02  0.39018550150E+02 -0.22265304037E+02  0.96598266370E+02  0.00000000000E+00 0. -1.
          1    1    1    2  501    0 -0.17519668307E+03 -0.20910417766E+03 -0.45743442244E+03  0.53260180784E+03  0.00000000000E+00 0. -1.
<scales pt_clust_5="13000.00000" pt_clust_6="13000.00000" pt_clust_7="13000.00000" pt_clust_8="13000.00000" pt_clust_9="93.99724" pt_clust_10="13000.00000"></scales>
<clustering>
<clus scale="   86.426">  5  6 -1 -1</clus>
<clus scale="   88.914">  7  8 -1 -1</clus>
<clus scale="   93.997">  1  9  2 -1</clus>
<clus scale="  228.912">  2  5  1 -1</clus>
<clus scale="  128.090">  7 10 -1 -1</clus>
<clus scale="   93.997">  1  5  2 -1</clus>
</clustering>
</event>
<event>
10    4  0.3252985E-005  0.8195653E+03  0.7546771E-02  0.1015216E+00
         21   -1    0    0  503  502  0.00000000000E+00  0.00000000000E+00  0.61774034826E+03  0.61774034826E+03  0.00000000000E+00 0.  1.
         -1   -1    0    0    0  501 -0.00000000000E+00 -0.00000000000E+00 -0.78266398385E+03  0.78266398385E+03  0.00000000000E+00 0.  1.
         24    2    1    2    0    0 -0.32599629115E+02  0.72271858254E+02  0.92970760652E+02  0.14299784383E+03  0.74289054984E+02 0.  0.
         23    2    1    2    0    0 -0.28229452378E+02  0.63208483959E+02 -0.45124429511E+03  0.46564403365E+03  0.91710074530E+02 0.  0.
        -11    1    3    3    0    0 -0.46634276321E+02  0.79900434212E+02  0.76412966187E+02  0.11999073513E+03  0.00000000000E+00 0.  1.
         12    1    3    3    0    0  0.14034647206E+02 -0.76285759579E+01  0.16557794465E+02  0.23007108703E+02  0.00000000000E+00 0. -1.
        -13    1    4    4    0    0 -0.55775938244E+02  0.22564796400E+02 -0.31798610487E+03  0.32362831800E+03  0.00000000000E+00 0. -1.
         13    1    4    4    0    0  0.27546485866E+02  0.40643687559E+02 -0.13325819025E+03  0.14201571564E+03  0.00000000000E+00 0.  1.
         21    1    1    2  503  501  0.37879657705E+03 -0.17343607284E+03 -0.20696916966E+01  0.41661877270E+03  0.00000000000E+00 0.  1.
         -2    1    1    2    0  502 -0.31796749556E+03  0.37955730623E+02  0.19541959056E+03  0.37514368193E+03  0.00000000000E+00 0.  1.
<scales pt_clust_5="13000.00000" pt_clust_6="13000.00000" pt_clust_7="13000.00000" pt_clust_8="13000.00000" pt_clust_9="400.36986" pt_clust_10="13000.00000"></scales>
<clustering>
<clus scale="   74.289">  5  6 -1 -1</clus>
<clus scale="   91.710">  7  8 -1 -1</clus>
<clus scale="  108.650">  2  5  1 -1</clus>
<clus scale="  325.180">  7 10 -1 -1</clus>
<clus scale="  400.370">  1  9  2 -1</clus>
<clus scale="  400.370">  1  5  2 -1</clus>
</clustering>
</event>
<event>
10    4  0.2866397E-005  0.2225574E+03  0.7546771E-02  0.1172360E+00
         21   -1    0    0  501  502  0.00000000000E+00  0.00000000000E+00  0.29272576678E+03  0.29272576678E+03  0.00000000000E+00 0.  1.
         -1   -1    0    0    0  501 -0.00000000000E+00 -0.00000000000E+00 -0.21610110442E+03  0.21610110442E+03  0.00000000000E+00 0.  1.
         24    2    1    2    0    0 -0.36080383688E+02  0.22077143819E+02 -0.13922303907E+03  0.16331042122E+03  0.74148801115E+02 0.  0.
         23    2    1    2    0    0 -0.32463549559E+02 -0.88514651123E+02  0.18766246679E+03  0.22921933745E+03  0.91845401121E+02 0.  0.
        -11    1    3    3    0    0 -0.33047193360E+02  0.87940207968E+01 -0.14465518310E+03  0.14864243603E+03  0.00000000000E+00 0.  1.
         12    1    3    3    0    0 -0.30331903277E+01  0.13283123022E+02  0.54321440355E+01  0.14667985192E+02  0.00000000000E+00 0. -1.
        -13    1    4    4    0    0  0.94491348358E+00 -0.90778291940E+02  0.16640118507E+03  0.18955459778E+03  0.00000000000E+00 0.  1.
         13    1    4    4    0    0 -0.33408463042E+02  0.22636408171E+01  0.21261281726E+02  0.39664739672E+02  0.00000000000E+00 0. -1.
         21    1    1    2  503  502  0.27363516926E+01  0.39354680331E+02  0.21219264551E+02  0.44794370993E+02  0.00000000000E+00 0. -1.
         -2    1    1    2    0  503  0.65807581554E+02  0.27082826973E+02  0.69659700911E+01  0.71502741529E+02  0.00000000000E+00 0.  1.
<scales pt_clust_5="13000.00000" pt_clust_6="13000.00000" pt_clust_7="13000.00000" pt_clust_8="13000.00000" pt_clust_9="39.44970" pt_clust_10="13000.00000"></scales>
<clustering>
<clus scale="   39.450">  1  9  2 -1</clus>
<clus scale="   74.149">  5  6 -1 -1</clus>
<clus scale="   85.802">  2  5  1 -1</clus>
<clus scale="   91.845">  7  8 -1 -1</clus>
<clus scale="   65.203">  7 10 -1 -1</clus>
<clus scale="   39.450">  1  5  2 -1</clus>
</clustering>
</event>
<event>
10    4  0.3689431E-005  0.4907291E+03  0.7546771E-02  0.1055503E+00
         21   -1    0    0  501  502  0.00000000000E+00  0.00000000000E+00  0.11905114335E+03  0.11905114335E+03  0.00000000000E+00 0.  1.
          2   -1    0    0  503    0 -0.00000000000E+00 -0.00000000000E+00 -0.15229598035E+04  0.15229598035E+04  0.00000000000E+00 0. -1.
         24    2    1    2    0    0 -0.76586675566E+02  0.11412115918E+03 -0.38433163450E+02  0.16428435690E+03  0.81382332386E+02 0.  0.
         23    2    1    2    0    0 -0.82484320640E+02  0.60652012718E+02 -0.11292282294E+03  0.17909402593E+03  0.94025402877E+02 0.  0.
        -11    1    3    3    0    0 -0.74570869932E+02  0.54912043903E+02 -0.47944292232E+02  0.10428232048E+03  0.00000000000E+00 0.  1.
         12    1    3    3    0    0 -0.20158056342E+01  0.59209115273E+02  0.95111287821E+01  0.60002036419E+02  0.00000000000E+00 0. -1.
        -13    1    4    4    0    0 -0.75617692607E+02  0.26286190746E+01 -0.86635619412E+02  0.11502467398E+03  0.00000000000E+00 0. -1.
         13    1    4    4    0    0 -0.68666280329E+01  0.58023393643E+02 -0.26287203530E+02  0.64069351954E+02  0.00000000000E+00 0.  1.
         21    1    1    2  503  502  0.33295104487E+02  0.83279901139E+01 -0.91181332774E+01  0.35511403191E+02  0.00000000000E+00 0. -1.
          1    1    1    2  501    0  0.12577589172E+03 -0.18310116201E+03 -0.12434345405E+04  0.12631211608E+04  0.00000000000E+00 0. -1.
<scales pt_clust_5="13000.00000" pt_clust_6="13000.00000" pt_clust_7="13000.00000" pt_clust_8="13000.00000" pt_clust_9="34.32083" pt_clust_10="13000.00000"></scales>
<clustering>
<clus scale="   34.321">  1  9  2 -1</clus>
<clus scale="   81.382">  5  6 -1 -1</clus>
<clus scale="   94.025">  7  8 -1 -1</clus>
<clus scale="  155.006">  2  5  1 -1</clus>
<clus scale="  108.496">  7 10 -1 -1</clus>
<clus scale="   34.321">  1  5  2 -1</clus>
</clustering>
</event>
<event>
10    4  0.2866397E-005  0.2910225E+03  0.7546771E-02  0.1135413E+00
          2   -1    0    0  503    0 -0.00000000000E+00  0.00000000000E+00  0.11349199400E+04  0.11349199400E+04  0.00000000000E+00 0. -1.
         21   -1    0    0  501  502  0.00000000000E+00 -0.00000000000E+00 -0.11034886567E+03  0.11034886567E+03  0.00000000000E+00 0.  1.
         24    2    1    2    0    0 -0.30733265211E+02  0.29117919669E+02  0.20181235603E+03  0.22161342994E+03  0.81190507144E+02 0.  0.
         23    2    1    2    0    0 -0.18572464731E+03 -0.93792492609E+02  0.58015266763E+03  0.62322683064E+03  0.92433156331E+02 0.  0.
        -11    1    3    3    0    0 -0.12314490430E+02  0.18758876916E+02  0.41445734693E+01  0.22819281911E+02  0.00000000000E+00 0.  1.
         12    1    3    3    0    0 -0.18418774781E+02  0.10359042753E+02  0.19766778256E+03  0.19879414803E+03  0.00000000000E+00 0. -1.
        -11    1    4    4    0    0 -0.24550513420E+02  0.18881190549E+02  0.74659349783E+02  0.80828494825E+02  0.00000000000E+00 0.  1.
         11    1    4    4    0    0 -0.16117413389E+03 -0.11267368316E+03  0.50549331784E+03  0.54239833582E+03  0.00000000000E+00 0. -1.
         21    1    1    2  503  502  0.24489419242E+03  0.26404907177E+02  0.13081733424E+03  0.27889704112E+03  0.00000000000E+00 0.  1.
          1    1    1    2  501    0 -0.28436279899E+02  0.38269665763E+02  0.11178871643E+03  0.12153150395E+03  0.00000000000E+00 0. -1.
<scales pt_clust_5="13000.00000" pt_clust_6="13000.00000" pt_clust_7="13000.00000" pt_clust_8="13000.00000" pt_clust_9="240.33243" pt_clust_10="13000.00000"></scales>
<clustering>
<clus scale="   81.191">  5  6 -1 -1</clus>
<clus scale="   91.566">  1  5  2 -1</clus>
<clus scale="   92.433">  7  8 -1 -1</clus>
<clus scale="   52.956">  7 10 -1 -1</clus>
<clus scale="  240.332">  2  9  1 -1</clus>
<clus scale="  240.332">  2  5  1 -1</clus>
</clustering>
</event>
<event>
10    4  0.2866397E-005  0.3899455E+03  0.7546771E-02  0.1065846E+00
         21   -1    0    0  503  502  0.00000000000E+00  0.00000000000E+00  0.18110276550E+03  0.18110276550E+03  0.00000000000E+00 0.  1.
          2   -1    0    0  502    0 -0.00000000000E+00 -0.00000000000E+00 -0.12740479004E+04  0.12740479004E+04  0.00000000000E+00 0. -1.
         24    2    1    2    0    0  0.17734880077E+03 -0.98342810987E+02 -0.48233574716E+03  0.52956663629E+03  0.81664825167E+02 0.  0.
         23    2    1    2    0    0  0.31126498862E+02 -0.43369659043E+02 -0.18013906217E+03  0.20850011518E+03  0.90401493648E+02 0.  0.
        -11    1    3    3    0    0  0.25975670854E+02 -0.54663433856E+02 -0.11764151725E+03  0.13229645898E+03  0.00000000000E+00 0.  1.
         12    1    3    3    0    0  0.15137312992E+03 -0.43679377131E+02 -0.36469422991E+03  0.39727017731E+03  0.00000000000E+00 0. -1.
        -11    1    4    4    0    0  0.43333891653E+02  0.11174416100E+02 -0.11040885143E+03  0.11913357300E+03  0.00000000000E+00 0.  1.
         11    1    4    4    0    0 -0.12207392791E+02 -0.54544075142E+02 -0.69730210741E+02  0.89366542184E+02  0.00000000000E+00 0. -1.
         21    1    1    2  503  501  0.64763417434E+01 -0.78124815176E+02  0.85784294728E+02  0.11620832574E+03  0.00000000000E+00 0.  1.
          1    1    1    2  501    0 -0.21495164138E+03  0.21983728521E+03 -0.51625462026E+03  0.60087558865E+03  0.00000000000E+00 0. -1.
<scales pt_clust_5="13000.00000" pt_clust_6="13000.00000" pt_clust_7="13000.00000" pt_clust_8="13000.00000" pt_clust_9="78.39279" pt_clust_10="13000.00000"></scales>
<clustering>
<clus scale="   78.393">  1  9  2 -1</clus>
<clus scale="   81.665">  5  6 -1 -1</clus>
<clus scale="   90.401">  7  8 -1 -1</clus>
<clus scale="  231.375">  2  5  1 -1</clus>
<clus scale="  135.002">  7 10 -1 -1</clus>
<clus scale="   78.393">  1  5  2 -1</clus>
</clustering>
</event>
<event>
10    4  0.2866397E-005  0.1804195E+03  0.7546771E-02  0.1193478E+00
         21   -1    0    0  503  502  0.00000000000E+00  0.00000000000E+00  0.11164761147E+03  0.11164761147E+03  0.00000000000E+00 0.  1.
          2   -1    0    0  502    0 -0.00000000000E+00 -0.00000000000E+00 -0.25509725526E+03  0.25509725526E+03  0.00000000000E+00 0. -1.
         24    2    1    2    0    0 -0.46623288822E+02 -0.81363711334E+01 -0.49136795812E+02  0.10500632187E+03  0.79824628618E+02 0.  0.
         23    2    1    2    0    0  0.34397538503E+02 -0.32639931764E+02 -0.40191454323E+02  0.11319955317E+03  0.94605655421E+02 0.  0.
        -13    1    3    3    0    0 -0.18948445958E+02  0.34979940485E+02 -0.31762050507E+02  0.50906460229E+02  0.00000000000E+00 0.  1.
         14    1    3    3    0    0 -0.27674842864E+02 -0.43116311619E+02 -0.17374745304E+02  0.54099861640E+02  0.00000000000E+00 0. -1.
        -13    1    4    4    0    0 -0.35448478100E+01  0.31159777172E+02 -0.15412386131E+02  0.34943372844E+02  0.00000000000E+00 0. -1.
         13    1    4    4    0    0  0.37942386313E+02 -0.63799708936E+02 -0.24779068192E+02  0.78256180331E+02  0.00000000000E+00 0.  1.
         21    1    1    2  503  501 -0.38490031676E+02 -0.30938975545E+02 -0.10582961055E+02  0.50504473177E+02  0.00000000000E+00 0. -1.
          1    1    1    2  501    0  0.50715781995E+02  0.71715278443E+02 -0.43538432598E+02  0.98034518505E+02  0.00000000000E+00 0. -1.
<scales pt_clust_5="13000.00000" pt_clust_6="13000.00000" pt_clust_7="13000.00000" pt_clust_8="13000.00000" pt_clust_9="49.38322" pt_clust_10="13000.00000"></scales>
<clustering>
<clus scale="   49.383">  1  9  2 -1</clus>
<clus scale="   79.825">  5  6 -1 -1</clus>
<clus scale="   94.606">  7  8 -1 -1</clus>
<clus scale="   73.834">  7 10 -1 -1</clus>
<clus scale="  100.425">  2  5  1 -1</clus>
<clus scale="   49.383">  1  5  2 -1</clus>
</clustering>
</event>
<event>
10    4  0.2866397E-005  0.4288769E+03  0.7546771E-02  0.1085671E+00
         21   -1    0    0  503  502  0.00000000000E+00  0.00000000000E+00  0.14388130692E+03  0.14388130692E+03  0.00000000000E+00 0.  1.
         -1   -1    0    0    0  501 -0.00000000000E+00 -0.00000000000E+00 -0.69969883590E+03  0.69969883590E+03  0.00000000000E+00 0.  1.
         24    2    1    2    0    0 -0.60691097298E+02 -0.16042771455E+02 -0.27007497305E+03  0.28834824377E+03  0.79141890344E+02 0.  0.
         23    2    1    2    0    0  0.18470031503E+03 -0.14056179123E+03 -0.19416950942E+03  0.31643719693E+03  0.92514202604E+02 0.  0.
        -11    1    3    3    0    0 -0.77329070171E+02 -0.15651884856E+01 -0.22926281825E+03  0.24195800202E+03  0.00000000000E+00 0.  1.
         12    1    3    3    0    0  0.16637972873E+02 -0.14477582970E+02 -0.40812154802E+02  0.46390241749E+02  0.00000000000E+00 0. -1.
        -11    1    4    4    0    0  0.36110871075E+02 -0.15595402778E+02 -0.85087271139E+02  0.93739294362E+02  0.00000000000E+00 0. -1.
         11    1    4    4    0    0  0.14858944396E+03 -0.12496638845E+03 -0.10908223828E+03  0.22269790256E+03  0.00000000000E+00 0.  1.
         21    1    1    2  503  501 -0.14321337502E+02  0.13968947744E+02  0.19008774704E+02  0.27596480295E+02  0.00000000000E+00 0.  1.
         -2    1    1    2    0  502 -0.10968788023E+03  0.14263561494E+03 -0.11058182121E+03  0.21119822182E+03  0.00000000000E+00 0.  1.
<scales pt_clust_5="13000.00000" pt_clust_6="13000.00000" pt_clust_7="13000.00000" pt_clust_8="13000.00000" pt_clust_9="20.00580" pt_clust_10="13000.00000"></scales>
<clustering>
<clus scale="   20.006">  1  9  2 -1</clus>
<clus scale="   79.142">  5  6 -1 -1</clus>
<clus scale="   92.514">  7  8 -1 -1</clus>
<clus scale="  101.510">  2  5  1 -1</clus>
<clus scale="  200.916">  7 10 -1 -1</clus>
<clus scale="   20.006">  1  5  2 -1</clus>
</clustering>
</event>
<event>
10    4  0.2866397E-005  0.3460924E+03  0.7546771E-02  0.1076136E+00
         21   -1    0    0  501  502  0.00000000000E+00  0.00000000000E+00  0.19787063401E+03  0.19787063401E+03  0.00000000000E+00 0.  1.
          2   -1    0    0  503    0 -0.00000000000E+00 -0.00000000000E+00 -0.68511345636E+03  0.68511345636E+03  0.00000000000E+00 0. -1.
         24    2    1    2    0    0 -0.56753493991E+01 -0.21615868479E+03 -0.13354660359E+03  0.26635969147E+03  0.79724546460E+02 0.  0.
         23    2    1    2    0    0  0.54865612541E+01  0.30898659456E+02 -0.25292898060E+03  0.27053013859E+03  0.90711946002E+02 0.  0.
        -11    1    3    3    0    0  0.23942038838E+02 -0.18807590804E+03 -0.10767191248E+03  0.21803442193E+03  0.00000000000E+00 0.  1.
         12    1    3    3    0    0 -0.29617388238E+02 -0.28082776745E+02 -0.25874691110E+02  0.48325269537E+02  0.00000000000E+00 0. -1.
        -13    1    4    4    0    0  0.36869856517E+02  0.44161613117E+02 -0.19515789934E+03  0.20346065976E+03  0.00000000000E+00 0. -1.
         13    1    4    4    0    0 -0.31383295262E+02 -0.13262953661E+02 -0.57771081257E+02  0.67069478833E+02  0.00000000000E+00 0.  1.
         21    1    1    2  503  502 -0.16627116584E+02 -0.40487838245E+02  0.55751464241E+02  0.70879840693E+02  0.00000000000E+00 0.  1.
          1    1    1    2  501    0  0.16815904729E+02  0.22574786358E+03 -0.15651870240E+03  0.27521441961E+03  0.00000000000E+00 0. -1.
<scales pt_clust_5="13000.00000" pt_clust_6="13000.00000" pt_clust_7="13000.00000" pt_clust_8="13000.00000" pt_clust_9="43.76901" pt_clust_10="13000.00000"></scales>
<clustering>
<clus scale="   43.769">  1  9  2 -1</clus>
<clus scale="   79.725">  5  6 -1 -1</clus>
<clus scale="   90.712">  7  8 -1 -1</clus>
<clus scale="  208.106">  7 10 -1 -1</clus>
<clus scale="  249.622">  2  5  1 -1</clus>
<clus scale="   43.769">  1  5  2 -1</clus>
</clustering>
</event>
<event>
10    4  0.2866397E-005  0.2195184E+03  0.7546771E-02  0.1151164E+00
         21   -1    0    0  501  502  0.00000000000E+00  0.00000000000E+00  0.86627179221E+02  0.86627179221E+02  0.00000000000E+00 0.  1.
         -1   -1    0    0    0  501 -0.00000000000E+00 -0.00000000000E+00 -0.50522112557E+03  0.50522112557E+03  0.00000000000E+00 0.  1.
         24    2    1    2    0    0 -0.97081573203E+02  0.58162514967E+02 -0.61223865599E+02  0.15193705230E+03  0.80800966214E+02 0.  0.
         23    2    1    2    0    0  0.13700044528E+03 -0.75727896132E+02 -0.25729361848E+03  0.31470711487E+03  0.91305672227E+02 0.  0.
        -11    1    3    3    0    0 -0.72956392905E+02  0.10691128456E+02 -0.41096982421E+01  0.73850017691E+02  0.00000000000E+00 0.  1.
         12    1    3    3    0    0 -0.24125180297E+02  0.47471386511E+02 -0.57114167357E+02  0.78087034612E+02  0.00000000000E+00 0. -1.
        -11    1    4    4    0    0  0.10276157467E+03 -0.94287265366E+02 -0.22186771160E+03  0.26205974718E+03  0.00000000000E+00 0.  1.
         11    1    4    4    0    0  0.34238870608E+02  0.18559369235E+02 -0.35425906875E+02  0.52647367691E+02  0.00000000000E+00 0. -1.
         21    1    1    2  503  502 -0.10312281315E+01  0.25442491673E+02 -0.11091749434E+02  0.27774281620E+02  0.00000000000E+00 0. -1.
         -2    1    1    2    0  503 -0.38887643941E+02 -0.78771105083E+01 -0.88984712836E+02  0.97429855997E+02  0.00000000000E+00 0.  1.
<scales pt_clust_5="13000.00000" pt_clust_6="13000.00000" pt_clust_7="13000.00000" pt_clust_8="13000.00000" pt_clust_9="25.46338" pt_clust_10="13000.00000"></scales>
<clustering>
<clus scale="   25.463">  1  9  2 -1</clus>
<clus scale="   80.801">  5  6 -1 -1</clus>
<clus scale="   91.306">  7  8 -1 -1</clus>
<clus scale="   39.483">  7 10 -1 -1</clus>
<clus scale="  146.236">  2  5  1 -1</clus>
<clus scale="   25.463">  1  5  2 -1</clus>
</clustering>
</event>
<event>
10    4  0.2866397E-005  0.2192858E+03  0.7546771E-02  0.1172402E+00
         21   -1    0    0  501  502  0.00000000000E+00  0.00000000000E+00  0.12969967149E+03  0.12969967149E+03  0.00000000000E+00 0. -1.
          2   -1    0    0  503    0 -0.00000000000E+00 -0.00000000000E+00 -0.26691686962E+03  0.26691686962E+03  0.00000000000E+00 0. -1.
         24    2    1    2    0    0  0.34135235243E+02  0.43041808872E+00 -0.11217819783E+03  0.14266534672E+03  0.81265328040E+02 0.  0.
         23    2    1    2    0    0  0.90866323904E+01 -0.23985517925E+02 -0.83580878646E+02  0.12886989228E+03  0.94677420232E+02 0.  0.
        -11    1    3    3    0    0  0.46246245266E+02 -0.30528936404E+01 -0.11944270099E+03  0.12811945278E+03  0.00000000000E+00 0.  1.
         12    1    3    3    0    0 -0.12111010023E+02  0.34833117291E+01  0.72645031591E+01  0.14545893940E+02  0.00000000000E+00 0. -1.
        -13    1    4    4    0    0 -0.68626810597E+01 -0.58614164487E+02 -0.41860649604E+02  0.72353511699E+02  0.00000000000E+00 0. -1.
         13    1    4    4    0    0  0.15949313450E+02  0.34628646563E+02 -0.41720229042E+02  0.56516380578E+02  0.00000000000E+00 0.  1.
         21    1    1    2  503  502  0.27937851607E+02  0.95171893932E+00 -0.32794715802E+01  0.28145767980E+02  0.00000000000E+00 0.  1.
          1    1    1    2  501    0 -0.71159719241E+02  0.22603380897E+02  0.61821349933E+02  0.96935534135E+02  0.00000000000E+00 0. -1.
<scales pt_clust_5="13000.00000" pt_clust_6="13000.00000" pt_clust_7="13000.00000" pt_clust_8="13000.00000" pt_clust_9="27.95406" pt_clust_10="13000.00000"></scales>
<clustering>
<clus scale="   27.954">  1  9  2 -1</clus>
<clus scale="   81.265">  5  6 -1 -1</clus>
<clus scale="   89.614">  2  5  1 -1</clus>
<clus scale="   94.677">  7  8 -1 -1</clus>
<clus scale="   51.809">  7 10 -1 -1</clus>
<clus scale="   27.954">  1  5  2 -1</clus>
</clustering>
</event>
<event>
10    4  0.2866397E-005  0.1553389E+03  0.7546771E-02  0.1222316E+00
          2   -1    0    0  503    0 -0.00000000000E+00  0.00000000000E+00  0.29321517543E+03  0.29321517543E+03  0.00000000000E+00 0. -1.
         21   -1    0    0  501  502  0.00000000000E+00 -0.00000000000E+00 -0.21247812938E+03  0.21247812938E+03  0.00000000000E+00 0. -1.
         24    2    1    2    0    0  0.28738416811E+01 -0.20561761990E+02  0.24142370214E+03  0.25592162414E+03  0.82337286349E+02 0.  0.
         23    2    1    2    0    0  0.13016661147E+02 -0.41676550045E+02 -0.88491830763E+02  0.13422967821E+03  0.90996890664E+02 0.  0.
        -11    1    3    3    0    0 -0.37412117398E+01  0.21801512705E+02  0.18280244337E+02  0.28696166199E+02  0.00000000000E+00 0.  1.
         12    1    3    3    0    0  0.66150534209E+01 -0.42363274695E+02  0.22314345780E+03  0.22722545794E+03  0.00000000000E+00 0. -1.
        -11    1    4    4    0    0 -0.11223488149E+02 -0.55862388125E+02 -0.89531161250E+02  0.10612446432E+03  0.00000000000E+00 0. -1.
         11    1    4    4    0    0  0.24240149296E+02  0.14185838079E+02  0.10393304872E+01  0.28105213890E+02  0.00000000000E+00 0.  1.
         21    1    1    2  503  502 -0.30890331230E+02  0.84692170368E+01 -0.14169088768E+02  0.35024324079E+02  0.00000000000E+00 0. -1.
          1    1    1    2  501    0  0.14999828402E+02  0.53769094999E+02 -0.58025736561E+02  0.80517678385E+02  0.00000000000E+00 0. -1.
<scales pt_clust_5="13000.00000" pt_clust_6="13000.00000" pt_clust_7="13000.00000" pt_clust_8="13000.00000" pt_clust_9="32.03030" pt_clust_10="13000.00000"></scales>
<clustering>
<clus scale="   32.030">  2  9  1 -1</clus>
<clus scale="   82.337">  5  6 -1 -1</clus>
<clus scale="   84.804">  1  5  2 -1</clus>
<clus scale="   90.997">  7  8 -1 -1</clus>
<clus scale="   50.115">  7 10 -1 -1</clus>
<clus scale="   32.030">  2  5  1 -1</clus>
</clustering>
</event>
<event>
10    4  0.2866397E-005  0.3431651E+03  0.7546771E-02  0.1079162E+00
          2   -1    0    0  503    0 -0.00000000000E+00  0.00000000000E+00  0.10835529159E+04  0.10835529159E+04  0.00000000000E+00 0. -1.
         21   -1    0    0  501  502  0.00000000000E+00 -0.00000000000E+00 -0.12712460486E+03  0.12712460486E+03  0.00000000000E+00 0.  1.
         24    2    1    2    0    0  0.54353792474E+01  0.20677103765E+03  0.11466333191E+03  0.24952414727E+03  0.79566418962E+02 0.  0.
         23    2    1    2    0    0  0.15283476282E+03 -0.11738487544E+03  0.27148298580E+03  0.34529295119E+03  0.91578036951E+02 0.  0.
        -13    1    3    3    0    0  0.70952538307E+01  0.20397819620E+03  0.12455989284E+03  0.23910795481E+03  0.00000000000E+00 0.  1.
         14    1    3    3    0    0 -0.16598745833E+01  0.27928414566E+01 -0.98965609310E+01  0.10416192457E+02  0.00000000000E+00 0. -1.
        -11    1    4    4    0    0  0.23188352834E+02 -0.51000891006E+01  0.99923167566E+02  0.10270516069E+03  0.00000000000E+00 0.  1.
         11    1    4    4    0    0  0.12964640999E+03 -0.11228478634E+03  0.17155981824E+03  0.24258779050E+03  0.00000000000E+00 0. -1.
         21    1    1    2  503  502 -0.10697392738E+03  0.12466643587E+02  0.18510492882E+03  0.21415572141E+03  0.00000000000E+00 0. -1.
          1    1    1    2  501    0 -0.51296214691E+02 -0.10185280580E+03  0.38517706451E+03  0.40170470089E+03  0.00000000000E+00 0. -1.
<scales pt_clust_5="13000.00000" pt_clust_6="13000.00000" pt_clust_7="13000.00000" pt_clust_8="13000.00000" pt_clust_9="107.69796" pt_clust_10="13000.00000"></scales>
<clustering>
<clus scale="   79.566">  5  6 -1 -1</clus>
<clus scale="   91.578">  7  8 -1 -1</clus>
<clus scale="  107.698">  2  9  1 -1</clus>
<clus scale="  116.991">  7 10 -1 -1</clus>
<clus scale="  235.935">  1  5  2 -1</clus>
<clus scale="  107.698">  2  5  1 -1</clus>
</clustering>
</event>
<event>
10    4  0.2866397E-005  0.3849902E+03  0.7546771E-02  0.1064609E+00
         21   -1    0    0  501  502  0.00000000000E+00  0.00000000000E+00  0.58621493375E+03  0.58621493375E+03  0.00000000000E+00 0. -1.
          4   -1    0    0  503    0 -0.00000000000E+00 -0.00000000000E+00 -0.19877742531E+03  0.19877742531E+03  0.00000000000E+00 0. -1.
         24    2    1    2    0    0 -0.13617687366E+03  0.17075514223E+03  0.16371063367E+03  0.28465332019E+03  0.80776739251E+02 0.  0.
         23    2    1    2    0    0 -0.41008099765E+01  0.25765547013E+02 -0.68734944024E+01  0.96544031219E+02  0.92697491786E+02 0.  0.
        -11    1    3    3    0    0 -0.18520658165E+02  0.78306430795E+02  0.78718602730E+02  0.11256789195E+03  0.00000000000E+00 0.  1.
         12    1    3    3    0    0 -0.11765621549E+03  0.92448711433E+02  0.84992030938E+02  0.17208542824E+03  0.00000000000E+00 0. -1.
        -11    1    4    4    0    0  0.24311077371E+02  0.51684900197E+02 -0.98921986171E+01  0.57967344124E+02  0.00000000000E+00 0.  1.
         11    1    4    4    0    0 -0.28411887348E+02 -0.25919353184E+02  0.30187042147E+01  0.38576687096E+02  0.00000000000E+00 0. -1.
         21    1    1    2  503  502 -0.75741750839E+01  0.46179305242E+02  0.25212031022E+02  0.53155835701E+02  0.00000000000E+00 0. -1.
          3    1    1    2  501    0  0.14785185872E+03 -0.24269999448E+03  0.20538833815E+03  0.35063917194E+03  0.00000000000E+00 0. -1.
<scales pt_clust_5="13000.00000" pt_clust_6="13000.00000" pt_clust_7="13000.00000" pt_clust_8="13000.00000" pt_clust_9="46.79635" pt_clust_10="13000.00000"></scales>
<clustering>
<clus scale="   46.796">  1  9  2 -1</clus>
<clus scale="   80.777">  5  6 -1 -1</clus>
<clus scale="   92.697">  7  8 -1 -1</clus>
<clus scale="  248.802">  2  5  1 -1</clus>
<clus scale="  137.309">  7 10 -1 -1</clus>
<clus scale="   46.796">  1  5  2 -1</clus>
</clustering>
</event>
<event>
10    4  0.2866397E-005  0.6218228E+03  0.7546771E-02  0.1031438E+00
          2   -1    0    0  502    0 -0.00000000000E+00  0.00000000000E+00  0.27540886984E+04  0.27540886984E+04  0.00000000000E+00 0. -1.
         21   -1    0    0  503  502  0.00000000000E+00 -0.00000000000E+00 -0.27452064449E+03  0.27452064449E+03  0.00000000000E+00 0.  1.
         24    2    1    2    0    0 -0.11697862458E+03 -0.56341579077E+02  0.56228411356E+03  0.58265797142E+03  0.80427079752E+02 0.  0.
         23    2    1    2    0    0  0.33575150583E+03  0.14648821689E+03  0.96655634610E+03  0.10376249392E+04  0.90810092685E+02 0.  0.
        -11    1    3    3    0    0 -0.99957924521E+02 -0.76718598170E+02  0.45340241187E+03  0.47058588703E+03  0.00000000000E+00 0.  1.
         12    1    3    3    0    0 -0.17020700062E+02  0.20377019092E+02  0.10888170169E+03  0.11207208439E+03  0.00000000000E+00 0. -1.
        -13    1    4    4    0    0  0.54331063444E+02  0.23194648050E+02  0.80784039113E+02  0.10007955400E+03  0.00000000000E+00 0. -1.
         13    1    4    4    0    0  0.28142044239E+03  0.12329356884E+03  0.88577230698E+03  0.93754538521E+03  0.00000000000E+00 0.  1.
         21    1    1    2  503  501 -0.53147527914E+03 -0.22764552787E+03  0.25228162417E+03  0.63082047889E+03  0.00000000000E+00 0.  1.
          1    1    1    2  501    0  0.31270239789E+03  0.13749889006E+03  0.69844597011E+03  0.77750595340E+03  0.00000000000E+00 0. -1.
<scales pt_clust_5="13000.00000" pt_clust_6="13000.00000" pt_clust_7="13000.00000" pt_clust_8="13000.00000" pt_clust_9="604.43140" pt_clust_10="13000.00000"></scales>
<clustering>
<clus scale="   80.427">  5  6 -1 -1</clus>
<clus scale="   90.810">  7  8 -1 -1</clus>
<clus scale="  152.731">  1  5  2 -1</clus>
<clus scale="  297.707">  7 10 -1 -1</clus>
<clus scale="  604.431">  2  9  1 -1</clus>
<clus scale="  604.431">  2  5  1 -1</clus>
</clustering>
</event>
<event>
10    4  0.2866397E-005  0.2193936E+03  0.7546771E-02  0.1156646E+00
         21   -1    0    0  501  502  0.00000000000E+00  0.00000000000E+00  0.63129241542E+02  0.63129241542E+02  0.00000000000E+00 0. -1.
          2   -1    0    0  503    0 -0.00000000000E+00 -0.00000000000E+00 -0.98149160788E+03  0.98149160788E+03  0.00000000000E+00 0. -1.
         24    2    1    2    0    0  0.14791783700E+02  0.10232454213E+03 -0.62730645991E+03  0.64096651149E+03  0.81458980016E+02 0.  0.
         23    2    1    2    0    0  0.31114034959E+02 -0.16508880886E+02 -0.61567127451E+02  0.11594011691E+03  0.91711358112E+02 0.  0.
        -13    1    3    3    0    0  0.22189203252E+02  0.13355623557E+02 -0.45533698865E+02  0.52383691679E+02  0.00000000000E+00 0.  1.
         14    1    3    3    0    0 -0.73974195526E+01  0.88968918572E+02 -0.58177276104E+03  0.58858281981E+03  0.00000000000E+00 0. -1.
        -11    1    4    4    0    0 -0.24934136974E+02  0.18707586453E+02 -0.27128752696E+02  0.41323772824E+02  0.00000000000E+00 0. -1.
         11    1    4    4    0    0  0.56048171933E+02 -0.35216467339E+02 -0.34438374754E+02  0.74616344085E+02  0.00000000000E+00 0.  1.
         21    1    1    2  503  502 -0.78458673863E+01 -0.20444283743E+02  0.18361650515E+02  0.28577553822E+02  0.00000000000E+00 0. -1.
          1    1    1    2  501    0 -0.38059951272E+02 -0.65371377500E+02 -0.24785042949E+03  0.25913666720E+03  0.00000000000E+00 0. -1.
<scales pt_clust_5="13000.00000" pt_clust_6="13000.00000" pt_clust_7="13000.00000" pt_clust_8="13000.00000" pt_clust_9="21.89809" pt_clust_10="13000.00000"></scales>
<clustering>
<clus scale="   21.898">  1  9  2 -1</clus>
<clus scale="   81.459">  5  6 -1 -1</clus>
<clus scale="   91.711">  7  8 -1 -1</clus>
<clus scale="   78.721">  7 10 -1 -1</clus>
<clus scale="  128.757">  2  5  1 -1</clus>
<clus scale="   21.898">  1  5  2 -1</clus>
</clustering>
</event>
<event>
10    4  0.2866397E-005  0.3324443E+03  0.7546771E-02  0.1090603E+00
          2   -1    0    0  503    0 -0.00000000000E+00  0.00000000000E+00  0.48257672789E+03  0.48257672789E+03  0.00000000000E+00 0. -1.
         21   -1    0    0  501  502  0.00000000000E+00 -0.00000000000E+00 -0.21179140656E+03  0.21179140656E+03  0.00000000000E+00 0. -1.
         24    2    1    2    0    0  0.78108617378E+02  0.13583295291E+03  0.73780984942E+02  0.19573749905E+03  0.91203002083E+02 0.  0.
         23    2    1    2    0    0 -0.12510004921E+03 -0.30569856574E+02  0.22940201110E+03  0.27860125570E+03  0.91699719382E+02 0.  0.
        -13    1    3    3    0    0 -0.18909554708E+02  0.36109472844E+02  0.27255705725E+02  0.49034057377E+02  0.00000000000E+00 0.  1.
         14    1    3    3    0    0  0.97018172086E+02  0.99723480067E+02  0.46525279217E+02  0.14670344167E+03  0.00000000000E+00 0. -1.
        -13    1    4    4    0    0 -0.95443531152E+02 -0.10063711235E+01  0.21339912293E+03  0.23377268038E+03  0.00000000000E+00 0. -1.
         13    1    4    4    0    0 -0.29656518061E+02 -0.29563485450E+02  0.16002888165E+02  0.44828575319E+02  0.00000000000E+00 0.  1.
         21    1    1    2  503  502 -0.31601998012E+01  0.32619297603E+02 -0.62207268715E+02  0.70311803561E+02  0.00000000000E+00 0. -1.
          1    1    1    2  501    0  0.50151631636E+02 -0.13788239394E+03  0.29809594001E+02  0.14971757615E+03  0.00000000000E+00 0. -1.
<scales pt_clust_5="13000.00000" pt_clust_6="13000.00000" pt_clust_7="13000.00000" pt_clust_8="13000.00000" pt_clust_9="32.77202" pt_clust_10="13000.00000"></scales>
<clustering>
<clus scale="   32.772">  2  9  1 -1</clus>
<clus scale="   91.203">  5  6 -1 -1</clus>
<clus scale="   91.700">  7  8 -1 -1</clus>
<clus scale="  133.689">  7 10 -1 -1</clus>
<clus scale="  191.218">  1  5  2 -1</clus>
<clus scale="   32.772">  2  5  1 -1</clus>
</clustering>
</event>
<event>
10    4  0.2866397E-005  0.1940806E+03  0.7546771E-02  0.1183157E+00
         21   -1    0    0  503  502  0.00000000000E+00  0.00000000000E+00  0.10806838384E+03  0.10806838384E+03  0.00000000000E+00 0. -1.
          2   -1    0    0  502    0 -0.00000000000E+00 -0.00000000000E+00 -0.41963422736E+03  0.41963422736E+03  0.00000000000E+00 0. -1.
         24    2    1    2    0    0 -0.38691205393E+02  0.54285534771E+02 -0.32574011240E+02  0.11036180030E+03  0.81699033631E+02 0.  0.
         23    2    1    2    0    0 -0.23334430181E+02 -0.84382238268E+02 -0.28456423497E+03  0.31158722602E+03  0.91896342857E+02 0.  0.
        -13    1    3    3    0    0 -0.42879433293E+02  0.23606307600E+02 -0.53866179463E+02  0.72783712794E+02  0.00000000000E+00 0.  1.
         14    1    3    3    0    0  0.41882279000E+01  0.30679227170E+02  0.21292168224E+02  0.37578087503E+02  0.00000000000E+00 0. -1.
        -13    1    4    4    0    0 -0.23493129111E+02  0.99503140126E+01 -0.11254227972E+03  0.11539800947E+03  0.00000000000E+00 0.  1.
         13    1    4    4    0    0  0.15869893004E+00 -0.94332552281E+02 -0.17202195525E+03  0.19618921655E+03  0.00000000000E+00 0. -1.
         21    1    1    2  503  501  0.21608174277E+02 -0.17536414369E+00  0.39425367856E+02  0.44958909893E+02  0.00000000000E+00 0. -1.
          1    1    1    2  501    0  0.40417461297E+02  0.30272067641E+02 -0.33852965164E+02  0.60794674992E+02  0.00000000000E+00 0. -1.
<scales pt_clust_5="13000.00000" pt_clust_6="13000.00000" pt_clust_7="13000.00000" pt_clust_8="13000.00000" pt_clust_9="21.60889" pt_clust_10="13000.00000"></scales>
<clustering>
<clus scale="   21.609">  1  9  2 -1</clus>
<clus scale="   81.699">  5  6 -1 -1</clus>
<clus scale="   91.896">  7  8 -1 -1</clus>
<clus scale="   54.079">  7 10 -1 -1</clus>
<clus scale="  101.405">  2  5  1 -1</clus>
<clus scale="   21.609">  1  5  2 -1</clus>
</clustering>
</event>
<event>
10    4  0.2866397E-005  0.1340294E+03  0.7546771E-02  0.1232159E+00
          2   -1    0    0  503    0 -0.00000000000E+00  0.00000000000E+00  0.10755625561E+04  0.10755625561E+04  0.00000000000E+00 0. -1.
         21   -1    0    0  501  502  0.00000000000E+00 -0.00000000000E+00 -0.18362662630E+03  0.18362662630E+03  0.00000000000E+00 0. -1.
         24    2    1    2    0    0  0.59726877031E+02  0.36168427662E+02  0.94422167757E+03  0.95013021226E+03  0.79482003327E+02 0.  0.
         23    2    1    2    0    0 -0.73654918824E+02 -0.69828946701E+02  0.50855074027E+02  0.14481183577E+03  0.89906064095E+02 0.  0.
        -13    1    3    3    0    0  0.34189171939E+02  0.78486221559E+01  0.11987608805E+03  0.12490306975E+03  0.00000000000E+00 0.  1.
         14    1    3    3    0    0  0.25537705092E+02  0.28319805507E+02  0.82434558952E+03  0.82522714251E+03  0.00000000000E+00 0. -1.
        -11    1    4    4    0    0 -0.57402376000E+02 -0.89703648629E+02  0.27234028204E+02  0.10992483632E+03  0.00000000000E+00 0. -1.
         11    1    4    4    0    0 -0.16252542824E+02  0.19874701928E+02  0.23621045824E+02  0.34886999453E+02  0.00000000000E+00 0.  1.
         21    1    1    2  503  502  0.44253957653E+02  0.62017359958E+02 -0.95273168340E+02  0.12198992708E+03  0.00000000000E+00 0. -1.
          1    1    1    2  501    0 -0.30325915860E+02 -0.28356840919E+02 -0.78676534270E+01  0.42257207315E+02  0.00000000000E+00 0. -1.
<scales pt_clust_5="13000.00000" pt_clust_6="13000.00000" pt_clust_7="13000.00000" pt_clust_8="13000.00000" pt_clust_9="76.18770" pt_clust_10="13000.00000"></scales>
<clustering>
<clus scale="   76.188">  2  9  1 -1</clus>
<clus scale="   79.482">  5  6 -1 -1</clus>
<clus scale="   89.906">  7  8 -1 -1</clus>
<clus scale="   17.310">  7 10 -1 -1</clus>
<clus scale="  107.642">  1  5  2 -1</clus>
<clus scale="   76.188">  2  5  1 -1</clus>
</clustering>
</event>
<event>
10    4  0.2866397E-005  0.3492776E+03  0.7546771E-02  0.1112019E+00
          2   -1    0    0  502    0 -0.00000000000E+00  0.00000000000E+00  0.11792036646E+04  0.11792036646E+04  0.00000000000E+00 0. -1.
         21   -1    0    0  503  502  0.00000000000E+00 -0.00000000000E+00 -0.13754648792E+03  0.13754648792E+03  0.00000000000E+00 0.  1.
         24    2    1    2    0    0 -0.59829067875E+02 -0.21595317147E+02  0.48186772272E+02  0.11251575349E+03  0.79321842366E+02 0.  0.
         23    2    1    2    0    0  0.83552062196E+02 -0.78025996504E+02  0.20655666976E+03  0.25392288688E+03  0.93499579834E+02 0.  0.
        -11    1    3    3    0    0 -0.67383320792E+02  0.63841959426E+01  0.48939653431E+02  0.83524604499E+02  0.00000000000E+00 0.  1.
         12    1    3    3    0    0  0.75542529170E+01 -0.27979513090E+02 -0.75288115861E+00  0.28991148993E+02  0.00000000000E+00 0. -1.
        -11    1    4    4    0    0  0.47586816528E+02  0.26637458254E+01  0.29504076002E+02  0.56054358883E+02  0.00000000000E+00 0.  1.
         11    1    4    4    0    0  0.35965245668E+02 -0.80689742330E+02  0.17705259376E+03  0.19786852800E+03  0.00000000000E+00 0. -1.
         21    1    1    2  503  501  0.26709540833E+02 -0.58344479405E+01 -0.75351980854E+02  0.80158351860E+02  0.00000000000E+00 0.  1.
          1    1    1    2  501    0 -0.50432535154E+02  0.10545576159E+03  0.86226571550E+03  0.87015316030E+03  0.00000000000E+00 0. -1.
<scales pt_clust_5="13000.00000" pt_clust_6="13000.00000" pt_clust_7="13000.00000" pt_clust_8="13000.00000" pt_clust_9="27.33936" pt_clust_10="13000.00000"></scales>
<clustering>
<clus scale="   27.339">  2  9  1 -1</clus>
<clus scale="   79.322">  5  6 -1 -1</clus>
<clus scale="   93.500">  7  8 -1 -1</clus>
<clus scale="   94.712">  1  5  2 -1</clus>
<clus scale="  119.989">  7 10 -1 -1</clus>
<clus scale="   27.339">  2  5  1 -1</clus>
</clustering>
</event>
<event>
10    4  0.2866397E-005  0.2373262E+03  0.7546771E-02  0.1159566E+00
         21   -1    0    0  503  502  0.00000000000E+00  0.00000000000E+00  0.47598211789E+03  0.47598211789E+03  0.00000000000E+00 0. -1.
          2   -1    0    0  502    0 -0.00000000000E+00 -0.00000000000E+00 -0.33629612385E+03  0.33629612385E+03  0.00000000000E+00 0. -1.
         24    2    1    2    0    0 -0.32776954757E+02  0.41458133811E+02 -0.25516479739E+03  0.27266528666E+03  0.80275644480E+02 0.  0.
         23    2    1    2    0    0 -0.10265082660E+03  0.20966777428E+02  0.49308043816E+02  0.14752148653E+03  0.91402996923E+02 0.  0.
        -11    1    3    3    0    0 -0.53044911559E+02  0.13448669287E+02 -0.10313493569E+03  0.11675377642E+03  0.00000000000E+00 0.  1.
         12    1    3    3    0    0  0.20267956802E+02  0.28009464524E+02 -0.15202986170E+03  0.15591151024E+03  0.00000000000E+00 0. -1.
        -11    1    4    4    0    0 -0.55240724444E+01  0.35354758415E+02  0.31623810672E+02  0.47754996811E+02  0.00000000000E+00 0.  1.
         11    1    4    4    0    0 -0.97126754153E+02 -0.14387980987E+02  0.17684233144E+02  0.99766489720E+02  0.00000000000E+00 0. -1.
         21    1    1    2  503  501  0.59012418552E+02 -0.15548836767E+02  0.26381534599E+03  0.27078177311E+03  0.00000000000E+00 0. -1.
          1    1    1    2  501    0  0.76415362803E+02 -0.46876074472E+02  0.81727401637E+02  0.12130969544E+03  0.00000000000E+00 0. -1.
<scales pt_clust_5="13000.00000" pt_clust_6="13000.00000" pt_clust_7="13000.00000" pt_clust_8="13000.00000" pt_clust_9="61.02648" pt_clust_10="13000.00000"></scales>
<clustering>
<clus scale="   61.026">  1  9  2 -1</clus>
<clus scale="   80.276">  5  6 -1 -1</clus>
<clus scale="   91.403">  7  8 -1 -1</clus>
<clus scale="   95.013">  2  5  1 -1</clus>
<clus scale="   97.109">  7 10 -1 -1</clus>
<clus scale="   61.026">  1  5  2 -1</clus>
</clustering>
</event>
<event>
10    4  0.2866397E-005  0.5418165E+03  0.7546771E-02  0.1067144E+00
          2   -1    0    0  503    0 -0.00000000000E+00  0.00000000000E+00  0.12168696795E+04  0.12168696795E+04  0.00000000000E+00 0. -1.
         21   -1    0    0  501  502  0.00000000000E+00 -0.00000000000E+00 -0.14721574350E+03  0.14721574350E+03  0.00000000000E+00 0.  1.
         24    2    1    2    0    0  0.27844039000E+01 -0.19772605719E+00  0.16225705491E+03  0.18235045443E+03  0.83165764373E+02 0.  0.
         23    2    1    2    0    0 -0.26890901450E+03 -0.14242148217E+03  0.62259725055E+03  0.69831159148E+03  0.86115072670E+02 0.  0.
        -11    1    3    3    0    0 -0.33607649268E+02  0.47810911143E+01  0.12691954845E+03  0.13138076230E+03  0.00000000000E+00 0.  1.
         12    1    3    3    0    0  0.36392053168E+02 -0.49788171715E+01  0.35337506454E+02  0.50969692138E+02  0.00000000000E+00 0. -1.
        -13    1    4    4    0    0 -0.24539395578E+03 -0.94877463871E+02  0.52482140138E+03  0.58707531887E+03  0.00000000000E+00 0.  1.
         13    1    4    4    0    0 -0.23515058721E+02 -0.47544018301E+02  0.97775849174E+02  0.11123627261E+03  0.00000000000E+00 0. -1.
         21    1    1    2  503  502  0.13004200457E+03  0.17077080468E+03  0.26812922795E+03  0.34346305997E+03  0.00000000000E+00 0.  1.
          1    1    1    2  501    0  0.13608260603E+03 -0.28151596455E+02  0.16670402599E+02  0.13996031712E+03  0.00000000000E+00 0. -1.
<scales pt_clust_5="13000.00000" pt_clust_6="13000.00000" pt_clust_7="13000.00000" pt_clust_8="13000.00000" pt_clust_9="215.09658" pt_clust_10="13000.00000"></scales>
<clustering>
<clus scale="   83.166">  5  6 -1 -1</clus>
<clus scale="   83.213">  1  5  2 -1</clus>
<clus scale="   86.115">  7  8 -1 -1</clus>
<clus scale="  139.171">  7 10 -1 -1</clus>
<clus scale="  215.097">  2  9  1 -1</clus>
<clus scale="  215.097">  2  5  1 -1</clus>
</clustering>
</event>
<event>
10    4  0.2866397E-005  0.8228515E+03  0.7546771E-02  0.9559358E-01
         21   -1    0    0  501  502  0.00000000000E+00  0.00000000000E+00  0.49835770669E+03  0.49835770669E+03  0.00000000000E+00 0. -1.
          2   -1    0    0  503    0 -0.00000000000E+00 -0.00000000000E+00 -0.13835244961E+04  0.13835244961E+04  0.00000000000E+00 0. -1.
         24    2    1    2    0    0  0.71796836299E+03 -0.52490638713E+02 -0.18347721834E+03  0.74705702022E+03  0.78717624461E+02 0.  0.
         23    2    1    2    0    0 -0.81530855169E+02  0.77438153227E+02 -0.36157979216E+02  0.14845778241E+03  0.89935342196E+02 0.  0.
        -11    1    3    3    0    0  0.89430551341E+02 -0.27409507180E+02 -0.73401757804E+01  0.93824212107E+02  0.00000000000E+00 0.  1.
         12    1    3    3    0    0  0.62853781165E+03 -0.25081131533E+02 -0.17613704255E+03  0.65323280811E+03  0.00000000000E+00 0. -1.
        -13    1    4    4    0    0 -0.78779516467E+02  0.18253455750E+02 -0.37624932211E+02  0.89191010676E+02  0.00000000000E+00 0. -1.
         13    1    4    4    0    0 -0.27513387023E+01  0.59184697477E+02  0.14669529954E+01  0.59266771729E+02  0.00000000000E+00 0.  1.
         21    1    1    2  503  502  0.24378295326E+02  0.51590373239E+02 -0.23071003535E+02  0.61547860223E+02  0.00000000000E+00 0. -1.
          1    1    1    2  501    0 -0.66081580315E+03 -0.76537887753E+02 -0.64246058836E+03  0.92481953999E+03  0.00000000000E+00 0. -1.
<scales pt_clust_5="13000.00000" pt_clust_6="13000.00000" pt_clust_7="13000.00000" pt_clust_8="13000.00000" pt_clust_9="57.06021" pt_clust_10="13000.00000"></scales>
<clustering>
<clus scale="   57.060">  1  9  2 -1</clus>
<clus scale="   78.718">  5  6 -1 -1</clus>
<clus scale="   89.935">  7  8 -1 -1</clus>
<clus scale="  656.504">  7 10 -1 -1</clus>
<clus scale="  736.858">  2  5  1 -1</clus>
<clus scale="   57.060">  1  5  2 -1</clus>
</clustering>
</event>
<event>
10    4  0.2866397E-005  0.1875151E+03  0.7546771E-02  0.1181029E+00
         21   -1    0    0  503  502  0.00000000000E+00  0.00000000000E+00  0.87416554591E+02  0.87416554591E+02  0.00000000000E+00 0. -1.
          2   -1    0    0  502    0 -0.00000000000E+00 -0.00000000000E+00 -0.54267665293E+03  0.54267665293E+03  0.00000000000E+00 0. -1.
         24    2    1    2    0    0 -0.41199397923E+02 -0.75133923682E+02 -0.34016137967E+03  0.35994190546E+03  0.80659247492E+02 0.  0.
         23    2    1    2    0    0  0.10151381012E+02 -0.11479888930E+02 -0.82504822074E+02  0.11966711185E+03  0.85313150257E+02 0.  0.
        -11    1    3    3    0    0 -0.60235186988E+02 -0.27488375623E+02 -0.18226075539E+03  0.19391459847E+03  0.00000000000E+00 0.  1.
         12    1    3    3    0    0  0.19035789065E+02 -0.47645548059E+02 -0.15790062429E+03  0.16602730699E+03  0.00000000000E+00 0. -1.
        -11    1    4    4    0    0  0.46444977362E+02 -0.17545511639E+02 -0.43016500682E+02  0.65691705958E+02  0.00000000000E+00 0.  1.
         11    1    4    4    0    0 -0.36293596350E+02  0.60656227087E+01 -0.39488321393E+02  0.53975405892E+02  0.00000000000E+00 0. -1.
         21    1    1    2  503  501  0.22486860230E+02 -0.13786031597E+02  0.23354141151E+02  0.35229667314E+02  0.00000000000E+00 0. -1.
          1    1    1    2  501    0  0.85611566814E+01  0.10039984421E+03 -0.55948037740E+02  0.11525452290E+03  0.00000000000E+00 0. -1.
<scales pt_clust_5="13000.00000" pt_clust_6="13000.00000" pt_clust_7="13000.00000" pt_clust_8="13000.00000" pt_clust_9="26.37638" pt_clust_10="13000.00000"></scales>
<clustering>
<clus scale="   26.376">  1  9  2 -1</clus>
<clus scale="   80.659">  5  6 -1 -1</clus>
<clus scale="   85.313">  7  8 -1 -1</clus>
<clus scale="   95.492">  7 10 -1 -1</clus>
<clus scale="  117.923">  2  5  1 -1</clus>
<clus scale="   26.376">  1  5  2 -1</clus>
</clustering>
</event>
<event>
10    4  0.2866397E-005  0.1884324E+03  0.7546771E-02  0.1167376E+00
         -1   -1    0    0    0  501 -0.00000000000E+00  0.00000000000E+00  0.18708034713E+03  0.18708034713E+03  0.00000000000E+00 0.  1.
         21   -1    0    0  503  502  0.00000000000E+00 -0.00000000000E+00 -0.71286626324E+03  0.71286626324E+03  0.00000000000E+00 0.  1.
         24    2    1    2    0    0 -0.13939975453E+03  0.58392412371E+02  0.11090245736E+03  0.20422875329E+03  0.81043588492E+02 0.  0.
         23    2    1    2    0    0  0.17665213698E+02  0.22836880332E+02 -0.19559692065E+03  0.21522782120E+03  0.85036914180E+02 0.  0.
        -11    1    3    3    0    0 -0.80279348602E+02 -0.97496929340E+01  0.45388048415E+02  0.92735674167E+02  0.00000000000E+00 0.  1.
         12    1    3    3    0    0 -0.59120405929E+02  0.68142105305E+02  0.65514408950E+02  0.11149307912E+03  0.00000000000E+00 0. -1.
        -11    1    4    4    0    0  0.36794619328E+02  0.16692898262E+02 -0.19017155703E+03  0.19441635210E+03  0.00000000000E+00 0.  1.
         11    1    4    4    0    0 -0.19129405630E+02  0.61439820699E+01 -0.54253636198E+01  0.20811469094E+02  0.00000000000E+00 0. -1.
         21    1    1    2  503  501  0.71558045786E+02 -0.87989939680E+02 -0.39850999232E+03  0.41433440285E+03  0.00000000000E+00 0.  1.
         -2    1    1    2    0  502  0.50176495046E+02  0.67606469764E+01 -0.42581460508E+02  0.66155633030E+02  0.00000000000E+00 0.  1.
<scales pt_clust_5="13000.00000" pt_clust_6="13000.00000" pt_clust_7="13000.00000" pt_clust_8="13000.00000" pt_clust_9="113.41421" pt_clust_10="13000.00000"></scales>
<clustering>
<clus scale="   81.044">  5  6 -1 -1</clus>
<clus scale="   85.037">  7  8 -1 -1</clus>
<clus scale="   50.630">  7 10 -1 -1</clus>
<clus scale="  113.414">  2  9  1 -1</clus>
<clus scale="  158.448">  1  5  2 -1</clus>
<clus scale="  113.414">  2  5  1 -1</clus>
</clustering>
</event>
<event>
10    4  0.2866397E-005  0.2912426E+03  0.7546771E-02  0.1109985E+00
         21   -1    0    0  503  502  0.00000000000E+00  0.00000000000E+00  0.78472127124E+02  0.78472127124E+02  0.00000000000E+00 0.  1.
          2   -1    0    0  502    0 -0.00000000000E+00 -0.00000000000E+00 -0.10619790367E+04  0.10619790367E+04  0.00000000000E+00 0. -1.
         24    2    1    2    0    0 -0.17565190586E+02  0.15719872095E+03 -0.43600797426E+03  0.47068406801E+03  0.80128424892E+02 0.  0.
         23    2    1    2    0    0 -0.10713102268E+02  0.38484493122E+02 -0.13143166095E+03  0.16341720955E+03  0.88515965261E+02 0.  0.
        -11    1    3    3    0    0 -0.66085549769E+01  0.12199736711E+03 -0.22086526891E+03  0.25240542307E+03  0.00000000000E+00 0.  1.
         12    1    3    3    0    0 -0.10956635609E+02  0.35201353832E+02 -0.21514270534E+03  0.21827864494E+03  0.00000000000E+00 0. -1.
        -13    1    4    4    0    0 -0.44594559572E+02  0.38291112971E+02 -0.10543080356E+03  0.12070848527E+03  0.00000000000E+00 0.  1.
         13    1    4    4    0    0  0.33881457304E+02  0.19338015095E+00 -0.26000857392E+02  0.42708724285E+02  0.00000000000E+00 0. -1.
         21    1    1    2  503  501 -0.57192842348E+02 -0.28942266846E+02 -0.18299162072E+02  0.66659848174E+02  0.00000000000E+00 0.  1.
          1    1    1    2  501    0  0.85471135202E+02 -0.16674094722E+03 -0.39776811227E+03  0.43969003806E+03  0.00000000000E+00 0. -1.
<scales pt_clust_5="13000.00000" pt_clust_6="13000.00000" pt_clust_7="13000.00000" pt_clust_8="13000.00000" pt_clust_9="64.09895" pt_clust_10="13000.00000"></scales>
<clustering>
<clus scale="   64.099">  1  9  2 -1</clus>
<clus scale="   80.128">  5  6 -1 -1</clus>
<clus scale="   88.516">  7  8 -1 -1</clus>
<clus scale="  172.033">  2  5  1 -1</clus>
<clus scale="   81.980">  7 10 -1 -1</clus>
<clus scale="   64.099">  1  5  2 -1</clus>
</clustering>
</event>
<event>
10    4  0.2866397E-005  0.4283867E+03  0.7546771E-02  0.1084427E+00
          2   -1    0    0  503    0 -0.00000000000E+00  0.00000000000E+00  0.11319193489E+04  0.11319193489E+04  0.00000000000E+00 0. -1.
         21   -1    0    0  501  502  0.00000000000E+00 -0.00000000000E+00 -0.17734275343E+03  0.17734275343E+03  0.00000000000E+00 0. -1.
         24    2    1    2    0    0 -0.83275950962E+02  0.25560840109E+02 -0.87274696349E+02  0.14163099064E+03  0.69672263723E+02 0.  0.
         23    2    1    2    0    0  0.86324291510E+02  0.16535643198E+03  0.36466134625E+03  0.42786325237E+03  0.12367066095E+03 0.  0.
        -11    1    3    3    0    0  0.89854939491E+00  0.26262579444E+02 -0.29650882666E+02  0.39619506723E+02  0.00000000000E+00 0.  1.
         12    1    3    3    0    0 -0.84174500357E+02 -0.70173933490E+00 -0.57623813683E+02  0.10201148392E+03  0.00000000000E+00 0. -1.
        -13    1    4    4    0    0  0.59662687232E+02  0.17423905227E+03  0.25433863195E+03  0.31401755251E+03  0.00000000000E+00 0. -1.
         13    1    4    4    0    0  0.26661604278E+02 -0.88826202911E+01  0.11032271430E+03  0.11384569986E+03  0.00000000000E+00 0.  1.
         21    1    1    2  503  502  0.65841631563E+01 -0.22797029360E+02 -0.14544258398E+02  0.27831478661E+02  0.00000000000E+00 0.  1.
          1    1    1    2  501    0 -0.96325037044E+01 -0.16812024273E+03  0.69173420394E+03  0.71193638062E+03  0.00000000000E+00 0. -1.
<scales pt_clust_5="13000.00000" pt_clust_6="13000.00000" pt_clust_7="13000.00000" pt_clust_8="13000.00000" pt_clust_9="23.72880" pt_clust_10="13000.00000"></scales>
<clustering>
<clus scale="   23.729">  2  9  1 -1</clus>
<clus scale="   69.672">  5  6 -1 -1</clus>
<clus scale="  105.295">  1  5  2 -1</clus>
<clus scale="  123.671">  7  8 -1 -1</clus>
<clus scale="  174.518">  7 10 -1 -1</clus>
<clus scale="   23.729">  2  5  1 -1</clus>
</clustering>
</event>
<event>
10    4  0.2880707E-005  0.4855207E+03  0.7546771E-02  0.1060318E+00
          2   -1    0    0  502    0 -0.00000000000E+00  0.00000000000E+00  0.10772331961E+04  0.10772331961E+04  0.00000000000E+00 0. -1.
         21   -1    0    0  503  502  0.00000000000E+00 -0.00000000000E+00 -0.57326023385E+03  0.57326023385E+03  0.00000000000E+00 0. -1.
         24    2    1    2    0    0  0.11917873888E+01  0.11434337829E+03  0.47057025648E+03  0.49089566650E+03  0.80413684087E+02 0.  0.
         23    2    1    2    0    0  0.14251365264E+03  0.16241855653E+03  0.35319292765E+03  0.42404550653E+03  0.91539165228E+02 0.  0.
        -11    1    3    3    0    0  0.30980395637E+02  0.20050982413E+02  0.81669684716E+02  0.89620110529E+02  0.00000000000E+00 0.  1.
         12    1    3    3    0    0 -0.29788608248E+02  0.94292395876E+02  0.38890057177E+03  0.40127555598E+03  0.00000000000E+00 0. -1.
        -13    1    4    4    0    0  0.44648371509E+02  0.46600449921E+01  0.40850516767E+02  0.60695616134E+02  0.00000000000E+00 0.  1.
         13    1    4    4    0    0  0.97865281130E+02  0.15775851153E+03  0.31234241088E+03  0.36334989039E+03  0.00000000000E+00 0. -1.
         21    1    1    2  503  501 -0.14676552479E+03 -0.42107054101E+03 -0.37336861334E+03  0.58158803392E+03  0.00000000000E+00 0. -1.
          1    1    1    2  501    0  0.30600847663E+01  0.14430860619E+03  0.53578391512E+02  0.15396422304E+03  0.00000000000E+00 0. -1.
<scales pt_clust_5="13000.00000" pt_clust_6="13000.00000" pt_clust_7="13000.00000" pt_clust_8="13000.00000" pt_clust_9="427.04954" pt_clust_10="13000.00000"></scales>
<clustering>
<clus scale="   80.414">  5  6 -1 -1</clus>
<clus scale="   91.539">  7  8 -1 -1</clus>
<clus scale="  139.793">  1  5  2 -1</clus>
<clus scale="  164.233">  7 10 -1 -1</clus>
<clus scale="  427.050">  2  9  1 -1</clus>
<clus scale="  427.050">  2  5  1 -1</clus>
</clustering>
</event>
<event>
10    4  0.2866397E-005  0.2417721E+03  0.7546771E-02  0.1130533E+00
          2   -1    0    0  503    0 -0.00000000000E+00  0.00000000000E+00  0.19186083579E+04  0.19186083579E+04  0.00000000000E+00 0. -1.
         21   -1    0    0  501  502  0.00000000000E+00 -0.00000000000E+00 -0.32862265629E+02  0.32862265629E+02  0.00000000000E+00 0.  1.
         24    2    1    2    0    0  0.55411989557E+01 -0.16751838214E+03  0.43653244118E+03  0.47434098336E+03  0.79659795755E+02 0.  0.
         23    2    1    2    0    0  0.44634247566E+02  0.37846743576E+02  0.46763529496E+03  0.48021291354E+03  0.92179613703E+02 0.  0.
        -11    1    3    3    0    0 -0.34645631263E+02 -0.62856540228E+02  0.14005748311E+03  0.15737650076E+03  0.00000000000E+00 0.  1.
         12    1    3    3    0    0  0.40186830218E+02 -0.10466184191E+03  0.29647495806E+03  0.31696448261E+03  0.00000000000E+00 0. -1.
        -13    1    4    4    0    0 -0.24391080319E+02 -0.81385680155E+01  0.13204087761E+03  0.13452120446E+03  0.00000000000E+00 0.  1.
         13    1    4    4    0    0  0.69025327885E+02  0.45985311591E+02  0.33559441735E+03  0.34569170908E+03  0.00000000000E+00 0. -1.
         21    1    1    2  503  502 -0.27453005541E+02  0.10285165095E+02  0.54301005790E+02  0.61709410660E+02  0.00000000000E+00 0.  1.
          1    1    1    2  501    0 -0.22722440981E+02  0.11938647347E+03  0.92727735029E+03  0.93520731591E+03  0.00000000000E+00 0. -1.
<scales pt_clust_5="13000.00000" pt_clust_6="13000.00000" pt_clust_7="13000.00000" pt_clust_8="13000.00000" pt_clust_9="29.31641" pt_clust_10="13000.00000"></scales>
<clustering>
<clus scale="   29.316">  2  9  1 -1</clus>
<clus scale="   79.660">  5  6 -1 -1</clus>
<clus scale="   92.180">  7  8 -1 -1</clus>
<clus scale="  123.648">  7 10 -1 -1</clus>
<clus scale="  179.913">  1  5  2 -1</clus>
<clus scale="   29.316">  2  5  1 -1</clus>
</clustering>
</event>
<event>
10    4  0.2866397E-005  0.1599572E+03  0.7546771E-02  0.1200580E+00
          2   -1    0    0  503    0 -0.00000000000E+00  0.00000000000E+00  0.10596724439E+04  0.10596724439E+04  0.00000000000E+00 0. -1.
         21   -1    0    0  501  502  0.00000000000E+00 -0.00000000000E+00 -0.32250457719E+02  0.32250457719E+02  0.00000000000E+00 0. -1.
         24    2    1    2    0    0  0.64588602033E+02  0.73329377601E+02  0.76087347274E+03  0.77133939794E+03  0.80542784704E+02 0.  0.
         23    2    1    2    0    0 -0.95036142978E+01 -0.67439550568E+02  0.15003876251E+03  0.18838604198E+03  0.91319542760E+02 0.  0.
        -11    1    3    3    0    0  0.44654846456E+02  0.12746304910E+02  0.14697570484E+03  0.15413754058E+03  0.00000000000E+00 0.  1.
         12    1    3    3    0    0  0.19933755578E+02  0.60583072690E+02  0.61389776790E+03  0.61720185737E+03  0.00000000000E+00 0. -1.
        -11    1    4    4    0    0 -0.21610913394E+02 -0.87639814414E+02  0.11565326701E+03  0.14670871419E+03  0.00000000000E+00 0. -1.
         11    1    4    4    0    0  0.12107299096E+02  0.20200263845E+02  0.34385495503E+02  0.41677327791E+02  0.00000000000E+00 0.  1.
         21    1    1    2  503  502 -0.24547719481E+02 -0.75299458442E+01  0.25501953593E+02  0.36188952087E+02  0.00000000000E+00 0. -1.
          1    1    1    2  501    0 -0.30537268255E+02  0.16401188122E+01  0.91007797342E+02  0.96008509619E+02  0.00000000000E+00 0. -1.
<scales pt_clust_5="13000.00000" pt_clust_6="13000.00000" pt_clust_7="13000.00000" pt_clust_8="13000.00000" pt_clust_9="25.67666" pt_clust_10="13000.00000"></scales>
<clustering>
<clus scale="   25.677">  2  9  1 -1</clus>
<clus scale="   80.543">  5  6 -1 -1</clus>
<clus scale="   91.320">  7  8 -1 -1</clus>
<clus scale="   32.832">  7 10 -1 -1</clus>
<clus scale="  123.408">  1  5  2 -1</clus>
<clus scale="   25.677">  2  5  1 -1</clus>
</clustering>
</event>
<event>
10    4  0.2866397E-005  0.7424622E+03  0.7546771E-02  0.9745533E-01
         21   -1    0    0  501  502  0.00000000000E+00  0.00000000000E+00  0.16650134618E+03  0.16650134618E+03  0.00000000000E+00 0. -1.
          2   -1    0    0  503    0 -0.00000000000E+00 -0.00000000000E+00 -0.28222010302E+04  0.28222010302E+04  0.00000000000E+00 0. -1.
         24    2    1    2    0    0 -0.52774121308E+03  0.25604024137E+02 -0.68049716428E+03  0.86515037298E+03  0.79009007290E+02 0.  0.
         23    2    1    2    0    0  0.43511288574E+03 -0.25596276384E+03 -0.12504124752E+04  0.13514687044E+04  0.89978558347E+02 0.  0.
        -11    1    3    3    0    0 -0.27905106423E+02  0.94018731278E+01 -0.16063030750E+02  0.33542676394E+02  0.00000000000E+00 0.  1.
         12    1    3    3    0    0 -0.49983610666E+03  0.16202151009E+02 -0.66443413353E+03  0.83160769659E+03  0.00000000000E+00 0. -1.
        -13    1    4    4    0    0  0.84215982128E+02 -0.29113325202E+02 -0.30691718140E+03  0.31959047794E+03  0.00000000000E+00 0.  1.
         13    1    4    4    0    0  0.35089690361E+03 -0.22684943864E+03 -0.94349529384E+03  0.10318782265E+04  0.00000000000E+00 0. -1.
         21    1    1    2  503  502  0.21622916958E+01  0.24094564942E+02 -0.17664591462E+02  0.29954321168E+02  0.00000000000E+00 0.  1.
          1    1    1    2  501    0  0.90466035649E+02  0.20626417476E+03 -0.70712545298E+03  0.74212897778E+03  0.00000000000E+00 0. -1.
<scales pt_clust_5="13000.00000" pt_clust_6="13000.00000" pt_clust_7="13000.00000" pt_clust_8="13000.00000" pt_clust_9="24.19139" pt_clust_10="13000.00000"></scales>
<clustering>
<clus scale="   24.191">  1  9  2 -1</clus>
<clus scale="   79.009">  5  6 -1 -1</clus>
<clus scale="   89.979">  7  8 -1 -1</clus>
<clus scale="  227.736">  7 10 -1 -1</clus>
<clus scale="  533.853">  2  5  1 -1</clus>
<clus scale="   24.191">  1  5  2 -1</clus>
</clustering>
</event>
<event>
10    4  0.2866397E-005  0.1488672E+03  0.7546771E-02  0.1230885E+00
         -1   -1    0    0    0  501 -0.00000000000E+00  0.00000000000E+00  0.45834168588E+03  0.45834168588E+03  0.00000000000E+00 0.  1.
         21   -1    0    0  503  502  0.00000000000E+00 -0.00000000000E+00 -0.48852966898E+02  0.48852966898E+02  0.00000000000E+00 0.  1.
         24    2    1    2    0    0 -0.20409158598E+02 -0.20995760227E+02  0.13597015566E+03  0.15683549395E+03  0.72471602926E+02 0.  0.
         23    2    1    2    0    0 -0.26477885280E+02  0.59140864328E+02  0.14017813338E+03  0.18088416383E+03  0.94183073890E+02 0.  0.
        -11    1    3    3    0    0 -0.40232416635E+02 -0.17051928661E+02  0.41624411643E+02  0.60349045261E+02  0.00000000000E+00 0.  1.
         12    1    3    3    0    0  0.19823258037E+02 -0.39438315657E+01  0.94345744021E+02  0.96486448694E+02  0.00000000000E+00 0. -1.
        -13    1    4    4    0    0  0.66758924582E+01 -0.22090318896E+02  0.13330433561E+02  0.26650519469E+02  0.00000000000E+00 0. -1.
         13    1    4    4    0    0 -0.33153777738E+02  0.81231183224E+02  0.12684769981E+03  0.15423364437E+03  0.00000000000E+00 0.  1.
         21    1    1    2  503  501  0.24064834608E+02 -0.36912321533E+02  0.11541805968E+02  0.45550510762E+02  0.00000000000E+00 0.  1.
         -2    1    1    2    0  502  0.22822209270E+02 -0.12327825686E+01  0.12179862398E+03  0.12392448423E+03  0.00000000000E+00 0.  1.
<scales pt_clust_5="13000.00000" pt_clust_6="13000.00000" pt_clust_7="13000.00000" pt_clust_8="13000.00000" pt_clust_9="44.06400" pt_clust_10="13000.00000"></scales>
<clustering>
<clus scale="   44.064">  2  9  1 -1</clus>
<clus scale="   72.472">  5  6 -1 -1</clus>
<clus scale="   80.646">  1  5  2 -1</clus>
<clus scale="   94.183">  7  8 -1 -1</clus>
<clus scale="   25.264">  7 10 -1 -1</clus>
<clus scale="   44.064">  2  5  1 -1</clus>
</clustering>
</event>
<event>
10    4  0.2866397E-005  0.1224546E+04  0.7546771E-02  0.9861202E-01
         21   -1    0    0  501  502  0.00000000000E+00  0.00000000000E+00  0.36681440284E+03  0.36681440284E+03  0.00000000000E+00 0. -1.
          2   -1    0    0  503    0 -0.00000000000E+00 -0.00000000000E+00 -0.19629533267E+04  0.19629533267E+04  0.00000000000E+00 0. -1.
         24    2    1    2    0    0  0.53339174704E+01 -0.34589039294E+01 -0.51449934647E+02  0.96060549949E+02  0.80871000917E+02 0.  0.
         23    2    1    2    0    0  0.54728415270E+02 -0.37275066258E+03 -0.17031630964E+04  0.17479786126E+04  0.11281152907E+03 0.  0.
        -11    1    3    3    0    0  0.23881546341E+02 -0.34714364183E+02 -0.15378306285E+02  0.44854293446E+02  0.00000000000E+00 0.  1.
         12    1    3    3    0    0 -0.18547628871E+02  0.31255460254E+02 -0.36071628362E+02  0.51206256503E+02  0.00000000000E+00 0. -1.
        -11    1    4    4    0    0 -0.29178840291E+01 -0.12818657494E+03 -0.37660228474E+03  0.39783111104E+03  0.00000000000E+00 0.  1.
         11    1    4    4    0    0  0.57646299299E+02 -0.24456408764E+03 -0.13265608117E+04  0.13501475015E+04  0.00000000000E+00 0. -1.
         21    1    1    2  503  502  0.36460450785E+02  0.58314328576E+02  0.13641519802E+03  0.15277117411E+03  0.00000000000E+00 0.  1.
          1    1    1    2  501    0 -0.96522783525E+02  0.31789523794E+03  0.22058909157E+02  0.33295739294E+03  0.00000000000E+00 0. -1.
<scales pt_clust_5="13000.00000" pt_clust_6="13000.00000" pt_clust_7="13000.00000" pt_clust_8="13000.00000" pt_clust_9="68.77445" pt_clust_10="13000.00000"></scales>
<clustering>
<clus scale="   68.774">  1  9  2 -1</clus>
<clus scale="   80.871">  5  6 -1 -1</clus>
<clus scale="   81.405">  2  5  1 -1</clus>
<clus scale="  112.812">  7  8 -1 -1</clus>
<clus scale="  370.735">  7 10 -1 -1</clus>
<clus scale="   68.774">  1  5  2 -1</clus>
</clustering>
</event>
<event>
10    4  0.2866397E-005  0.2740608E+03  0.7546771E-02  0.1118012E+00
          2   -1    0    0  503    0 -0.00000000000E+00  0.00000000000E+00  0.10290757888E+04  0.10290757888E+04  0.00000000000E+00 0. -1.
         21   -1    0    0  501  502  0.00000000000E+00 -0.00000000000E+00 -0.66975056040E+02  0.66975056040E+02  0.00000000000E+00 0.  1.
         24    2    1    2    0    0  0.42577552166E+02  0.10964449410E+03  0.12639932472E+03  0.19019911236E+03  0.79775622942E+02 0.  0.
         23    2    1    2    0    0 -0.15306467188E+02  0.10427034355E+02  0.13519725148E+03  0.16425929363E+03  0.91431984298E+02 0.  0.
        -11    1    3    3    0    0  0.44351964773E+02  0.12020830353E+03  0.12565549798E+03  0.17946152008E+03  0.00000000000E+00 0.  1.
         12    1    3    3    0    0 -0.17744126070E+01 -0.10563809428E+02  0.74382674527E+00  0.10737592279E+02  0.00000000000E+00 0. -1.
        -13    1    4    4    0    0 -0.48702326309E+02  0.25740850950E+02  0.94889505037E+02  0.10972021765E+03  0.00000000000E+00 0. -1.
         13    1    4    4    0    0  0.33395859121E+02 -0.15313816595E+02  0.40307746443E+02  0.54539075977E+02  0.00000000000E+00 0.  1.
         21    1    1    2  503  502  0.30501511466E+02  0.50045283260E+02  0.11391888219E+03  0.12811082818E+03  0.00000000000E+00 0.  1.
          1    1    1    2  501    0 -0.57772596445E+02 -0.17011681171E+03  0.58658527434E+03  0.61348161064E+03  0.00000000000E+00 0. -1.
<scales pt_clust_5="13000.00000" pt_clust_6="13000.00000" pt_clust_7="13000.00000" pt_clust_8="13000.00000" pt_clust_9="58.60782" pt_clust_10="13000.00000"></scales>
<clustering>
<clus scale="   58.608">  2  9  1 -1</clus>
<clus scale="   79.776">  5  6 -1 -1</clus>
<clus scale="   91.432">  7  8 -1 -1</clus>
<clus scale="  166.838">  7 10 -1 -1</clus>
<clus scale="  168.535">  1  5  2 -1</clus>
<clus scale="   58.608">  2  5  1 -1</clus>
</clustering>
</event>
<event>
10    4  0.2866397E-005  0.2262443E+03  0.7546771E-02  0.1172932E+00
         21   -1    0    0  501  502  0.00000000000E+00  0.00000000000E+00  0.76318601622E+03  0.76318601622E+03  0.00000000000E+00 0. -1.
          2   -1    0    0  503    0 -0.00000000000E+00 -0.00000000000E+00 -0.73188720824E+02  0.73188720824E+02  0.00000000000E+00 0. -1.
         24    2    1    2    0    0  0.19240432143E+02  0.91922976282E+01  0.43111190995E+03  0.43900112684E+03  0.80061338346E+02 0.  0.
         23    2    1    2    0    0 -0.63625243127E+02  0.58478807651E+02  0.11921539042E+03  0.17431991383E+03  0.93312274309E+02 0.  0.
        -11    1    3    3    0    0  0.38808273899E+01 -0.34641754214E+02  0.14416877919E+03  0.14832312311E+03  0.00000000000E+00 0.  1.
         12    1    3    3    0    0  0.15359604753E+02  0.43834051843E+02  0.28694313076E+03  0.29067800373E+03  0.00000000000E+00 0. -1.
        -11    1    4    4    0    0  0.14060907920E+02 -0.14719275926E+02  0.21515442346E+02  0.29618920889E+02  0.00000000000E+00 0.  1.
         11    1    4    4    0    0 -0.77686151046E+02  0.73198083577E+02  0.97699948074E+02  0.14470099294E+03  0.00000000000E+00 0. -1.
         21    1    1    2  503  502 -0.31454438096E+02 -0.26561973251E+02  0.12986419758E+03  0.13623373265E+03  0.00000000000E+00 0. -1.
          1    1    1    2  501    0  0.75839249080E+02 -0.41109132028E+02  0.98057974372E+01  0.86819963721E+02  0.00000000000E+00 0. -1.
<scales pt_clust_5="13000.00000" pt_clust_6="13000.00000" pt_clust_7="13000.00000" pt_clust_8="13000.00000" pt_clust_9="41.16941" pt_clust_10="13000.00000"></scales>
<clustering>
<clus scale="   41.169">  1  9  2 -1</clus>
<clus scale="   80.061">  5  6 -1 -1</clus>
<clus scale="   80.620">  2  5  1 -1</clus>
<clus scale="   93.312">  7  8 -1 -1</clus>
<clus scale="   86.736">  7 10 -1 -1</clus>
<clus scale="   41.169">  1  5  2 -1</clus>
</clustering>
</event>
<event>
10    4  0.2866397E-005  0.2014019E+03  0.7546771E-02  0.1173260E+00
         21   -1    0    0  501  502  0.00000000000E+00  0.00000000000E+00  0.22264994180E+03  0.22264994180E+03  0.00000000000E+00 0.  1.
          2   -1    0    0  503    0 -0.00000000000E+00 -0.00000000000E+00 -0.32099644806E+03  0.32099644806E+03  0.00000000000E+00 0. -1.
         24    2    1    2    0    0  0.25269210922E+02 -0.78230276006E+02 -0.22498763583E+03  0.25228965186E+03  0.79196736393E+02 0.  0.
         23    2    1    2    0    0 -0.71485555263E+02  0.93721550546E+02  0.16395593682E+02  0.15426811271E+03  0.98162729478E+02 0.  0.
        -11    1    3    3    0    0  0.35180112113E+02 -0.47049588867E+01 -0.42973417693E+02  0.55735909023E+02  0.00000000000E+00 0.  1.
         12    1    3    3    0    0 -0.99109011902E+01 -0.73525317119E+02 -0.18201421813E+03  0.19655374283E+03  0.00000000000E+00 0. -1.
        -11    1    4    4    0    0 -0.39155524642E+02  0.41883631209E+02 -0.40965353812E+02  0.70466686358E+02  0.00000000000E+00 0. -1.
         11    1    4    4    0    0 -0.32330030620E+02  0.51837919337E+02  0.57360947494E+02  0.83801426351E+02  0.00000000000E+00 0.  1.
         21    1    1    2  503  502  0.21882013142E+02  0.18164300805E+02  0.82184888484E+02  0.86966201585E+02  0.00000000000E+00 0.  1.
          1    1    1    2  501    0  0.24334331198E+02 -0.33655575345E+02  0.28060647400E+02  0.50122423716E+02  0.00000000000E+00 0. -1.
<scales pt_clust_5="13000.00000" pt_clust_6="13000.00000" pt_clust_7="13000.00000" pt_clust_8="13000.00000" pt_clust_9="28.43878" pt_clust_10="13000.00000"></scales>
<clustering>
<clus scale="   28.439">  1  9  2 -1</clus>
<clus scale="   79.197">  5  6 -1 -1</clus>
<clus scale="   98.163">  7  8 -1 -1</clus>
<clus scale="   41.774">  7 10 -1 -1</clus>
<clus scale="  113.432">  2  5  1 -1</clus>
<clus scale="   28.439">  1  5  2 -1</clus>
</clustering>
</event>
<event>
10    4  0.2866397E-005  0.3232513E+03  0.7546771E-02  0.1078226E+00
          2   -1    0    0  502    0 -0.00000000000E+00  0.00000000000E+00  0.59625947369E+03  0.59625947369E+03  0.00000000000E+00 0. -1.
         21   -1    0    0  503  502  0.00000000000E+00 -0.00000000000E+00 -0.21262305620E+03  0.21262305620E+03  0.00000000000E+00 0.  1.
         24    2    1    2    0    0 -0.13712078355E+03 -0.24783534078E+03  0.37306127157E+03  0.47507474036E+03  0.79352575007E+02 0.  0.
         23    2    1    2    0    0  0.20094940164E+02  0.88493427598E+02 -0.41741062890E+00  0.13033345701E+03  0.93550747914E+02 0.  0.
        -11    1    3    3    0    0 -0.66779996422E+02 -0.19314246082E+03  0.27432365416E+03  0.34207754286E+03  0.00000000000E+00 0.  1.
         12    1    3    3    0    0 -0.70340787128E+02 -0.54692879960E+02  0.98737617411E+02  0.13299719750E+03  0.00000000000E+00 0. -1.
        -11    1    4    4    0    0  0.31397830805E+02  0.52620273688E+02 -0.41981813783E+02  0.74277787196E+02  0.00000000000E+00 0. -1.
         11    1    4    4    0    0 -0.11302890642E+02  0.35873153910E+02  0.41564403154E+02  0.56055669810E+02  0.00000000000E+00 0.  1.
         21    1    1    2  503  501 -0.11221153125E+00  0.21673978760E+02 -0.42023125159E+01  0.22077893405E+02  0.00000000000E+00 0.  1.
          1    1    1    2  501    0  0.11713805492E+03  0.13766793442E+03  0.15194869060E+02  0.18139643911E+03  0.00000000000E+00 0. -1.
<scales pt_clust_5="13000.00000" pt_clust_6="13000.00000" pt_clust_7="13000.00000" pt_clust_8="13000.00000" pt_clust_9="21.67427" pt_clust_10="13000.00000"></scales>
<clustering>
<clus scale="   21.674">  2  9  1 -1</clus>
<clus scale="   79.353">  5  6 -1 -1</clus>
<clus scale="   93.551">  7  8 -1 -1</clus>
<clus scale="  187.698">  7 10 -1 -1</clus>
<clus scale="  289.505">  1  5  2 -1</clus>
<clus scale="   21.674">  2  5  1 -1</clus>
</clustering>
</event>
<event>
10    4  0.2866397E-005  0.2112897E+03  0.7546771E-02  0.1159286E+00
          2   -1    0    0  502    0 -0.00000000000E+00  0.00000000000E+00  0.73268328718E+03  0.73268328718E+03  0.00000000000E+00 0. -1.
         21   -1    0    0  503  502  0.00000000000E+00 -0.00000000000E+00 -0.12873988337E+03  0.12873988337E+03  0.00000000000E+00 0. -1.
         24    2    1    2    0    0  0.12033784077E+03 -0.79610997287E+02  0.23280739168E+03  0.28969955951E+03  0.94379268641E+02 0.  0.
         23    2    1    2    0    0 -0.15248787348E+02 -0.39891471827E+02  0.34573226334E+03  0.36883761714E+03  0.12118801449E+03 0.  0.
        -13    1    3    3    0    0  0.54469484783E+01 -0.33438737063E+02  0.10909983778E+02  0.35592781995E+02  0.00000000000E+00 0.  1.
         14    1    3    3    0    0  0.11489089229E+03 -0.46172260224E+02  0.22189740790E+03  0.25410677752E+03  0.00000000000E+00 0. -1.
        -11    1    4    4    0    0  0.17754351205E+02 -0.71607276114E+02  0.27389724882E+03  0.28365916500E+03  0.00000000000E+00 0.  1.
         11    1    4    4    0    0 -0.33003138553E+02  0.31715804288E+02  0.71835014529E+02  0.85178452136E+02  0.00000000000E+00 0. -1.
         21    1    1    2  503  501 -0.47343675608E+02  0.10638042321E+03 -0.31640549334E+02  0.12066210020E+03  0.00000000000E+00 0. -1.
          1    1    1    2  501    0 -0.57745377815E+02  0.13122045903E+02  0.57044298122E+02  0.82223893704E+02  0.00000000000E+00 0. -1.
<scales pt_clust_5="13000.00000" pt_clust_6="13000.00000" pt_clust_7="13000.00000" pt_clust_8="13000.00000" pt_clust_9="116.43976" pt_clust_10="13000.00000"></scales>
<clustering>
<clus scale="   94.379">  5  6 -1 -1</clus>
<clus scale="  116.440">  2  9  1 -1</clus>
<clus scale="  121.188">  7  8 -1 -1</clus>
<clus scale="   79.127">  7 10 -1 -1</clus>
<clus scale="  135.529">  1  5  2 -1</clus>
<clus scale="  116.440">  2  5  1 -1</clus>
</clustering>
</event>
<event>
10    4  0.2866397E-005  0.6984289E+03  0.7546771E-02  0.1032656E+00
         21   -1    0    0  503  502  0.00000000000E+00  0.00000000000E+00  0.19941335412E+03  0.19941335412E+03  0.00000000000E+00 0. -1.
          2   -1    0    0  502    0 -0.00000000000E+00 -0.00000000000E+00 -0.10215843580E+04  0.10215843580E+04  0.00000000000E+00 0. -1.
         24    2    1    2    0    0  0.57642879018E+02  0.15712739088E+01 -0.11571172710E+03  0.15207032740E+03  0.80068784698E+02 0.  0.
         23    2    1    2    0    0  0.61539930031E+02  0.30535755644E+03 -0.25431814872E+03  0.41276006019E+03  0.93073875271E+02 0.  0.
        -11    1    3    3    0    0  0.61369609999E+02 -0.97926322218E+01 -0.12318115299E+03  0.13797000083E+03  0.00000000000E+00 0.  1.
         12    1    3    3    0    0 -0.37267309809E+01  0.11363906131E+02  0.74694258849E+01  0.14100326571E+02  0.00000000000E+00 0. -1.
        -13    1    4    4    0    0  0.33946327269E+02  0.64563965290E+02 -0.19984729831E+02  0.75632322293E+02  0.00000000000E+00 0. -1.
         13    1    4    4    0    0  0.27593602761E+02  0.24079359115E+03 -0.23433341889E+03  0.33712773790E+03  0.00000000000E+00 0.  1.
         21    1    1    2  503  501  0.80047286100E+02  0.14600103262E+02 -0.23917594465E+02  0.84810272682E+02  0.00000000000E+00 0. -1.
          1    1    1    2  501    0 -0.19923009515E+03 -0.32152893361E+03 -0.42822353355E+03  0.57135705181E+03  0.00000000000E+00 0. -1.
<scales pt_clust_5="13000.00000" pt_clust_6="13000.00000" pt_clust_7="13000.00000" pt_clust_8="13000.00000" pt_clust_9="81.36787" pt_clust_10="13000.00000"></scales>
<clustering>
<clus scale="   80.069">  5  6 -1 -1</clus>
<clus scale="   81.368">  1  9  2 -1</clus>
<clus scale="   93.074">  7  8 -1 -1</clus>
<clus scale="  103.974">  2  5  1 -1</clus>
<clus scale="  339.340">  7 10 -1 -1</clus>
<clus scale="   81.368">  1  5  2 -1</clus>
</clustering>
</event>
<event>
10    4  0.2866397E-005  0.1578537E+03  0.7546771E-02  0.1212018E+00
          2   -1    0    0  503    0 -0.00000000000E+00  0.00000000000E+00  0.45210298712E+02  0.45210298712E+02  0.00000000000E+00 0. -1.
         21   -1    0    0  501  502  0.00000000000E+00 -0.00000000000E+00 -0.56870469429E+03  0.56870469429E+03  0.00000000000E+00 0. -1.
         24    2    1    2    0    0  0.94025793918E+01 -0.37740628712E+02 -0.22171325258E+03  0.23892001664E+03  0.80082734864E+02 0.  0.
         23    2    1    2    0    0  0.12522633654E+02  0.13559664751E+02 -0.75222740984E+02  0.11978751587E+03  0.91377827370E+02 0.  0.
        -11    1    3    3    0    0 -0.35603275905E+02 -0.16959333659E+02 -0.95729784926E+02  0.10353455450E+03  0.00000000000E+00 0.  1.
         12    1    3    3    0    0  0.45005855296E+02 -0.20781295053E+02 -0.12598346766E+03  0.13538546214E+03  0.00000000000E+00 0. -1.
        -11    1    4    4    0    0  0.48581960636E+02  0.19867068404E+02 -0.26363987536E+02  0.58736420941E+02  0.00000000000E+00 0. -1.
         11    1    4    4    0    0 -0.36059326982E+02 -0.63074036526E+01 -0.48858753448E+02  0.61051094927E+02  0.00000000000E+00 0.  1.
         21    1    1    2  503  502 -0.25280304659E+01 -0.42660293834E+02 -0.12488305984E+03  0.13199269011E+03  0.00000000000E+00 0. -1.
          1    1    1    2  501    0 -0.19397182580E+02  0.66841257795E+02 -0.10167534217E+03  0.12321477038E+03  0.00000000000E+00 0. -1.
<scales pt_clust_5="13000.00000" pt_clust_6="13000.00000" pt_clust_7="13000.00000" pt_clust_8="13000.00000" pt_clust_9="42.73513" pt_clust_10="13000.00000"></scales>
<clustering>
<clus scale="   42.735">  2  9  1 -1</clus>
<clus scale="   80.083">  5  6 -1 -1</clus>
<clus scale="   91.378">  7  8 -1 -1</clus>
<clus scale="   59.428">  7 10 -1 -1</clus>
<clus scale="  100.426">  1  5  2 -1</clus>
<clus scale="   42.735">  2  5  1 -1</clus>
</clustering>
</event>
<event>
10    4  0.2866397E-005  0.3197995E+03  0.7546771E-02  0.1107828E+00
         21   -1    0    0  503  502  0.00000000000E+00  0.00000000000E+00  0.12781572315E+03  0.12781572315E+03  0.00000000000E+00 0. -1.
          2   -1    0    0  502    0 -0.00000000000E+00 -0.00000000000E+00 -0.75014911916E+03  0.75014911916E+03  0.00000000000E+00 0. -1.
         24    2    1    2    0    0 -0.88667024088E+02 -0.17032429218E+01 -0.12115987126E+02  0.12280230773E+03  0.84076557034E+02 0.  0.
         23    2    1    2    0    0 -0.54936376893E+02  0.50342627503E+02 -0.38339415948E+03  0.40137646709E+03  0.92518112634E+02 0.  0.
        -13    1    3    3    0    0 -0.68562495567E+02 -0.31182133369E+02 -0.32134241120E+02  0.81888648128E+02  0.00000000000E+00 0.  1.
         14    1    3    3    0    0 -0.20104528521E+02  0.29478890448E+02  0.20018253994E+02  0.40913659602E+02  0.00000000000E+00 0. -1.
        -11    1    4    4    0    0 -0.75654646129E+01  0.67699384232E+02 -0.23229908601E+03  0.24208120175E+03  0.00000000000E+00 0.  1.
         11    1    4    4    0    0 -0.47370912280E+02 -0.17356756730E+02 -0.15109507347E+03  0.15929526534E+03  0.00000000000E+00 0. -1.
         21    1    1    2  503  501 -0.33908728303E+02  0.88286629952E+00  0.24709562292E+02  0.41965983567E+02  0.00000000000E+00 0. -1.
          1    1    1    2  501    0  0.17751212928E+03 -0.49522250881E+02 -0.25153281170E+03  0.31182008392E+03  0.00000000000E+00 0. -1.
<scales pt_clust_5="13000.00000" pt_clust_6="13000.00000" pt_clust_7="13000.00000" pt_clust_8="13000.00000" pt_clust_9="33.92022" pt_clust_10="13000.00000"></scales>
<clustering>
<clus scale="   33.920">  1  9  2 -1</clus>
<clus scale="   84.077">  5  6 -1 -1</clus>
<clus scale="   92.518">  7  8 -1 -1</clus>
<clus scale="  137.292">  2  5  1 -1</clus>
<clus scale="  134.490">  7 10 -1 -1</clus>
<clus scale="   33.920">  1  5  2 -1</clus>
</clustering>
</event>
<event>
10    4  0.2866397E-005  0.5268647E+03  0.7546771E-02  0.1053336E+00
          2   -1    0    0  503    0 -0.00000000000E+00  0.00000000000E+00  0.91507110198E+03  0.91507110198E+03  0.00000000000E+00 0. -1.
         21   -1    0    0  501  502  0.00000000000E+00 -0.00000000000E+00 -0.20473022402E+03  0.20473022402E+03  0.00000000000E+00 0.  1.
         24    2    1    2    0    0 -0.24640421522E+02  0.99350712673E+02  0.28751713672E+03  0.31555879231E+03  0.80209307524E+02 0.  0.
         23    2    1    2    0    0 -0.14972039281E+03  0.13288741587E+03  0.74888614970E+02  0.23229344978E+03  0.90976265246E+02 0.  0.
        -13    1    3    3    0    0 -0.50280033221E+02  0.62272228386E+02  0.22237126107E+03  0.23633639144E+03  0.00000000000E+00 0.  1.
         14    1    3    3    0    0  0.25639611699E+02  0.37078484287E+02  0.65145875652E+02  0.79222400870E+02  0.00000000000E+00 0. -1.
        -11    1    4    4    0    0 -0.10255010518E+03  0.69441664530E+02  0.66374588472E+00  0.12385115826E+03  0.00000000000E+00 0.  1.
         11    1    4    4    0    0 -0.47170287636E+02  0.63445751336E+02  0.74224869086E+02  0.10844229152E+03  0.00000000000E+00 0. -1.
         21    1    1    2  503  502  0.10536850987E+03  0.64059749771E+02  0.20515233905E+02  0.12500819667E+03  0.00000000000E+00 0.  1.
          1    1    1    2  501    0  0.68992304462E+02 -0.29629787831E+03  0.32741989237E+03  0.44694088724E+03  0.00000000000E+00 0. -1.
<scales pt_clust_5="13000.00000" pt_clust_6="13000.00000" pt_clust_7="13000.00000" pt_clust_8="13000.00000" pt_clust_9="123.31332" pt_clust_10="13000.00000"></scales>
<clustering>
<clus scale="   80.209">  5  6 -1 -1</clus>
<clus scale="   90.976">  7  8 -1 -1</clus>
<clus scale="  123.313">  2  9  1 -1</clus>
<clus scale="  133.164">  1  5  2 -1</clus>
<clus scale="  226.193">  7 10 -1 -1</clus>
<clus scale="  123.313">  2  5  1 -1</clus>
</clustering>
</event>
<event>
10    4  0.2866397E-005  0.6697469E+03  0.7546771E-02  0.1006303E+00
          2   -1    0    0  502    0 -0.00000000000E+00  0.00000000000E+00  0.29754022830E+04  0.29754022830E+04  0.00000000000E+00 0. -1.
         21   -1    0    0  503  502  0.00000000000E+00 -0.00000000000E+00 -0.50455468509E+03  0.50455468509E+03  0.00000000000E+00 0.  1.
         24    2    1    2    0    0 -0.11751275142E+03  0.12078617582E+03  0.33376386970E+02  0.18803918144E+03  0.76460470393E+02 0.  0.
         23    2    1    2    0    0 -0.12005438684E+02  0.61998230382E+02  0.71808571621E+02  0.13159601812E+03  0.90405364329E+02 0.  0.
        -13    1    3    3    0    0 -0.10614172310E+02  0.21075532977E+02 -0.21472723479E+02  0.31904805244E+02  0.00000000000E+00 0.  1.
         14    1    3    3    0    0 -0.10689857911E+03  0.99710642843E+02  0.54849110448E+02  0.15613437619E+03  0.00000000000E+00 0. -1.
        -11    1    4    4    0    0 -0.37528231378E+02  0.61281145126E+02  0.77233778655E+02  0.10549314415E+03  0.00000000000E+00 0.  1.
         11    1    4    4    0    0  0.25522792693E+02  0.71708525609E+00 -0.54252070339E+01  0.26102873970E+02  0.00000000000E+00 0. -1.
         21    1    1    2  503  501 -0.19942214519E+02  0.14339716686E+03 -0.37203539188E+03  0.39921269043E+03  0.00000000000E+00 0.  1.
          1    1    1    2  501    0  0.14946040462E+03 -0.32618157306E+03  0.27376980312E+04  0.27611090781E+04  0.00000000000E+00 0. -1.
<scales pt_clust_5="13000.00000" pt_clust_6="13000.00000" pt_clust_7="13000.00000" pt_clust_8="13000.00000" pt_clust_9="144.77721" pt_clust_10="13000.00000"></scales>
<clustering>
<clus scale="   76.460">  5  6 -1 -1</clus>
<clus scale="   90.405">  7  8 -1 -1</clus>
<clus scale="  144.777">  2  9  1 -1</clus>
<clus scale="  262.066">  1  5  2 -1</clus>
<clus scale="  114.080">  7 10 -1 -1</clus>
<clus scale="  144.777">  2  5  1 -1</clus>
</clustering>
</event>
<event>
10    4  0.2866397E-005  0.3597856E+03  0.7546771E-02  0.1085723E+00
         -3   -1    0    0    0  501 -0.00000000000E+00  0.00000000000E+00  0.83155603261E+03  0.83155603261E+03  0.00000000000E+00 0.  1.
         21   -1    0    0  503  502  0.00000000000E+00 -0.00000000000E+00 -0.19408320014E+03  0.19408320014E+03  0.00000000000E+00 0.  1.
         24    2    1    2    0    0 -0.96700238460E+02  0.87110587012E+02  0.15446769191E+03  0.21691564255E+03  0.79075518671E+02 0.  0.
         23    2    1    2    0    0 -0.58699497266E+01 -0.14446338652E+03  0.11269747303E+03  0.20364678542E+03  0.88697048590E+02 0.  0.
        -11    1    3    3    0    0 -0.10770265571E+03  0.80831180233E+02  0.15352221718E+03  0.20421217621E+03  0.00000000000E+00 0.  1.
         12    1    3    3    0    0  0.11002417247E+02  0.62794067789E+01  0.94547473210E+00  0.12703466347E+02  0.00000000000E+00 0. -1.
        -11    1    4    4    0    0  0.22888007515E+02 -0.73511594894E+02  0.99740230846E+02  0.12599971873E+03  0.00000000000E+00 0. -1.
         11    1    4    4    0    0 -0.28757957242E+02 -0.70951791624E+02  0.12957242188E+02  0.77647066683E+02  0.00000000000E+00 0.  1.
         21    1    1    2  503  501 -0.40915722369E+02  0.47656275615E+02 -0.97323056859E+02  0.11583175013E+03  0.00000000000E+00 0.  1.
         -4    1    1    2    0  502  0.14348591056E+03  0.96965238912E+01  0.46763072438E+03  0.48924505464E+03  0.00000000000E+00 0.  1.
<scales pt_clust_5="13000.00000" pt_clust_6="13000.00000" pt_clust_7="13000.00000" pt_clust_8="13000.00000" pt_clust_9="62.81096" pt_clust_10="13000.00000"></scales>
<clustering>
<clus scale="   62.811">  2  9  1 -1</clus>
<clus scale="   79.076">  5  6 -1 -1</clus>
<clus scale="   88.697">  7  8 -1 -1</clus>
<clus scale="  139.307">  7 10 -1 -1</clus>
<clus scale="  171.699">  1  5  2 -1</clus>
<clus scale="   62.811">  2  5  1 -1</clus>
</clustering>
</event>
<event>
10    4  0.2866397E-005  0.3261959E+03  0.7546771E-02  0.1079895E+00
         21   -1    0    0  501  502  0.00000000000E+00  0.00000000000E+00  0.12591942061E+03  0.12591942061E+03  0.00000000000E+00 0. -1.
          2   -1    0    0  503    0 -0.00000000000E+00 -0.00000000000E+00 -0.11011195802E+04  0.11011195802E+04  0.00000000000E+00 0. -1.
         24    2    1    2    0    0  0.24968968636E+03 -0.22562098558E+02 -0.58228209266E+03  0.63886698392E+03  0.79022781215E+02 0.  0.
         23    2    1    2    0    0 -0.10519060542E+03 -0.15972932033E+02 -0.29874319122E+03  0.33053143193E+03  0.93184414807E+02 0.  0.
        -13    1    3    3    0    0  0.79180943556E+02  0.19720491509E+02 -0.25036921118E+03  0.26333108726E+03  0.00000000000E+00 0.  1.
         14    1    3    3    0    0  0.17050874281E+03 -0.42282590067E+02 -0.33191288147E+03  0.37553589667E+03  0.00000000000E+00 0. -1.
        -11    1    4    4    0    0 -0.42995347865E+02  0.28258941027E+02 -0.19540793367E+03  0.20206788025E+03  0.00000000000E+00 0.  1.
         11    1    4    4    0    0 -0.62195257556E+02 -0.44231873060E+02 -0.10333525755E+03  0.12846355168E+03  0.00000000000E+00 0. -1.
         21    1    1    2  503  502  0.19900178386E+02 -0.98405203095E+01  0.36097247159E+02  0.42377637879E+02  0.00000000000E+00 0. -1.
          1    1    1    2  501    0 -0.16439925933E+03  0.48375550901E+02 -0.13027212289E+03  0.21526294710E+03  0.00000000000E+00 0. -1.
<scales pt_clust_5="13000.00000" pt_clust_6="13000.00000" pt_clust_7="13000.00000" pt_clust_8="13000.00000" pt_clust_9="22.20029" pt_clust_10="13000.00000"></scales>
<clustering>
<clus scale="   22.200">  1  9  2 -1</clus>
<clus scale="   79.023">  5  6 -1 -1</clus>
<clus scale="   93.184">  7  8 -1 -1</clus>
<clus scale="  160.659">  7 10 -1 -1</clus>
<clus scale="  269.332">  2  5  1 -1</clus>
<clus scale="   22.200">  1  5  2 -1</clus>
</clustering>
</event>
<event>
10    4  0.2866397E-005  0.5224112E+03  0.7546771E-02  0.1070690E+00
         21   -1    0    0  503  502  0.00000000000E+00  0.00000000000E+00  0.81941585470E+03  0.81941585470E+03  0.00000000000E+00 0. -1.
          2   -1    0    0  502    0 -0.00000000000E+00 -0.00000000000E+00 -0.62369262214E+03  0.62369262214E+03  0.00000000000E+00 0. -1.
         24    2    1    2    0    0  0.19645796648E+02 -0.17569035847E+02 -0.10722567871E+03  0.13633662161E+03  0.79973119683E+02 0.  0.
         23    2    1    2    0    0 -0.32859953244E+02  0.69426216640E+01  0.64175275383E+02  0.11412822531E+03  0.88197558459E+02 0.  0.
        -11    1    3    3    0    0  0.26387758423E+02 -0.27221205850E+02 -0.11575034300E+03  0.12180086103E+03  0.00000000000E+00 0.  1.
         12    1    3    3    0    0 -0.67419617756E+01  0.96521700031E+01  0.85246642951E+01  0.14535760582E+02  0.00000000000E+00 0. -1.
        -13    1    4    4    0    0 -0.11584778801E+02  0.35910401786E+02 -0.30940509000E+01  0.37859440135E+02  0.00000000000E+00 0.  1.
         13    1    4    4    0    0 -0.21275174443E+02 -0.28967780123E+02  0.67269326283E+02  0.76268785171E+02  0.00000000000E+00 0. -1.
         21    1    1    2  503  501 -0.28619551945E+03 -0.23680759097E+02  0.63377683991E+03  0.69580294374E+03  0.00000000000E+00 0. -1.
          1    1    1    2  501    0  0.29940967604E+03  0.34307173279E+02 -0.39500320404E+03  0.49684068618E+03  0.00000000000E+00 0. -1.
<scales pt_clust_5="13000.00000" pt_clust_6="13000.00000" pt_clust_7="13000.00000" pt_clust_8="13000.00000" pt_clust_9="286.05574" pt_clust_10="13000.00000"></scales>
<clustering>
<clus scale="   79.973">  5  6 -1 -1</clus>
<clus scale="   84.204">  2  5  1 -1</clus>
<clus scale="   88.198">  7  8 -1 -1</clus>
<clus scale="  286.056">  1  9  2 -1</clus>
<clus scale="  201.895">  7 10 -1 -1</clus>
<clus scale="  286.056">  1  5  2 -1</clus>
</clustering>
</event>
<event>
10    4  0.2866397E-005  0.4695798E+03  0.7546771E-02  0.1078671E+00
         21   -1    0    0  501  502  0.00000000000E+00  0.00000000000E+00  0.82837317896E+03  0.82837317896E+03  0.00000000000E+00 0. -1.
          2   -1    0    0  503    0 -0.00000000000E+00 -0.00000000000E+00 -0.11067659032E+03  0.11067659032E+03  0.00000000000E+00 0. -1.
         24    2    1    2    0    0  0.24712163252E+02 -0.35501720287E+02  0.62090388091E+02  0.11101306945E+03  0.81225748003E+02 0.  0.
         23    2    1    2    0    0  0.33558827282E+02 -0.11713040053E+03  0.53110622561E+03  0.55250808135E+03  0.91354427704E+02 0.  0.
        -13    1    3    3    0    0  0.47989140479E+02  0.14127433895E+01  0.37513468880E+02  0.60927939365E+02  0.00000000000E+00 0.  1.
         14    1    3    3    0    0 -0.23276977227E+02 -0.36914463677E+02  0.24576919211E+02  0.50085130082E+02  0.00000000000E+00 0. -1.
        -11    1    4    4    0    0 -0.10762533795E+02 -0.80342566211E+02  0.18994222705E+03  0.20651588243E+03  0.00000000000E+00 0.  1.
         11    1    4    4    0    0  0.44321361077E+02 -0.36787834317E+02  0.34116399856E+03  0.34599219893E+03  0.00000000000E+00 0. -1.
         21    1    1    2  503  502  0.14361526808E+02 -0.17990872597E+02  0.82150847731E+02  0.85315219815E+02  0.00000000000E+00 0.  1.
          1    1    1    2  501    0 -0.72632517342E+02  0.17062299341E+03  0.42349127207E+02  0.19021339866E+03  0.00000000000E+00 0. -1.
<scales pt_clust_5="13000.00000" pt_clust_6="13000.00000" pt_clust_7="13000.00000" pt_clust_8="13000.00000" pt_clust_9="23.02010" pt_clust_10="13000.00000"></scales>
<clustering>
<clus scale="   23.020">  1  9  2 -1</clus>
<clus scale="   81.226">  5  6 -1 -1</clus>
<clus scale="   91.354">  7  8 -1 -1</clus>
<clus scale="   93.310">  2  5  1 -1</clus>
<clus scale="  144.669">  7 10 -1 -1</clus>
<clus scale="   23.020">  1  5  2 -1</clus>
</clustering>
</event>
<event>
10    4  0.2866397E-005  0.1705620E+03  0.7546771E-02  0.1183556E+00
          4   -1    0    0  503    0 -0.00000000000E+00  0.00000000000E+00  0.67798239992E+03  0.67798239992E+03  0.00000000000E+00 0. -1.
         21   -1    0    0  501  502  0.00000000000E+00 -0.00000000000E+00 -0.51232561276E+02  0.51232561276E+02  0.00000000000E+00 0.  1.
         24    2    1    2    0    0  0.12296937084E+02  0.13948567588E+03  0.36155758306E+03  0.39573004554E+03  0.79189106812E+02 0.  0.
         23    2    1    2    0    0  0.15276734620E+02 -0.35633342885E+02  0.13920687007E+03  0.16136856906E+03  0.71820252436E+02 0.  0.
        -13    1    3    3    0    0  0.17940552728E+01  0.13192559302E+03  0.24334346312E+03  0.27680972124E+03  0.00000000000E+00 0.  1.
         14    1    3    3    0    0  0.10502881811E+02  0.75600828592E+01  0.11821411994E+03  0.11892032430E+03  0.00000000000E+00 0. -1.
        -13    1    4    4    0    0 -0.28266391018E+02 -0.22343128863E+02  0.58445121336E+02  0.68658841211E+02  0.00000000000E+00 0.  1.
         13    1    4    4    0    0  0.43543125638E+02 -0.13290214023E+02  0.80761748731E+02  0.92709727845E+02  0.00000000000E+00 0. -1.
         21    1    1    2  503  502  0.15043755290E+01 -0.34812848401E+02  0.14370825627E+02  0.37692415533E+02  0.00000000000E+00 0. -1.
          3    1    1    2  501    0 -0.29078047233E+02 -0.69039484591E+02  0.11161455989E+03  0.13442393106E+03  0.00000000000E+00 0. -1.
<scales pt_clust_5="13000.00000" pt_clust_6="13000.00000" pt_clust_7="13000.00000" pt_clust_8="13000.00000" pt_clust_9="34.84534" pt_clust_10="13000.00000"></scales>
<clustering>
<clus scale="   34.845">  2  9  1 -1</clus>
<clus scale="   71.820">  7  8 -1 -1</clus>
<clus scale="   79.189">  5  6 -1 -1</clus>
<clus scale="   84.101">  7 10 -1 -1</clus>
<clus scale="  148.079">  1  5  2 -1</clus>
<clus scale="   34.845">  2  5  1 -1</clus>
</clustering>
</event>
<event>
10    4  0.2866397E-005  0.1763261E+03  0.7546771E-02  0.1204154E+00
         21   -1    0    0  503  502  0.00000000000E+00  0.00000000000E+00  0.20056767205E+02  0.20056767205E+02  0.00000000000E+00 0.  1.
          2   -1    0    0  502    0 -0.00000000000E+00 -0.00000000000E+00 -0.17308495346E+04  0.17308495346E+04  0.00000000000E+00 0. -1.
         24    2    1    2    0    0  0.38504213301E+01 -0.70956361572E+01 -0.49993512623E+03  0.50659400061E+03  0.81468872707E+02 0.  0.
         23    2    1    2    0    0 -0.34027344551E+02  0.36646706085E+02 -0.48123326429E+03  0.49329935522E+03  0.96218282882E+02 0.  0.
        -11    1    3    3    0    0 -0.30014130957E+01  0.36925695177E+02 -0.20669952825E+03  0.20999335805E+03  0.00000000000E+00 0.  1.
         12    1    3    3    0    0  0.68518344258E+01 -0.44021331334E+02 -0.29323559798E+03  0.29660064256E+03  0.00000000000E+00 0. -1.
        -13    1    4    4    0    0  0.15062841843E+02 -0.19794617813E+02 -0.52561869489E+02  0.58150375948E+02  0.00000000000E+00 0.  1.
         13    1    4    4    0    0 -0.49090186394E+02  0.56441323899E+02 -0.42867139480E+03  0.43514897928E+03  0.00000000000E+00 0. -1.
         21    1    1    2  503  501 -0.38097673665E+02 -0.60491604672E+02 -0.14566160839E+03  0.16225896318E+03  0.00000000000E+00 0.  1.
          1    1    1    2  501    0  0.68274596886E+02  0.30940534744E+02 -0.58396276849E+03  0.58875398279E+03  0.00000000000E+00 0. -1.
<scales pt_clust_5="13000.00000" pt_clust_6="13000.00000" pt_clust_7="13000.00000" pt_clust_8="13000.00000" pt_clust_9="71.48893" pt_clust_10="13000.00000"></scales>
<clustering>
<clus scale="   71.489">  1  9  2 -1</clus>
<clus scale="   81.469">  5  6 -1 -1</clus>
<clus scale="   85.277">  2  5  1 -1</clus>
<clus scale="   96.218">  7  8 -1 -1</clus>
<clus scale="   58.220">  7 10 -1 -1</clus>
<clus scale="   71.489">  1  5  2 -1</clus>
</clustering>
</event>
<event>
10    4  0.9231201E-005  0.2562642E+03  0.7546771E-02  0.1154574E+00
         21   -1    0    0  501  502  0.00000000000E+00  0.00000000000E+00  0.61014234125E+03  0.61014234125E+03  0.00000000000E+00 0.  1.
          2   -1    0    0  503    0 -0.00000000000E+00 -0.00000000000E+00 -0.59991336174E+03  0.59991336174E+03  0.00000000000E+00 0. -1.
         24    2    1    2    0    0  0.31276120696E+02 -0.12995061842E+02 -0.10212951611E+02  0.85432067800E+02  0.77764172149E+02 0.  0.
         23    2    1    2    0    0 -0.25258088236E+02  0.29501429646E+02 -0.15887226598E+03  0.18907318847E+03  0.94868162880E+02 0.  0.
        -13    1    3    3    0    0  0.48559467975E+02 -0.29817553958E+02 -0.18528616879E+02  0.59920097609E+02  0.00000000000E+00 0.  1.
         14    1    3    3    0    0 -0.17283347279E+02  0.16822492117E+02  0.83156652682E+01  0.25511970191E+02  0.00000000000E+00 0. -1.
        -13    1    4    4    0    0  0.58532564160E+01  0.51601393749E+02 -0.44125777312E+02  0.68147257252E+02  0.00000000000E+00 0.  1.
         13    1    4    4    0    0 -0.31111344652E+02 -0.22099964104E+02 -0.11474648867E+03  0.12092593122E+03  0.00000000000E+00 0. -1.
         21    1    1    2  503  502 -0.13793975338E+03 -0.43324600151E+02  0.53555181809E+03  0.55472528913E+03  0.00000000000E+00 0.  1.
          1    1    1    2  501    0  0.13192172092E+03  0.26818232347E+02 -0.35623762100E+03  0.38082515759E+03  0.00000000000E+00 0. -1.
<scales pt_clust_5="13000.00000" pt_clust_6="13000.00000" pt_clust_7="13000.00000" pt_clust_8="13000.00000" pt_clust_9="144.13350" pt_clust_10="13000.00000"></scales>
<clustering>
<clus scale="   77.764">  5  6 -1 -1</clus>
<clus scale="   84.819">  2  5  1 -1</clus>
<clus scale="   94.868">  7  8 -1 -1</clus>
<clus scale="  144.134">  1  9  2 -1</clus>
<clus scale="   81.066">  7 10 -1 -1</clus>
<clus scale="  144.134">  1  5  2 -1</clus>
</clustering>
</event>
<event>
10    4  0.2866397E-005  0.2717509E+03  0.7546771E-02  0.1124715E+00
         21   -1    0    0  503  502  0.00000000000E+00  0.00000000000E+00  0.60384072974E+03  0.60384072974E+03  0.00000000000E+00 0. -1.
          2   -1    0    0  502    0 -0.00000000000E+00 -0.00000000000E+00 -0.71297791343E+03  0.71297791343E+03  0.00000000000E+00 0. -1.
         24    2    1    2    0    0 -0.48230185653E+02 -0.44432530412E+02  0.19233343168E+03  0.21769886715E+03  0.78104079598E+02 0.  0.
         23    2    1    2    0    0  0.42280193546E+01  0.11864846312E+02 -0.82199839322E+02  0.12475757103E+03  0.92999931282E+02 0.  0.
        -13    1    3    3    0    0 -0.31926147839E+02 -0.11347111094E+01  0.16648573204E+02  0.36024179031E+02  0.00000000000E+00 0.  1.
         14    1    3    3    0    0 -0.16304037814E+02 -0.43297819303E+02  0.17568485848E+03  0.18167468812E+03  0.00000000000E+00 0. -1.
        -13    1    4    4    0    0 -0.24059910487E+02 -0.17007777518E+02 -0.78876985896E+02  0.84200491049E+02  0.00000000000E+00 0.  1.
         13    1    4    4    0    0  0.28287929842E+02  0.28872623830E+02 -0.33228534254E+01  0.40557079979E+02  0.00000000000E+00 0. -1.
         21    1    1    2  503  501  0.56120427343E+01 -0.80912123802E+02  0.36706215537E+03  0.37591607136E+03  0.00000000000E+00 0. -1.
          1    1    1    2  501    0  0.38390123565E+02  0.11347980790E+03 -0.58633293142E+03  0.59844613363E+03  0.00000000000E+00 0. -1.
<scales pt_clust_5="13000.00000" pt_clust_6="13000.00000" pt_clust_7="13000.00000" pt_clust_8="13000.00000" pt_clust_9="81.10652" pt_clust_10="13000.00000"></scales>
<clustering>
<clus scale="   78.104">  5  6 -1 -1</clus>
<clus scale="   81.107">  1  9  2 -1</clus>
<clus scale="   93.000">  7  8 -1 -1</clus>
<clus scale="  117.849">  7 10 -1 -1</clus>
<clus scale="  146.249">  2  5  1 -1</clus>
<clus scale="   81.107">  1  5  2 -1</clus>
</clustering>
</event>
<event>
10    4  0.2866397E-005  0.3305549E+03  0.7546771E-02  0.1086941E+00
          2   -1    0    0  503    0 -0.00000000000E+00  0.00000000000E+00  0.21643149863E+03  0.21643149863E+03  0.00000000000E+00 0. -1.
         21   -1    0    0  501  502  0.00000000000E+00 -0.00000000000E+00 -0.48275338564E+03  0.48275338564E+03  0.00000000000E+00 0. -1.
         24    2    1    2    0    0  0.14064165531E+03  0.12432741441E+03 -0.18566909224E+03  0.27377457712E+03  0.72402528166E+02 0.  0.
         23    2    1    2    0    0 -0.35211419366E+02 -0.98616994731E+02 -0.12007865540E+03  0.18317776143E+03  0.90388346026E+02 0.  0.
        -13    1    3    3    0    0  0.24095590197E+01  0.25185394864E+02 -0.50564047820E+02  0.56540543162E+02  0.00000000000E+00 0.  1.
         14    1    3    3    0    0  0.13823209629E+03  0.99142019546E+02 -0.13510504442E+03  0.21723403396E+03  0.00000000000E+00 0. -1.
        -11    1    4    4    0    0 -0.64126553522E+02 -0.52629682594E+02 -0.83389707491E+02  0.11762627968E+03  0.00000000000E+00 0.  1.
         11    1    4    4    0    0  0.28915134157E+02 -0.45987312137E+02 -0.36688947906E+02  0.65551481748E+02  0.00000000000E+00 0. -1.
         21    1    1    2  503  502 -0.19661529960E+02  0.53768965127E+02 -0.64179610397E+02  0.86004068287E+02  0.00000000000E+00 0. -1.
          1    1    1    2  501    0 -0.85768705982E+02 -0.79479384805E+02  0.10360547102E+03  0.15622847743E+03  0.00000000000E+00 0. -1.
<scales pt_clust_5="13000.00000" pt_clust_6="13000.00000" pt_clust_7="13000.00000" pt_clust_8="13000.00000" pt_clust_9="57.25100" pt_clust_10="13000.00000"></scales>
<clustering>
<clus scale="   57.251">  2  9  1 -1</clus>
<clus scale="   72.403">  5  6 -1 -1</clus>
<clus scale="   90.388">  7  8 -1 -1</clus>
<clus scale="  115.555">  7 10 -1 -1</clus>
<clus scale="  214.331">  1  5  2 -1</clus>
<clus scale="   57.251">  2  5  1 -1</clus>
</clustering>
</event>
<event>
10    4  0.2866397E-005  0.2519014E+03  0.7546771E-02  0.1158282E+00
         21   -1    0    0  501  502  0.00000000000E+00  0.00000000000E+00  0.78460200137E+03  0.78460200137E+03  0.00000000000E+00 0. -1.
          2   -1    0    0  503    0 -0.00000000000E+00 -0.00000000000E+00 -0.98958276964E+02  0.98958276964E+02  0.00000000000E+00 0. -1.
         24    2    1    2    0    0 -0.27873970362E+01 -0.18689724764E+02  0.22377198966E+03  0.23827931108E+03  0.79662107274E+02 0.  0.
         23    2    1    2    0    0 -0.43160401883E+02  0.11493226304E+03  0.26318659601E+03  0.30435953183E+03  0.91078509644E+02 0.  0.
        -13    1    3    3    0    0 -0.19325735911E+02  0.26543183251E+02  0.74071423586E+02  0.81022221876E+02  0.00000000000E+00 0.  1.
         14    1    3    3    0    0  0.16538338875E+02 -0.45232908015E+02  0.14970056608E+03  0.15725708920E+03  0.00000000000E+00 0. -1.
        -13    1    4    4    0    0 -0.27597579202E+02  0.71047030142E+02  0.24102966858E+03  0.25279360752E+03  0.00000000000E+00 0. -1.
         13    1    4    4    0    0 -0.15562822680E+02  0.43885232902E+02  0.22156927432E+02  0.51565924309E+02  0.00000000000E+00 0.  1.
         21    1    1    2  503  502  0.97179749346E+02 -0.16295057977E+03  0.16066596291E+03  0.24861686742E+03  0.00000000000E+00 0. -1.
          1    1    1    2  501    0 -0.51231950427E+02  0.66708041488E+02  0.38019175824E+02  0.92304568002E+02  0.00000000000E+00 0. -1.
<scales pt_clust_5="13000.00000" pt_clust_6="13000.00000" pt_clust_7="13000.00000" pt_clust_8="13000.00000" pt_clust_9="196.82478" pt_clust_10="13000.00000"></scales>
<clustering>
<clus scale="   79.662">  5  6 -1 -1</clus>
<clus scale="   81.873">  2  5  1 -1</clus>
<clus scale="   91.079">  7  8 -1 -1</clus>
<clus scale="   80.327">  7 10 -1 -1</clus>
<clus scale="  196.825">  1  9  2 -1</clus>
<clus scale="  196.825">  1  5  2 -1</clus>
</clustering>
</event>
<event>
10    4  0.2866397E-005  0.4983548E+03  0.7546771E-02  0.1039048E+00
         21   -1    0    0  501  502  0.00000000000E+00  0.00000000000E+00  0.79551971469E+03  0.79551971469E+03  0.00000000000E+00 0.  1.
          4   -1    0    0  503    0 -0.00000000000E+00 -0.00000000000E+00 -0.31298739961E+03  0.31298739961E+03  0.00000000000E+00 0. -1.
         24    2    1    2    0    0 -0.11662781568E+02  0.21083299458E+03  0.42493195890E+03  0.48150707081E+03  0.81824919581E+02 0.  0.
         23    2    1    2    0    0  0.10074591223E+02  0.12223690363E+03  0.69473676734E+01  0.15194961580E+03  0.89426292707E+02 0.  0.
        -13    1    3    3    0    0  0.48603148070E+01  0.20968334904E+03  0.39819478339E+03  0.45005534664E+03  0.00000000000E+00 0.  1.
         14    1    3    3    0    0 -0.16523096375E+02  0.11496455474E+01  0.26737175514E+02  0.31451724169E+02  0.00000000000E+00 0. -1.
        -11    1    4    4    0    0 -0.30922841226E+02  0.77225211648E+02 -0.19704062994E+02  0.85488043152E+02  0.00000000000E+00 0. -1.
         11    1    4    4    0    0  0.40997432449E+02  0.45011691986E+02  0.26651430667E+02  0.66461572652E+02  0.00000000000E+00 0.  1.
         21    1    1    2  503  502 -0.53727822305E+02  0.10130339395E+02  0.10957939383E+03  0.12246201949E+03  0.00000000000E+00 0. -1.
          3    1    1    2  501    0  0.55316012650E+02 -0.34320023761E+03 -0.58926405325E+02  0.35258840820E+03  0.00000000000E+00 0. -1.
<scales pt_clust_5="13000.00000" pt_clust_6="13000.00000" pt_clust_7="13000.00000" pt_clust_8="13000.00000" pt_clust_9="54.67452" pt_clust_10="13000.00000"></scales>
<clustering>
<clus scale="   54.675">  1  9  2 -1</clus>
<clus scale="   81.825">  5  6 -1 -1</clus>
<clus scale="   89.426">  7  8 -1 -1</clus>
<clus scale="  237.270">  2  5  1 -1</clus>
<clus scale="  182.446">  7 10 -1 -1</clus>
<clus scale="   54.675">  1  5  2 -1</clus>
</clustering>
</event>
<event>
10    4  0.2866397E-005  0.3482002E+03  0.7546771E-02  0.1111840E+00
         21   -1    0    0  503  502  0.00000000000E+00  0.00000000000E+00  0.42129101837E+02  0.42129101837E+02  0.00000000000E+00 0. -1.
          2   -1    0    0  502    0 -0.00000000000E+00 -0.00000000000E+00 -0.17010231713E+04  0.17010231713E+04  0.00000000000E+00 0. -1.
         24    2    1    2    0    0 -0.14311592989E+02  0.59720282751E+02 -0.36185379780E+03  0.37587647271E+03  0.81077850815E+02 0.  0.
         23    2    1    2    0    0  0.10566304655E+03  0.95055899335E+02 -0.43788236040E+03  0.46901399183E+03  0.89626221476E+02 0.  0.
        -11    1    3    3    0    0  0.19175960759E+02 -0.11805125451E+02 -0.90871438112E+02  0.93619958996E+02  0.00000000000E+00 0.  1.
         12    1    3    3    0    0 -0.33487553748E+02  0.71525408203E+02 -0.27098235968E+03  0.28225651372E+03  0.00000000000E+00 0. -1.
        -13    1    4    4    0    0  0.10237437364E+03  0.40986268920E+02 -0.24507785848E+03  0.26874438289E+03  0.00000000000E+00 0. -1.
         13    1    4    4    0    0  0.32886729071E+01  0.54069630415E+02 -0.19280450192E+03  0.20026960894E+03  0.00000000000E+00 0.  1.
         21    1    1    2  503  501  0.17146215960E+02 -0.39835791198E+02 -0.26695478159E+02  0.50926727130E+02  0.00000000000E+00 0. -1.
          1    1    1    2  501    0 -0.10849766952E+03 -0.11494039089E+03 -0.83246243314E+03  0.84733508150E+03  0.00000000000E+00 0. -1.
<scales pt_clust_5="13000.00000" pt_clust_6="13000.00000" pt_clust_7="13000.00000" pt_clust_8="13000.00000" pt_clust_9="43.36915" pt_clust_10="13000.00000"></scales>
<clustering>
<clus scale="   43.369">  1  9  2 -1</clus>
<clus scale="   81.078">  5  6 -1 -1</clus>
<clus scale="   89.626">  7  8 -1 -1</clus>
<clus scale="   96.028">  2  5  1 -1</clus>
<clus scale="  143.862">  7 10 -1 -1</clus>
<clus scale="   43.369">  1  5  2 -1</clus>
</clustering>
</event>
<event>
10    4  0.2866397E-005  0.1797950E+03  0.7546771E-02  0.1194815E+00
          2   -1    0    0  503    0 -0.00000000000E+00  0.00000000000E+00  0.40758462883E+03  0.40758462883E+03  0.00000000000E+00 0. -1.
         21   -1    0    0  501  502  0.00000000000E+00 -0.00000000000E+00 -0.59091007861E+02  0.59091007861E+02  0.00000000000E+00 0. -1.
         24    2    1    2    0    0  0.20105610627E+02 -0.42628631922E+02  0.10950445697E+03  0.14429047105E+03  0.81283935080E+02 0.  0.
         23    2    1    2    0    0  0.31517967318E+02  0.13523394930E+02  0.86356331854E+02  0.13241842534E+03  0.94344893047E+02 0.  0.
        -13    1    3    3    0    0 -0.25238131252E+02 -0.13084625108E+02  0.84515441108E+01  0.29658039065E+02  0.00000000000E+00 0.  1.
         14    1    3    3    0    0  0.45343741878E+02 -0.29544006814E+02  0.10105291286E+03  0.11463243199E+03  0.00000000000E+00 0. -1.
        -13    1    4    4    0    0  0.43287848738E+02  0.47193959455E+02  0.47935370500E+02  0.79993170973E+02  0.00000000000E+00 0.  1.
         13    1    4    4    0    0 -0.11769881420E+02 -0.33670564525E+02  0.38420961354E+02  0.52425254367E+02  0.00000000000E+00 0. -1.
         21    1    1    2  503  502  0.32253672284E+01 -0.25663028377E+02  0.10188920596E+02  0.27799426651E+02  0.00000000000E+00 0. -1.
          1    1    1    2  501    0 -0.54848945173E+02  0.54768265370E+02  0.14244391154E+03  0.16216731364E+03  0.00000000000E+00 0. -1.
<scales pt_clust_5="13000.00000" pt_clust_6="13000.00000" pt_clust_7="13000.00000" pt_clust_8="13000.00000" pt_clust_9="25.86492" pt_clust_10="13000.00000"></scales>
<clustering>
<clus scale="   25.865">  2  9  1 -1</clus>
<clus scale="   81.284">  5  6 -1 -1</clus>
<clus scale="   94.345">  7  8 -1 -1</clus>
<clus scale="   73.573">  7 10 -1 -1</clus>
<clus scale="   98.540">  1  5  2 -1</clus>
<clus scale="   25.865">  2  5  1 -1</clus>
</clustering>
</event>
<event>
10    4  0.2866397E-005  0.3753717E+03  0.7546771E-02  0.1068485E+00
          2   -1    0    0  502    0 -0.00000000000E+00  0.00000000000E+00  0.14683859856E+04  0.14683859856E+04  0.00000000000E+00 0. -1.
         21   -1    0    0  503  502  0.00000000000E+00 -0.00000000000E+00 -0.10521086904E+03  0.10521086904E+03  0.00000000000E+00 0. -1.
         24    2    1    2    0    0 -0.69034768957E+01  0.22908258742E+03  0.65996313625E+03  0.70348669843E+03  0.82557275907E+02 0.  0.
         23    2    1    2    0    0  0.68482049933E+02  0.18608852679E+02  0.24721547024E+03  0.27331593788E+03  0.92466386412E+02 0.  0.
        -13    1    3    3    0    0 -0.33078019222E+02  0.11116253608E+03  0.40635646775E+03  0.42258353455E+03  0.00000000000E+00 0.  1.
         14    1    3    3    0    0  0.26174542326E+02  0.11792005134E+03  0.25360666850E+03  0.28090316388E+03  0.00000000000E+00 0. -1.
        -13    1    4    4    0    0  0.60271159788E+02 -0.24587300869E+02  0.97148717219E+02  0.11694024681E+03  0.00000000000E+00 0.  1.
         13    1    4    4    0    0  0.82108901451E+01  0.43196153547E+02  0.15006675302E+03  0.15637569108E+03  0.00000000000E+00 0. -1.
         21    1    1    2  503  501  0.27176598752E+02 -0.76186961899E+01 -0.33871146426E+02  0.44089302688E+02  0.00000000000E+00 0. -1.
          1    1    1    2  501    0 -0.88755171789E+02 -0.24007274391E+03  0.48986765650E+03  0.55270491564E+03  0.00000000000E+00 0. -1.
<scales pt_clust_5="13000.00000" pt_clust_6="13000.00000" pt_clust_7="13000.00000" pt_clust_8="13000.00000" pt_clust_9="28.22432" pt_clust_10="13000.00000"></scales>
<clustering>
<clus scale="   28.224">  2  9  1 -1</clus>
<clus scale="   82.557">  5  6 -1 -1</clus>
<clus scale="   92.466">  7  8 -1 -1</clus>
<clus scale="  241.160">  1  5  2 -1</clus>
<clus scale="  121.408">  7 10 -1 -1</clus>
<clus scale="   28.224">  2  5  1 -1</clus>
</clustering>
</event>
<event>
10    4  0.2866397E-005  0.2599248E+03  0.7546771E-02  0.1128187E+00
          2   -1    0    0  502    0 -0.00000000000E+00  0.00000000000E+00  0.55298194415E+03  0.55298194415E+03  0.00000000000E+00 0. -1.
         21   -1    0    0  503  502  0.00000000000E+00 -0.00000000000E+00 -0.12095385774E+03  0.12095385774E+03  0.00000000000E+00 0. -1.
         24    2    1    2    0    0  0.47747427209E+02 -0.11865882701E+03  0.12888692532E+03  0.19807556100E+03  0.79135038477E+02 0.  0.
         23    2    1    2    0    0 -0.49292273292E+02 -0.92390053402E+01  0.26076420598E+03  0.28076610772E+03  0.91195113351E+02 0.  0.
        -13    1    3    3    0    0  0.53457104310E+02 -0.70794507325E+02  0.40758939943E+02  0.97625895406E+02  0.00000000000E+00 0.  1.
         14    1    3    3    0    0 -0.57096771009E+01 -0.47864319688E+02  0.88127985376E+02  0.10044966560E+03  0.00000000000E+00 0. -1.
        -13    1    4    4    0    0 -0.50206877800E+02  0.29472950385E+02  0.20330707075E+03  0.21147848685E+03  0.00000000000E+00 0.  1.
         13    1    4    4    0    0  0.91460450815E+00 -0.38711955725E+02  0.57457135230E+02  0.69287620873E+02  0.00000000000E+00 0. -1.
         21    1    1    2  503  501  0.55451974068E+02  0.19240678143E+02 -0.15487663803E+02  0.60704141979E+02  0.00000000000E+00 0. -1.
          1    1    1    2  501    0 -0.53907127985E+02  0.10865715421E+03  0.57864618921E+02  0.13438999119E+03  0.00000000000E+00 0. -1.
<scales pt_clust_5="13000.00000" pt_clust_6="13000.00000" pt_clust_7="13000.00000" pt_clust_8="13000.00000" pt_clust_9="58.69519" pt_clust_10="13000.00000"></scales>
<clustering>
<clus scale="   58.695">  2  9  1 -1</clus>
<clus scale="   79.135">  5  6 -1 -1</clus>
<clus scale="   91.195">  7  8 -1 -1</clus>
<clus scale="  120.901">  7 10 -1 -1</clus>
<clus scale="  153.386">  1  5  2 -1</clus>
<clus scale="   58.695">  2  5  1 -1</clus>
</clustering>
</event>
<event>
10    4  0.2866397E-005  0.2364398E+03  0.7546771E-02  0.1136101E+00
         21   -1    0    0  501  502  0.00000000000E+00  0.00000000000E+00  0.21126313823E+03  0.21126313823E+03  0.00000000000E+00 0. -1.
          2   -1    0    0  503    0 -0.00000000000E+00 -0.00000000000E+00 -0.25324162213E+03  0.25324162213E+03  0.00000000000E+00 0. -1.
         24    2    1    2    0    0  0.13773527711E+03  0.86686103333E+01 -0.34146968981E+01  0.15961276321E+03  0.80115058873E+02 0.  0.
         23    2    1    2    0    0 -0.72552173155E+02 -0.55136345038E+02 -0.10957799402E+02  0.12745684027E+03  0.88438331005E+02 0.  0.
        -11    1    3    3    0    0  0.39216477261E+02  0.19687849138E+02  0.32036703398E+02  0.54331334026E+02  0.00000000000E+00 0.  1.
         12    1    3    3    0    0  0.98518799854E+02 -0.11019238805E+02 -0.35451400296E+02  0.10528142919E+03  0.00000000000E+00 0. -1.
        -13    1    4    4    0    0  0.29458208027E+01 -0.21179272442E+02  0.28598431061E+02  0.35708678224E+02  0.00000000000E+00 0.  1.
         13    1    4    4    0    0 -0.75497993958E+02 -0.33957072596E+02 -0.39556230462E+02  0.91748162049E+02  0.00000000000E+00 0. -1.
         21    1    1    2  503  502  0.21067324502E+02 -0.21923954643E+02  0.38481989943E+02  0.49044423728E+02  0.00000000000E+00 0. -1.
          1    1    1    2  501    0 -0.86250428461E+02  0.68391689347E+02 -0.66087977551E+02  0.12839073315E+03  0.00000000000E+00 0. -1.
<scales pt_clust_5="13000.00000" pt_clust_6="13000.00000" pt_clust_7="13000.00000" pt_clust_8="13000.00000" pt_clust_9="30.40546" pt_clust_10="13000.00000"></scales>
<clustering>
<clus scale="   30.405">  1  9  2 -1</clus>
<clus scale="   80.115">  5  6 -1 -1</clus>
<clus scale="   88.438">  7  8 -1 -1</clus>
<clus scale="  104.475">  7 10 -1 -1</clus>
<clus scale="  167.912">  2  5  1 -1</clus>
<clus scale="   30.405">  1  5  2 -1</clus>
</clustering>
</event>
<event>
10    4  0.3345101E-005  0.6541363E+03  0.7546771E-02  0.1022111E+00
         21   -1    0    0  503  502  0.00000000000E+00  0.00000000000E+00  0.87669763376E+03  0.87669763376E+03  0.00000000000E+00 0.  1.
          2   -1    0    0  502    0 -0.00000000000E+00 -0.00000000000E+00 -0.14397032161E+04  0.14397032161E+04  0.00000000000E+00 0. -1.
         24    2    1    2    0    0 -0.12394017942E+03  0.91410052287E+02 -0.23927676799E+03  0.29546385283E+03  0.79552189762E+02 0.  0.
         23    2    1    2    0    0 -0.20263662225E+03  0.10054631612E+03 -0.34177876138E+03  0.42031740038E+03  0.93181720110E+02 0.  0.
        -11    1    3    3    0    0 -0.55689857019E+02  0.36512788156E+02 -0.17375714949E+03  0.18608087186E+03  0.00000000000E+00 0.  1.
         12    1    3    3    0    0 -0.68250322406E+02  0.54897264131E+02 -0.65519618497E+02  0.10938298097E+03  0.00000000000E+00 0. -1.
        -13    1    4    4    0    0 -0.16155677116E+03  0.40573678418E+02 -0.27551250237E+03  0.32195333925E+03  0.00000000000E+00 0. -1.
         13    1    4    4    0    0 -0.41079851098E+02  0.59972637701E+02 -0.66266259010E+02  0.98364061131E+02  0.00000000000E+00 0.  1.
         21    1    1    2  503  501 -0.77102454117E+02 -0.23811223128E+03  0.73505299224E+03  0.77649541178E+03  0.00000000000E+00 0.  1.
          1    1    1    2  501    0  0.40367925580E+03  0.46155862878E+02 -0.71700304521E+03  0.82412418487E+03  0.00000000000E+00 0. -1.
<scales pt_clust_5="13000.00000" pt_clust_6="13000.00000" pt_clust_7="13000.00000" pt_clust_8="13000.00000" pt_clust_9="249.43539" pt_clust_10="13000.00000"></scales>
<clustering>
<clus scale="   79.552">  5  6 -1 -1</clus>
<clus scale="   93.182">  7  8 -1 -1</clus>
<clus scale="  173.336">  2  5  1 -1</clus>
<clus scale="  249.435">  1  9  2 -1</clus>
<clus scale="  286.500">  7 10 -1 -1</clus>
<clus scale="  249.435">  1  5  2 -1</clus>
</clustering>
</event>
<event>
10    4  0.2866397E-005  0.2216412E+03  0.7546771E-02  0.1158544E+00
         21   -1    0    0  501  502  0.00000000000E+00  0.00000000000E+00  0.40853848878E+03  0.40853848878E+03  0.00000000000E+00 0. -1.
          2   -1    0    0  503    0 -0.00000000000E+00 -0.00000000000E+00 -0.17910629444E+03  0.17910629444E+03  0.00000000000E+00 0. -1.
         24    2    1    2    0    0 -0.38898695720E+02  0.99165726354E+02 -0.54074709838E+02  0.14233312901E+03  0.77380201326E+02 0.  0.
         23    2    1    2    0    0 -0.59558932181E+02 -0.10000519855E+03  0.10214372294E+03  0.17960530706E+03  0.90974831947E+02 0.  0.
        -13    1    3    3    0    0  0.11973399406E+02  0.46585222749E+02  0.49179332199E+01  0.48350091407E+02  0.00000000000E+00 0.  1.
         14    1    3    3    0    0 -0.50872095125E+02  0.52580503605E+02 -0.58992643058E+02  0.93983037601E+02  0.00000000000E+00 0. -1.
        -13    1    4    4    0    0  0.14760011033E+02 -0.36246647743E+02  0.14698189774E+01  0.39164240911E+02  0.00000000000E+00 0.  1.
         13    1    4    4    0    0 -0.74318943215E+02 -0.63758550806E+02  0.10067390396E+03  0.14044106614E+03  0.00000000000E+00 0. -1.
         21    1    1    2  503  502  0.83985193343E+02 -0.50187434753E+02  0.18831403105E+03  0.21221325500E+03  0.00000000000E+00 0. -1.
          1    1    1    2  501    0  0.14472434558E+02  0.51026906949E+02 -0.69508498042E+01  0.53493092150E+02  0.00000000000E+00 0. -1.
<scales pt_clust_5="13000.00000" pt_clust_6="13000.00000" pt_clust_7="13000.00000" pt_clust_8="13000.00000" pt_clust_9="97.83809" pt_clust_10="13000.00000"></scales>
<clustering>
<clus scale="   77.380">  5  6 -1 -1</clus>
<clus scale="   90.975">  7  8 -1 -1</clus>
<clus scale="   53.040">  7 10 -1 -1</clus>
<clus scale="   97.838">  1  9  2 -1</clus>
<clus scale="  119.461">  2  5  1 -1</clus>
<clus scale="   97.838">  1  5  2 -1</clus>
</clustering>
</event>
<event>
10    4  0.2866397E-005  0.1376507E+03  0.7546771E-02  0.1238686E+00
          2   -1    0    0  502    0 -0.00000000000E+00  0.00000000000E+00  0.19878455940E+03  0.19878455940E+03  0.00000000000E+00 0. -1.
         21   -1    0    0  503  502  0.00000000000E+00 -0.00000000000E+00 -0.22528814204E+03  0.22528814204E+03  0.00000000000E+00 0.  1.
         24    2    1    2    0    0  0.36360116900E+02  0.11768559605E+02  0.20497891489E+02  0.90473748850E+02  0.79402635846E+02 0.  0.
         23    2    1    2    0    0 -0.21651965528E+02 -0.96072129568E+01  0.12089612182E+03  0.15056160629E+03  0.86555293687E+02 0.  0.
        -13    1    3    3    0    0  0.19002100372E+02  0.36437028872E+02  0.37684862195E+02  0.55757382742E+02  0.00000000000E+00 0.  1.
         14    1    3    3    0    0  0.17358016529E+02 -0.24668469267E+02 -0.17186970706E+02  0.34716366109E+02  0.00000000000E+00 0. -1.
        -13    1    4    4    0    0  0.38200835994E+01 -0.42270860597E+02  0.87877054323E+02  0.97589934782E+02  0.00000000000E+00 0. -1.
         13    1    4    4    0    0 -0.25472049128E+02  0.32663647640E+02  0.33019067500E+02  0.52971671509E+02  0.00000000000E+00 0.  1.
         21    1    1    2  503  501 -0.16669046495E+02  0.19803987364E+02 -0.15569806001E+03  0.15783517009E+03  0.00000000000E+00 0.  1.
          1    1    1    2  501    0  0.19608951236E+01 -0.21965334013E+02 -0.12199535938E+02  0.25202176197E+02  0.00000000000E+00 0. -1.
<scales pt_clust_5="13000.00000" pt_clust_6="13000.00000" pt_clust_7="13000.00000" pt_clust_8="13000.00000" pt_clust_9="25.88542" pt_clust_10="13000.00000"></scales>
<clustering>
<clus scale="   25.885">  2  9  1 -1</clus>
<clus scale="   79.403">  5  6 -1 -1</clus>
<clus scale="   86.555">  7  8 -1 -1</clus>
<clus scale="   16.762">  7 10 -1 -1</clus>
<clus scale="   86.943">  1  5  2 -1</clus>
<clus scale="   25.885">  2  5  1 -1</clus>
</clustering>
</event>
<event>
10    4  0.2866397E-005  0.1616080E+03  0.7546771E-02  0.1201428E+00
          2   -1    0    0  503    0 -0.00000000000E+00  0.00000000000E+00  0.39847200936E+03  0.39847200936E+03  0.00000000000E+00 0. -1.
         21   -1    0    0  501  502  0.00000000000E+00 -0.00000000000E+00 -0.79535665297E+02  0.79535665297E+02  0.00000000000E+00 0.  1.
         24    2    1    2    0    0 -0.27295033781E+02  0.89541562436E+02  0.26822049376E+03  0.29410494089E+03  0.76110266817E+02 0.  0.
         23    2    1    2    0    0 -0.94035903227E+01 -0.54088027056E+02  0.65128338423E+02  0.12569205470E+03  0.92427539010E+02 0.  0.
        -13    1    3    3    0    0 -0.37269541971E+02  0.75647210682E+02  0.26304954667E+03  0.27623646256E+03  0.00000000000E+00 0.  1.
         14    1    3    3    0    0  0.99745081899E+01  0.13894351754E+02  0.51709470852E+01  0.17868478336E+02  0.00000000000E+00 0. -1.
        -11    1    4    4    0    0  0.22614446752E+02  0.14853176421E+02  0.24442717345E+01  0.27166238533E+02  0.00000000000E+00 0.  1.
         11    1    4    4    0    0 -0.32018037075E+02 -0.68941203477E+02  0.62684066688E+02  0.98525816168E+02  0.00000000000E+00 0. -1.
         21    1    1    2  503  502  0.48927597215E+01 -0.20676516004E+02 -0.39423483790E+01  0.21610171736E+02  0.00000000000E+00 0. -1.
          1    1    1    2  501    0  0.31805864382E+02 -0.14777019376E+02 -0.10470139733E+02  0.36600507330E+02  0.00000000000E+00 0. -1.
<scales pt_clust_5="13000.00000" pt_clust_6="13000.00000" pt_clust_7="13000.00000" pt_clust_8="13000.00000" pt_clust_9="21.24753" pt_clust_10="13000.00000"></scales>
<clustering>
<clus scale="   21.248">  2  9  1 -1</clus>
<clus scale="   76.110">  5  6 -1 -1</clus>
<clus scale="   92.428">  7  8 -1 -1</clus>
<clus scale="   40.140">  7 10 -1 -1</clus>
<clus scale="  117.485">  1  5  2 -1</clus>
<clus scale="   21.248">  2  5  1 -1</clus>
</clustering>
</event>
<event>
10    4  0.2866397E-005  0.8441364E+03  0.7546771E-02  0.1016336E+00
          2   -1    0    0  503    0 -0.00000000000E+00  0.00000000000E+00  0.24735666325E+04  0.24735666325E+04  0.00000000000E+00 0. -1.
         21   -1    0    0  501  502  0.00000000000E+00 -0.00000000000E+00 -0.10785715548E+03  0.10785715548E+03  0.00000000000E+00 0. -1.
         24    2    1    2    0    0 -0.65972088435E+02  0.33084474057E+00  0.61929252379E+03  0.62663681964E+03  0.69267942083E+02 0.  0.
         23    2    1    2    0    0 -0.45964584592E+02 -0.31410327861E+03  0.14226509951E+04  0.14604963745E+04  0.91324659075E+02 0.  0.
        -13    1    3    3    0    0 -0.33972031418E+02 -0.10615741479E+01  0.87332241592E+02  0.93713106233E+02  0.00000000000E+00 0.  1.
         14    1    3    3    0    0 -0.32000057016E+02  0.13924188885E+01  0.53196028220E+03  0.53292371341E+03  0.00000000000E+00 0. -1.
        -11    1    4    4    0    0 -0.28466063098E+02 -0.18601942816E+02  0.12867400185E+03  0.13309150152E+03  0.00000000000E+00 0.  1.
         11    1    4    4    0    0 -0.17498521493E+02 -0.29550133579E+03  0.12939769933E+04  0.13274048730E+04  0.00000000000E+00 0. -1.
         21    1    1    2  503  502 -0.17337549740E+02 -0.12548518568E+02  0.10538803617E+02  0.23856284935E+02  0.00000000000E+00 0. -1.
          1    1    1    2  501    0  0.12927422277E+03  0.32632095243E+03  0.31322715447E+03  0.47043430887E+03  0.00000000000E+00 0. -1.
<scales pt_clust_5="13000.00000" pt_clust_6="13000.00000" pt_clust_7="13000.00000" pt_clust_8="13000.00000" pt_clust_9="21.40224" pt_clust_10="13000.00000"></scales>
<clustering>
<clus scale="   21.402">  2  9  1 -1</clus>
<clus scale="   69.268">  5  6 -1 -1</clus>
<clus scale="   91.325">  7  8 -1 -1</clus>
<clus scale="   96.093">  1  5  2 -1</clus>
<clus scale="  332.655">  7 10 -1 -1</clus>
<clus scale="   21.402">  2  5  1 -1</clus>
</clustering>
</event>
<event>
10    4  0.2866397E-005  0.3394666E+03  0.7546771E-02  0.1071697E+00
         21   -1    0    0  503  502  0.00000000000E+00  0.00000000000E+00  0.58358232389E+02  0.58358232389E+02  0.00000000000E+00 0. -1.
          2   -1    0    0  502    0 -0.00000000000E+00 -0.00000000000E+00 -0.20721607750E+04  0.20721607750E+04  0.00000000000E+00 0. -1.
         24    2    1    2    0    0 -0.29847142192E+03 -0.37195448841E+02 -0.11732498438E+04  0.12138558716E+04  0.80387747339E+02 0.  0.
         23    2    1    2    0    0  0.26722130840E+03  0.61964631494E+02 -0.66134610912E+03  0.72149174310E+03  0.89021436134E+02 0.  0.
        -13    1    3    3    0    0 -0.18256915398E+02  0.18051526182E+02 -0.10316434087E+03  0.10631111787E+03  0.00000000000E+00 0.  1.
         14    1    3    3    0    0 -0.28021450652E+03 -0.55246975023E+02 -0.10700855029E+04  0.11075447537E+04  0.00000000000E+00 0. -1.
        -11    1    4    4    0    0  0.12151445782E+03  0.60738369215E+02 -0.24160930828E+03  0.27718219785E+03  0.00000000000E+00 0. -1.
         11    1    4    4    0    0  0.14570685059E+03  0.12262622790E+01 -0.41973680083E+03  0.44430954525E+03  0.00000000000E+00 0.  1.
         21    1    1    2  503  501  0.33963287738E+02 -0.10563287862E+01 -0.34188881996E+02  0.48202701134E+02  0.00000000000E+00 0.  1.
          1    1    1    2  501    0 -0.27131742220E+01 -0.23712853867E+02 -0.14501770777E+03  0.14696869163E+03  0.00000000000E+00 0. -1.
<scales pt_clust_5="13000.00000" pt_clust_6="13000.00000" pt_clust_7="13000.00000" pt_clust_8="13000.00000" pt_clust_9="33.97971" pt_clust_10="13000.00000"></scales>
<clustering>
<clus scale="   33.980">  1  9  2 -1</clus>
<clus scale="   80.388">  5  6 -1 -1</clus>
<clus scale="   89.021">  7  8 -1 -1</clus>
<clus scale="   23.823">  7 10 -1 -1</clus>
<clus scale="  298.541">  2  5  1 -1</clus>
<clus scale="   33.980">  1  5  2 -1</clus>
</clustering>
</event>
<event>
10    4  0.2866397E-005  0.3505447E+03  0.7546771E-02  0.1070937E+00
          2   -1    0    0  502    0 -0.00000000000E+00  0.00000000000E+00  0.90547935559E+03  0.90547935559E+03  0.00000000000E+00 0. -1.
         21   -1    0    0  503  502  0.00000000000E+00 -0.00000000000E+00 -0.13422833258E+03  0.13422833258E+03  0.00000000000E+00 0.  1.
         24    2    1    2    0    0  0.23517903564E+03  0.49345766381E+02  0.22816084979E+03  0.34088921613E+03  0.80024376456E+02 0.  0.
         23    2    1    2    0    0 -0.91052528679E+02 -0.30037089301E+02  0.71170806984E+02  0.15192496435E+03  0.93931471360E+02 0.  0.
        -13    1    3    3    0    0  0.11399839676E+03  0.64351522596E+02  0.11030765465E+03  0.17118566411E+03  0.00000000000E+00 0.  1.
         14    1    3    3    0    0  0.12118063889E+03 -0.15005756214E+02  0.11785319514E+03  0.16970355201E+03  0.00000000000E+00 0. -1.
        -11    1    4    4    0    0 -0.81101328264E+02 -0.61122386186E+02  0.55214744611E+02  0.11559428862E+03  0.00000000000E+00 0.  1.
         11    1    4    4    0    0 -0.99512004154E+01  0.31085296885E+02  0.15956062373E+02  0.36330675724E+02  0.00000000000E+00 0. -1.
         21    1    1    2  503  501  0.41945606850E+02  0.47207527413E+02  0.48470799026E+02  0.79607807008E+02  0.00000000000E+00 0. -1.
          1    1    1    2  501    0 -0.18607211381E+03 -0.66516204493E+02  0.42344856721E+03  0.46728570069E+03  0.00000000000E+00 0. -1.
<scales pt_clust_5="13000.00000" pt_clust_6="13000.00000" pt_clust_7="13000.00000" pt_clust_8="13000.00000" pt_clust_9="63.15049" pt_clust_10="13000.00000"></scales>
<clustering>
<clus scale="   63.150">  2  9  1 -1</clus>
<clus scale="   80.024">  5  6 -1 -1</clus>
<clus scale="   93.931">  7  8 -1 -1</clus>
<clus scale="  187.456">  7 10 -1 -1</clus>
<clus scale="  276.826">  1  5  2 -1</clus>
<clus scale="   63.150">  2  5  1 -1</clus>
</clustering>
</event>
<event>
10    4  0.2866397E-005  0.1573226E+03  0.7546771E-02  0.1217152E+00
          2   -1    0    0  503    0 -0.00000000000E+00  0.00000000000E+00  0.12124060706E+03  0.12124060706E+03  0.00000000000E+00 0. -1.
         21   -1    0    0  501  502  0.00000000000E+00 -0.00000000000E+00 -0.20803713844E+03  0.20803713844E+03  0.00000000000E+00 0.  1.
         24    2    1    2    0    0 -0.19806701028E+02  0.25634649801E+02  0.11389241851E+02  0.87243581806E+02  0.80201540262E+02 0.  0.
         23    2    1    2    0    0  0.19500822640E+02  0.46591888227E+01 -0.36407859297E+02  0.10819213696E+03  0.99890020314E+02 0.  0.
        -13    1    3    3    0    0 -0.13401618162E+02 -0.27598370990E+02  0.13648381513E+02  0.33579037636E+02  0.00000000000E+00 0.  1.
         14    1    3    3    0    0 -0.64050828662E+01  0.53233020791E+02 -0.22591396618E+01  0.53664544170E+02  0.00000000000E+00 0. -1.
        -11    1    4    4    0    0  0.40338968265E+02  0.41516349472E+02 -0.30536154243E+02  0.65446897178E+02  0.00000000000E+00 0.  1.
         11    1    4    4    0    0 -0.20838145625E+02 -0.36857160649E+02 -0.58717050537E+01  0.42745239787E+02  0.00000000000E+00 0. -1.
         21    1    1    2  503  502 -0.44052678682E+02  0.22655386349E+02 -0.28778400775E+02  0.57289627167E+02  0.00000000000E+00 0.  1.
          1    1    1    2  501    0  0.44358557070E+02 -0.52949224973E+02 -0.32999513150E+02  0.76552399562E+02  0.00000000000E+00 0. -1.
<scales pt_clust_5="13000.00000" pt_clust_6="13000.00000" pt_clust_7="13000.00000" pt_clust_8="13000.00000" pt_clust_9="49.53691" pt_clust_10="13000.00000"></scales>
<clustering>
<clus scale="   49.537">  2  9  1 -1</clus>
<clus scale="   80.202">  5  6 -1 -1</clus>
<clus scale="   90.992">  1  5  2 -1</clus>
<clus scale="   99.890">  7  8 -1 -1</clus>
<clus scale="   42.303">  7 10 -1 -1</clus>
<clus scale="   49.537">  2  5  1 -1</clus>
</clustering>
</event>
<event>
10    4  0.1276968E-004  0.3772329E+03  0.7546771E-02  0.1098155E+00
         21   -1    0    0  503  502  0.00000000000E+00  0.00000000000E+00  0.82100288615E+03  0.82100288615E+03  0.00000000000E+00 0. -1.
          2   -1    0    0  502    0 -0.00000000000E+00 -0.00000000000E+00 -0.73632437756E+03  0.73632437756E+03  0.00000000000E+00 0. -1.
         24    2    1    2    0    0 -0.79511168697E+02 -0.38364383774E+02 -0.25017266910E+02  0.12226132544E+03  0.80796758386E+02 0.  0.
         23    2    1    2    0    0  0.10738657339E+03 -0.12380551723E+03 -0.60176052714E+03  0.63018031126E+03  0.90287376948E+02 0.  0.
        -13    1    3    3    0    0 -0.80038145417E+02 -0.15215369175E+02 -0.43752125052E+02  0.92476270619E+02  0.00000000000E+00 0.  1.
         14    1    3    3    0    0  0.52697671997E+00 -0.23149014599E+02  0.18734858141E+02  0.29785054825E+02  0.00000000000E+00 0. -1.
        -11    1    4    4    0    0 -0.21895758477E+01 -0.29431023010E+02 -0.37706474577E+02  0.47882748280E+02  0.00000000000E+00 0.  1.
         11    1    4    4    0    0  0.10957614924E+03 -0.94374494223E+02 -0.56405405256E+03  0.58229756298E+03  0.00000000000E+00 0. -1.
         21    1    1    2  503  501  0.19121056729E+02  0.92707819551E+02  0.71471428521E+03  0.72095552158E+03  0.00000000000E+00 0. -1.
          1    1    1    2  501    0 -0.46996461422E+02  0.69462081456E+02 -0.32579825693E+01  0.83930105426E+02  0.00000000000E+00 0. -1.
<scales pt_clust_5="13000.00000" pt_clust_6="13000.00000" pt_clust_7="13000.00000" pt_clust_8="13000.00000" pt_clust_9="94.65915" pt_clust_10="13000.00000"></scales>
<clustering>
<clus scale="   80.797">  5  6 -1 -1</clus>
<clus scale="   90.287">  7  8 -1 -1</clus>
<clus scale="   83.867">  7 10 -1 -1</clus>
<clus scale="   94.659">  1  9  2 -1</clus>
<clus scale="  107.363">  2  5  1 -1</clus>
<clus scale="   94.659">  1  5  2 -1</clus>
</clustering>
</event>
<event>
10    4  0.2866397E-005  0.3485611E+03  0.7546771E-02  0.1097029E+00
          2   -1    0    0  503    0 -0.00000000000E+00  0.00000000000E+00  0.18588993243E+04  0.18588993243E+04  0.00000000000E+00 0. -1.
         21   -1    0    0  501  502  0.00000000000E+00 -0.00000000000E+00 -0.17245019597E+03  0.17245019597E+03  0.00000000000E+00 0.  1.
         24    2    1    2    0    0 -0.27711259787E+02 -0.10845227780E+03  0.44171410603E+03  0.46341464419E+03  0.84332499709E+02 0.  0.
         23    2    1    2    0    0 -0.81685092739E+02  0.19096415346E+02  0.32141766700E+03  0.34534999826E+03  0.94446689628E+02 0.  0.
        -11    1    3    3    0    0 -0.31146227931E+02 -0.11274144003E+03  0.44264819129E+03  0.45784073767E+03  0.00000000000E+00 0.  1.
         12    1    3    3    0    0  0.34349681436E+01  0.42891622241E+01 -0.93408525807E+00  0.55739065297E+01  0.00000000000E+00 0. -1.
        -13    1    4    4    0    0  0.90716612322E+01 -0.18223685385E+02  0.11507593439E+03  0.11686260489E+03  0.00000000000E+00 0. -1.
         13    1    4    4    0    0 -0.90756753972E+02  0.37320100732E+02  0.20634173261E+03  0.22848739337E+03  0.00000000000E+00 0.  1.
         21    1    1    2  503  502 -0.32413734541E+02 -0.14901165443E+03 -0.86533355330E+02  0.17533723200E+03  0.00000000000E+00 0.  1.
          1    1    1    2  501    0  0.14181008707E+03  0.23836751689E+03  0.10098507106E+04  0.10472476458E+04  0.00000000000E+00 0. -1.
<scales pt_clust_5="13000.00000" pt_clust_6="13000.00000" pt_clust_7="13000.00000" pt_clust_8="13000.00000" pt_clust_9="156.02822" pt_clust_10="13000.00000"></scales>
<clustering>
<clus scale="   84.332">  5  6 -1 -1</clus>
<clus scale="   94.447">  7  8 -1 -1</clus>
<clus scale="  140.149">  1  5  2 -1</clus>
<clus scale="  156.028">  2  9  1 -1</clus>
<clus scale="  135.318">  7 10 -1 -1</clus>
<clus scale="  156.028">  2  5  1 -1</clus>
</clustering>
</event>
<event>
10    4  0.2866397E-005  0.1641141E+03  0.7546771E-02  0.1213595E+00
         -1   -1    0    0    0  501 -0.00000000000E+00  0.00000000000E+00  0.65918002084E+02  0.65918002084E+02  0.00000000000E+00 0.  1.
         21   -1    0    0  503  502  0.00000000000E+00 -0.00000000000E+00 -0.36063459347E+03  0.36063459347E+03  0.00000000000E+00 0.  1.
         24    2    1    2    0    0  0.38997827800E+02 -0.20612163203E+02 -0.15823423673E+03  0.18267737739E+03  0.79920327141E+02 0.  0.
         23    2    1    2    0    0 -0.52472123964E+02 -0.12578630891E+02 -0.80028926472E+02  0.13606865009E+03  0.95908825017E+02 0.  0.
        -13    1    3    3    0    0  0.60277143191E+02 -0.22851331996E+02 -0.14157401100E+03  0.15555937116E+03  0.00000000000E+00 0.  1.
         14    1    3    3    0    0 -0.21279315391E+02  0.22391687930E+01 -0.16660225737E+02  0.27118006233E+02  0.00000000000E+00 0. -1.
        -11    1    4    4    0    0  0.20489467740E+02  0.19004732221E+02 -0.87329432565E+01  0.29279044264E+02  0.00000000000E+00 0. -1.
         11    1    4    4    0    0 -0.72961591704E+02 -0.31583363112E+02 -0.71295983215E+02  0.10678960582E+03  0.00000000000E+00 0.  1.
         21    1    1    2  503  501 -0.19257688630E+02  0.57648874662E+01 -0.61597520367E+02  0.64794652667E+02  0.00000000000E+00 0.  1.
         -2    1    1    2    0  502  0.32731984793E+02  0.27425906627E+02  0.51440921854E+01  0.43011915410E+02  0.00000000000E+00 0.  1.
<scales pt_clust_5="13000.00000" pt_clust_6="13000.00000" pt_clust_7="13000.00000" pt_clust_8="13000.00000" pt_clust_9="20.10205" pt_clust_10="13000.00000"></scales>
<clustering>
<clus scale="   20.102">  2  9  1 -1</clus>
<clus scale="   79.920">  5  6 -1 -1</clus>
<clus scale="   86.422">  1  5  2 -1</clus>
<clus scale="   95.909">  7  8 -1 -1</clus>
<clus scale="   48.161">  7 10 -1 -1</clus>
<clus scale="   20.102">  2  5  1 -1</clus>
</clustering>
</event>
<event>
10    4  0.2866397E-005  0.2306212E+03  0.7546771E-02  0.1136019E+00
         21   -1    0    0  501  502  0.00000000000E+00  0.00000000000E+00  0.73589418029E+02  0.73589418029E+02  0.00000000000E+00 0. -1.
          2   -1    0    0  503    0 -0.00000000000E+00 -0.00000000000E+00 -0.90434206108E+03  0.90434206108E+03  0.00000000000E+00 0. -1.
         24    2    1    2    0    0 -0.12858468492E+02  0.15741326875E+03 -0.60455795468E+03  0.63046365519E+03  0.83963221457E+02 0.  0.
         23    2    1    2    0    0  0.35379497322E+02 -0.70520159011E+02 -0.75411598173E+02  0.14380098234E+03  0.93632322013E+02 0.  0.
        -13    1    3    3    0    0 -0.35403312213E+02  0.23351871862E+02 -0.12431291652E+03  0.13134841320E+03  0.00000000000E+00 0.  1.
         14    1    3    3    0    0  0.22544843721E+02  0.13406139689E+03 -0.48024503816E+03  0.49911524199E+03  0.00000000000E+00 0. -1.
        -11    1    4    4    0    0  0.13897386559E+02 -0.31983431859E+02 -0.90648005928E+02  0.97124344247E+02  0.00000000000E+00 0. -1.
         11    1    4    4    0    0  0.21482110763E+02 -0.38536727152E+02  0.15236407756E+02  0.46676638094E+02  0.00000000000E+00 0.  1.
         21    1    1    2  503  502  0.14770611357E+02  0.14937584262E+02 -0.43539682261E+01  0.21453657562E+02  0.00000000000E+00 0.  1.
          1    1    1    2  501    0 -0.37291640187E+02 -0.10183069400E+03 -0.14642912198E+03  0.18221318402E+03  0.00000000000E+00 0. -1.
<scales pt_clust_5="13000.00000" pt_clust_6="13000.00000" pt_clust_7="13000.00000" pt_clust_8="13000.00000" pt_clust_9="21.00720" pt_clust_10="13000.00000"></scales>
<clustering>
<clus scale="   21.007">  1  9  2 -1</clus>
<clus scale="   83.963">  5  6 -1 -1</clus>
<clus scale="   93.632">  7  8 -1 -1</clus>
<clus scale="  103.216">  7 10 -1 -1</clus>
<clus scale="  181.308">  2  5  1 -1</clus>
<clus scale="   21.007">  1  5  2 -1</clus>
</clustering>
</event>
<event>
10    4  0.2866397E-005  0.3854474E+03  0.7546771E-02  0.1072012E+00
         21   -1    0    0  501  502  0.00000000000E+00  0.00000000000E+00  0.38868435590E+02  0.38868435590E+02  0.00000000000E+00 0. -1.
          2   -1    0    0  503    0 -0.00000000000E+00 -0.00000000000E+00 -0.28393315074E+04  0.28393315074E+04  0.00000000000E+00 0. -1.
         24    2    1    2    0    0  0.15739664125E+03 -0.77523758317E+02 -0.75182735192E+03  0.77656952189E+03  0.83858329726E+02 0.  0.
         23    2    1    2    0    0  0.53918752095E+02 -0.88456373793E+01 -0.27734459227E+03  0.29694613349E+03  0.90947821323E+02 0.  0.
        -13    1    3    3    0    0  0.34856933575E+02 -0.57575402868E+02 -0.20268952554E+03  0.21357194712E+03  0.00000000000E+00 0.  1.
         14    1    3    3    0    0  0.12253970767E+03 -0.19948355449E+02 -0.54913782637E+03  0.56299757477E+03  0.00000000000E+00 0. -1.
        -11    1    4    4    0    0  0.45219767324E+02  0.34687960290E+02 -0.11095675370E+03  0.12473765725E+03  0.00000000000E+00 0.  1.
         11    1    4    4    0    0  0.86989847711E+01 -0.43533597669E+02 -0.16638783857E+03  0.17220847623E+03  0.00000000000E+00 0. -1.
         21    1    1    2  503  502  0.24237029584E+02  0.11471716240E+01 -0.10968424385E+02  0.26628104313E+02  0.00000000000E+00 0.  1.
          1    1    1    2  501    0 -0.23555242293E+03  0.85222224072E+02 -0.17603227032E+04  0.17780561833E+04  0.00000000000E+00 0. -1.
<scales pt_clust_5="13000.00000" pt_clust_6="13000.00000" pt_clust_7="13000.00000" pt_clust_8="13000.00000" pt_clust_9="24.26416" pt_clust_10="13000.00000"></scales>
<clustering>
<clus scale="   24.264">  1  9  2 -1</clus>
<clus scale="   83.858">  5  6 -1 -1</clus>
<clus scale="   90.948">  7  8 -1 -1</clus>
<clus scale="  202.187">  2  5  1 -1</clus>
<clus scale="   90.671">  7 10 -1 -1</clus>
<clus scale="   24.264">  1  5  2 -1</clus>
</clustering>
</event>
<event>
10    4  0.3012338E-005  0.1749966E+03  0.7546771E-02  0.1195485E+00
         21   -1    0    0  503  502  0.00000000000E+00  0.00000000000E+00  0.34351331003E+03  0.34351331003E+03  0.00000000000E+00 0. -1.
         -1   -1    0    0    0  501 -0.00000000000E+00 -0.00000000000E+00 -0.44564447308E+03  0.44564447308E+03  0.00000000000E+00 0.  1.
         24    2    1    2    0    0 -0.24474582200E+02  0.23813667115E+02  0.48364415683E+02  0.10034000695E+03  0.81011754552E+02 0.  0.
         23    2    1    2    0    0  0.97351651532E+02 -0.16600616617E+02 -0.36584453567E+03  0.39006124997E+03  0.92480429930E+02 0.  0.
        -11    1    3    3    0    0  0.27200578390E+02 -0.39231230364E+01  0.63804066505E+01  0.28212974819E+02  0.00000000000E+00 0.  1.
         12    1    3    3    0    0 -0.51675160590E+02  0.27736790151E+02  0.41984009032E+02  0.72127032133E+02  0.00000000000E+00 0. -1.
        -11    1    4    4    0    0 -0.36029747702E+01 -0.30730761848E+02 -0.57401865093E+02  0.65209932274E+02  0.00000000000E+00 0. -1.
         11    1    4    4    0    0  0.10095462630E+03  0.14130145232E+02 -0.30844267057E+03  0.32485131769E+03  0.00000000000E+00 0.  1.
         21    1    1    2  503  501 -0.53908588641E+02 -0.34536771307E+02  0.24559249953E+03  0.25380031586E+03  0.00000000000E+00 0. -1.
         -2    1    1    2    0  502 -0.18968480691E+02  0.27323720808E+02 -0.30243542595E+02  0.44956210330E+02  0.00000000000E+00 0.  1.
<scales pt_clust_5="13000.00000" pt_clust_6="13000.00000" pt_clust_7="13000.00000" pt_clust_8="13000.00000" pt_clust_9="64.02284" pt_clust_10="13000.00000"></scales>
<clustering>
<clus scale="   64.023">  1  9  2 -1</clus>
<clus scale="   81.012">  5  6 -1 -1</clus>
<clus scale="   92.480">  7  8 -1 -1</clus>
<clus scale="   33.823">  7 10 -1 -1</clus>
<clus scale="  105.315">  2  5  1 -1</clus>
<clus scale="   64.023">  1  5  2 -1</clus>
</clustering>
</event>
<event>
10    4  0.2866397E-005  0.2064028E+03  0.7546771E-02  0.1162622E+00
          2   -1    0    0  503    0 -0.00000000000E+00  0.00000000000E+00  0.11703296428E+03  0.11703296428E+03  0.00000000000E+00 0. -1.
         21   -1    0    0  501  502  0.00000000000E+00 -0.00000000000E+00 -0.87888204223E+03  0.87888204223E+03  0.00000000000E+00 0. -1.
         24    2    1    2    0    0  0.11159736863E+03  0.44137048654E+02 -0.45652476451E+03  0.47884415862E+03  0.80466240631E+02 0.  0.
         23    2    1    2    0    0 -0.21473412165E+02 -0.21732577949E+02  0.44153522673E+02  0.10889075892E+03  0.94732525775E+02 0.  0.
        -13    1    3    3    0    0  0.80240343906E+02  0.29354121944E+02 -0.17033939771E+03  0.19056675386E+03  0.00000000000E+00 0.  1.
         14    1    3    3    0    0  0.31357024725E+02  0.14782926710E+02 -0.28618536680E+03  0.28827740476E+03  0.00000000000E+00 0. -1.
        -11    1    4    4    0    0 -0.43498596322E+02 -0.36578294119E+02  0.56017609292E+02  0.79800200710E+02  0.00000000000E+00 0. -1.
         11    1    4    4    0    0  0.22025184157E+02  0.14845716170E+02 -0.11864086619E+02  0.29090558211E+02  0.00000000000E+00 0.  1.
         21    1    1    2  503  502 -0.50011225199E+01 -0.43371380644E+02 -0.30820781144E+03  0.31128466541E+03  0.00000000000E+00 0. -1.
          1    1    1    2  501    0 -0.85122833947E+02  0.20966909939E+02 -0.41270024672E+02  0.96895423566E+02  0.00000000000E+00 0. -1.
<scales pt_clust_5="13000.00000" pt_clust_6="13000.00000" pt_clust_7="13000.00000" pt_clust_8="13000.00000" pt_clust_9="43.65877" pt_clust_10="13000.00000"></scales>
<clustering>
<clus scale="   43.659">  2  9  1 -1</clus>
<clus scale="   80.466">  5  6 -1 -1</clus>
<clus scale="   94.733">  7  8 -1 -1</clus>
<clus scale="   87.156">  7 10 -1 -1</clus>
<clus scale="  134.539">  1  5  2 -1</clus>
<clus scale="   43.659">  2  5  1 -1</clus>
</clustering>
</event>
<event>
10    4  0.2866397E-005  0.1503032E+03  0.7546771E-02  0.1222174E+00
         21   -1    0    0  501  502  0.00000000000E+00  0.00000000000E+00  0.15457577405E+03  0.15457577405E+03  0.00000000000E+00 0.  1.
          2   -1    0    0  503    0 -0.00000000000E+00 -0.00000000000E+00 -0.60714770194E+03  0.60714770194E+03  0.00000000000E+00 0. -1.
         24    2    1    2    0    0  0.14534367041E+02  0.39741411526E+02 -0.43302488850E+03  0.44281869886E+03  0.82384576095E+02 0.  0.
         23    2    1    2    0    0 -0.59176793174E+01 -0.90077239650E+02 -0.11590764417E+03  0.17260337685E+03  0.90600307360E+02 0.  0.
        -13    1    3    3    0    0 -0.20008926750E+01 -0.24760316054E+02 -0.88615867035E+02  0.92031780995E+02  0.00000000000E+00 0.  1.
         14    1    3    3    0    0  0.16535259716E+02  0.64501727580E+02 -0.34440902147E+03  0.35078691786E+03  0.00000000000E+00 0. -1.
        -11    1    4    4    0    0 -0.32120757650E+02 -0.90453564403E+01 -0.65838125820E+02  0.73812061051E+02  0.00000000000E+00 0. -1.
         11    1    4    4    0    0  0.26203078332E+02 -0.81031883210E+02 -0.50069518347E+02  0.98791315803E+02  0.00000000000E+00 0.  1.
         21    1    1    2  503  502 -0.37842607963E+02  0.38716415749E+02  0.10091716866E+03  0.11452204485E+03  0.00000000000E+00 0.  1.
          1    1    1    2  501    0  0.29225920239E+02  0.11619412376E+02 -0.45565638801E+01  0.31779355440E+02  0.00000000000E+00 0. -1.
<scales pt_clust_5="13000.00000" pt_clust_6="13000.00000" pt_clust_7="13000.00000" pt_clust_8="13000.00000" pt_clust_9="54.13893" pt_clust_10="13000.00000"></scales>
<clustering>
<clus scale="   54.139">  1  9  2 -1</clus>
<clus scale="   82.385">  5  6 -1 -1</clus>
<clus scale="   90.600">  7  8 -1 -1</clus>
<clus scale="   29.246">  7 10 -1 -1</clus>
<clus scale="   93.896">  2  5  1 -1</clus>
<clus scale="   54.139">  1  5  2 -1</clus>
</clustering>
</event>
<event>
10    4  0.2866397E-005  0.2558304E+03  0.7546771E-02  0.1135463E+00
         21   -1    0    0  501  502  0.00000000000E+00  0.00000000000E+00  0.49772393089E+03  0.49772393089E+03  0.00000000000E+00 0. -1.
          2   -1    0    0  503    0 -0.00000000000E+00 -0.00000000000E+00 -0.10036906279E+03  0.10036906279E+03  0.00000000000E+00 0. -1.
         24    2    1    2    0    0 -0.11454229678E+03 -0.78552879522E+01  0.22213621386E+03  0.26142380602E+03  0.76264444833E+02 0.  0.
         23    2    1    2    0    0 -0.16676074484E+02  0.21510319102E+02  0.13520593676E+03  0.16770224595E+03  0.95407613301E+02 0.  0.
        -11    1    3    3    0    0 -0.30971151107E+02  0.27415457953E+02  0.38047233629E+02  0.56199746640E+02  0.00000000000E+00 0.  1.
         12    1    3    3    0    0 -0.83571145676E+02 -0.35270745905E+02  0.18408898023E+03  0.20522405938E+03  0.00000000000E+00 0. -1.
        -11    1    4    4    0    0 -0.32656906567E+02  0.52708541308E+02  0.10229877564E+03  0.11962317238E+03  0.00000000000E+00 0. -1.
         11    1    4    4    0    0  0.15980832083E+02 -0.31198222206E+02  0.32907161121E+02  0.48079073576E+02  0.00000000000E+00 0.  1.
         21    1    1    2  503  502  0.76148137421E+01  0.31037260867E+02  0.14432333328E+02  0.35065498652E+02  0.00000000000E+00 0.  1.
          1    1    1    2  501    0  0.12360355752E+03 -0.44692292016E+02  0.25580384157E+02  0.13390144305E+03  0.00000000000E+00 0. -1.
<scales pt_clust_5="13000.00000" pt_clust_6="13000.00000" pt_clust_7="13000.00000" pt_clust_8="13000.00000" pt_clust_9="31.95775" pt_clust_10="13000.00000"></scales>
<clustering>
<clus scale="   31.958">  1  9  2 -1</clus>
<clus scale="   76.264">  5  6 -1 -1</clus>
<clus scale="   95.408">  7  8 -1 -1</clus>
<clus scale="  130.973">  7 10 -1 -1</clus>
<clus scale="  134.625">  2  5  1 -1</clus>
<clus scale="   31.958">  1  5  2 -1</clus>
</clustering>
</event>
<event>
10    4  0.2866397E-005  0.2537271E+03  0.7546771E-02  0.1137152E+00
          2   -1    0    0  503    0 -0.00000000000E+00  0.00000000000E+00  0.10920410841E+04  0.10920410841E+04  0.00000000000E+00 0. -1.
         21   -1    0    0  501  502  0.00000000000E+00 -0.00000000000E+00 -0.57417496699E+02  0.57417496699E+02  0.00000000000E+00 0. -1.
         24    2    1    2    0    0 -0.46179151938E+02  0.98362146456E+02  0.70790070030E+03  0.72056367162E+03  0.79252617856E+02 0.  0.
         23    2    1    2    0    0 -0.76921835841E+01  0.47918594071E+02  0.70869250390E+02  0.12532698169E+03  0.91263576206E+02 0.  0.
        -13    1    3    3    0    0 -0.18846901613E+02  0.49007227265E+02  0.13436386517E+03  0.14425866452E+03  0.00000000000E+00 0.  1.
         14    1    3    3    0    0 -0.27332250325E+02  0.49354919191E+02  0.57353683513E+03  0.57630500710E+03  0.00000000000E+00 0. -1.
        -11    1    4    4    0    0  0.10054152163E+01  0.69043287590E+02  0.23853178284E+02  0.73054503867E+02  0.00000000000E+00 0. -1.
         11    1    4    4    0    0 -0.86975988004E+01 -0.21124693519E+02  0.47016072106E+02  0.52272477820E+02  0.00000000000E+00 0.  1.
         21    1    1    2  503  502 -0.89751661505E+01 -0.28019737892E+02  0.48466357361E+02  0.56697858115E+02  0.00000000000E+00 0. -1.
          1    1    1    2  501    0  0.62846501672E+02 -0.11826100263E+03  0.20738727930E+03  0.24687006933E+03  0.00000000000E+00 0. -1.
<scales pt_clust_5="13000.00000" pt_clust_6="13000.00000" pt_clust_7="13000.00000" pt_clust_8="13000.00000" pt_clust_9="29.42209" pt_clust_10="13000.00000"></scales>
<clustering>
<clus scale="   29.422">  2  9  1 -1</clus>
<clus scale="   79.253">  5  6 -1 -1</clus>
<clus scale="   91.264">  7  8 -1 -1</clus>
<clus scale="  132.456">  1  5  2 -1</clus>
<clus scale="   70.117">  7 10 -1 -1</clus>
<clus scale="   29.422">  2  5  1 -1</clus>
</clustering>
</event>
<event>
10    4  0.2866397E-005  0.1892224E+03  0.7546771E-02  0.1196159E+00
         21   -1    0    0  501  502  0.00000000000E+00  0.00000000000E+00  0.11511633053E+03  0.11511633053E+03  0.00000000000E+00 0.  1.
          4   -1    0    0  503    0 -0.00000000000E+00 -0.00000000000E+00 -0.48375924544E+03  0.48375924544E+03  0.00000000000E+00 0. -1.
         24    2    1    2    0    0  0.14704099824E+02 -0.57579507897E+01 -0.15067245170E+03  0.17158067085E+03  0.80550446059E+02 0.  0.
         23    2    1    2    0    0 -0.89840093676E+02  0.37426466634E+02 -0.98129927122E+02  0.16412686961E+03  0.88522109629E+02 0.  0.
        -13    1    3    3    0    0 -0.15868772864E+02 -0.32240593944E+02 -0.10284951638E+03  0.10894630269E+03  0.00000000000E+00 0.  1.
         14    1    3    3    0    0  0.30572872687E+02  0.26482643154E+02 -0.47822935320E+02  0.62634368165E+02  0.00000000000E+00 0. -1.
        -13    1    4    4    0    0 -0.37963327236E+01 -0.24699968162E+02 -0.24197684814E+02  0.34785464201E+02  0.00000000000E+00 0. -1.
         13    1    4    4    0    0 -0.86043760952E+02  0.62126434796E+02 -0.73932242308E+02  0.12934140540E+03  0.00000000000E+00 0.  1.
         21    1    1    2  503  502  0.12453587745E+03 -0.52761977617E+02 -0.38077390205E+01  0.13530524724E+03  0.00000000000E+00 0.  1.
          3    1    1    2  501    0 -0.49399883598E+02  0.21093461772E+02 -0.11603279708E+03  0.12786278828E+03  0.00000000000E+00 0. -1.
<scales pt_clust_5="13000.00000" pt_clust_6="13000.00000" pt_clust_7="13000.00000" pt_clust_8="13000.00000" pt_clust_9="138.65485" pt_clust_10="13000.00000"></scales>
<clustering>
<clus scale="   80.550">  5  6 -1 -1</clus>
<clus scale="   82.084">  2  5  1 -1</clus>
<clus scale="   88.522">  7  8 -1 -1</clus>
<clus scale="   47.749">  7 10 -1 -1</clus>
<clus scale="  138.655">  1  9  2 -1</clus>
<clus scale="  138.655">  1  5  2 -1</clus>
</clustering>
</event>
<event>
10    4  0.2866397E-005  0.5549067E+03  0.7546771E-02  0.1003046E+00
          2   -1    0    0  503    0 -0.00000000000E+00  0.00000000000E+00  0.70126979374E+03  0.70126979374E+03  0.00000000000E+00 0. -1.
         21   -1    0    0  501  502  0.00000000000E+00 -0.00000000000E+00 -0.66134084911E+03  0.66134084911E+03  0.00000000000E+00 0. -1.
         24    2    1    2    0    0  0.94339062341E+02  0.47320490594E+03  0.22912068353E+03  0.54031739222E+03  0.81387069169E+02 0.  0.
         23    2    1    2    0    0 -0.10448977700E+03 -0.14223581686E+03  0.27181168510E+02  0.20035774486E+03  0.90858510393E+02 0.  0.
        -13    1    3    3    0    0  0.21409576580E+02  0.14735248158E+03  0.31133620142E+02  0.15211977551E+03  0.00000000000E+00 0.  1.
         14    1    3    3    0    0  0.72929485762E+02  0.32585242436E+03  0.19798706339E+03  0.38819761672E+03  0.00000000000E+00 0. -1.
        -13    1    4    4    0    0 -0.11528738844E+03 -0.10770693435E+03  0.38591697108E+02  0.16242316561E+03  0.00000000000E+00 0. -1.
         13    1    4    4    0    0  0.10797611445E+02 -0.34528882509E+02 -0.11410528598E+02  0.37934579253E+02  0.00000000000E+00 0.  1.
         21    1    1    2  503  502  0.45358939588E+01  0.58802337856E+02 -0.22442045515E+03  0.23204057826E+03  0.00000000000E+00 0.  1.
          1    1    1    2  501    0  0.56148206995E+01 -0.38977142694E+03  0.80475477451E+01  0.38989492751E+03  0.00000000000E+00 0. -1.
<scales pt_clust_5="13000.00000" pt_clust_6="13000.00000" pt_clust_7="13000.00000" pt_clust_8="13000.00000" pt_clust_9="58.97702" pt_clust_10="13000.00000"></scales>
<clustering>
<clus scale="   58.977">  2  9  1 -1</clus>
<clus scale="   81.387">  5  6 -1 -1</clus>
<clus scale="   90.859">  7  8 -1 -1</clus>
<clus scale="  363.930">  7 10 -1 -1</clus>
<clus scale="  510.094">  1  5  2 -1</clus>
<clus scale="   58.977">  2  5  1 -1</clus>
</clustering>
</event>
<event>
10    4  0.2866397E-005  0.3483832E+03  0.7546771E-02  0.1100321E+00
         21   -1    0    0  501  502  0.00000000000E+00  0.00000000000E+00  0.15375550803E+03  0.15375550803E+03  0.00000000000E+00 0.  1.
          2   -1    0    0  503    0 -0.00000000000E+00 -0.00000000000E+00 -0.57766975900E+03  0.57766975900E+03  0.00000000000E+00 0. -1.
         24    2    1    2    0    0  0.31392201946E+02 -0.10191404316E+03 -0.28600330936E+03  0.31558129516E+03  0.80135624772E+02 0.  0.
         23    2    1    2    0    0 -0.45124424934E+02  0.31804849794E+02  0.87310228631E+02  0.13566961847E+03  0.87951163475E+02 0.  0.
        -11    1    3    3    0    0  0.53374263775E+02 -0.56877340721E+02 -0.21469043302E+03  0.22842028358E+03  0.00000000000E+00 0.  1.
         12    1    3    3    0    0 -0.21982061829E+02 -0.45036702435E+02 -0.71312876342E+02  0.87161011586E+02  0.00000000000E+00 0. -1.
        -13    1    4    4    0    0 -0.34837326216E+02 -0.35715275989E+01  0.92085494535E+02  0.98519710775E+02  0.00000000000E+00 0.  1.
         13    1    4    4    0    0 -0.10287098719E+02  0.35376377393E+02 -0.47752659042E+01  0.37149907698E+02  0.00000000000E+00 0. -1.
         21    1    1    2  503  502 -0.19022125549E+02  0.46222352747E+02  0.13532824807E+01  0.50001785242E+02  0.00000000000E+00 0.  1.
          1    1    1    2  501    0  0.32754348537E+02  0.23886840615E+02 -0.22657445273E+03  0.23017256816E+03  0.00000000000E+00 0. -1.
<scales pt_clust_5="13000.00000" pt_clust_6="13000.00000" pt_clust_7="13000.00000" pt_clust_8="13000.00000" pt_clust_9="49.98347" pt_clust_10="13000.00000"></scales>
<clustering>
<clus scale="   49.983">  1  9  2 -1</clus>
<clus scale="   80.136">  5  6 -1 -1</clus>
<clus scale="   87.951">  7  8 -1 -1</clus>
<clus scale="   40.712">  7 10 -1 -1</clus>
<clus scale="  128.846">  2  5  1 -1</clus>
<clus scale="   49.983">  1  5  2 -1</clus>
</clustering>
</event>
<event>
10    4  0.2866397E-005  0.3110485E+03  0.7546771E-02  0.1117491E+00
         21   -1    0    0  501  502  0.00000000000E+00  0.00000000000E+00  0.61933939165E+02  0.61933939165E+02  0.00000000000E+00 0.  1.
          2   -1    0    0  503    0 -0.00000000000E+00 -0.00000000000E+00 -0.13521510788E+04  0.13521510788E+04  0.00000000000E+00 0. -1.
         24    2    1    2    0    0 -0.26345858596E+02  0.99239957080E+02 -0.80945558775E+02  0.15273199703E+03  0.78944322697E+02 0.  0.
         23    2    1    2    0    0  0.10022324614E+02  0.91224027595E+02 -0.34477348396E+03  0.36843189561E+03  0.91929517887E+02 0.  0.
        -13    1    3    3    0    0 -0.68263352474E+01  0.45805149217E+02  0.81506947252E+01  0.47022806937E+02  0.00000000000E+00 0.  1.
         14    1    3    3    0    0 -0.19519523349E+02  0.53434807863E+02 -0.89096253500E+02  0.10570919010E+03  0.00000000000E+00 0. -1.
        -13    1    4    4    0    0  0.38064161038E+02  0.72503164032E+02 -0.30729731686E+03  0.31802080136E+03  0.00000000000E+00 0. -1.
         13    1    4    4    0    0 -0.28041836424E+02  0.18720863563E+02 -0.37476167099E+02  0.50411094245E+02  0.00000000000E+00 0.  1.
         21    1    1    2  503  502 -0.15069805532E+01 -0.27315143226E+02 -0.23517261313E+02  0.36075609759E+02  0.00000000000E+00 0. -1.
          1    1    1    2  501    0  0.17830514535E+02 -0.16314884145E+03 -0.84098083558E+03  0.85684551555E+03  0.00000000000E+00 0. -1.
<scales pt_clust_5="13000.00000" pt_clust_6="13000.00000" pt_clust_7="13000.00000" pt_clust_8="13000.00000" pt_clust_9="27.35668" pt_clust_10="13000.00000"></scales>
<clustering>
<clus scale="   27.357">  1  9  2 -1</clus>
<clus scale="   78.944">  5  6 -1 -1</clus>
<clus scale="   91.930">  7  8 -1 -1</clus>
<clus scale="  116.794">  2  5  1 -1</clus>
<clus scale="  108.158">  7 10 -1 -1</clus>
<clus scale="   27.357">  1  5  2 -1</clus>
</clustering>
</event>
<event>
10    4  0.2866397E-005  0.6321831E+03  0.7546771E-02  0.1020025E+00
          2   -1    0    0  503    0 -0.00000000000E+00  0.00000000000E+00  0.41545747421E+03  0.41545747421E+03  0.00000000000E+00 0. -1.
         21   -1    0    0  501  502  0.00000000000E+00 -0.00000000000E+00 -0.18053944625E+04  0.18053944625E+04  0.00000000000E+00 0.  1.
         24    2    1    2    0    0  0.57074013085E+01  0.16996850611E+03  0.97640589563E+02  0.21212020828E+03  0.80866745506E+02 0.  0.
         23    2    1    2    0    0 -0.69927375126E+02  0.59008774374E+02  0.13900077725E+03  0.19036786043E+03  0.92449083097E+02 0.  0.
        -11    1    3    3    0    0  0.29187150307E+02  0.18096236862E+02  0.22507886651E+02  0.41060546674E+02  0.00000000000E+00 0.  1.
         12    1    3    3    0    0 -0.23479748999E+02  0.15187226925E+03  0.75132702912E+02  0.17105966160E+03  0.00000000000E+00 0. -1.
        -11    1    4    4    0    0 -0.15985898288E+02  0.30209142909E+02 -0.44132623182E+01  0.34461836046E+02  0.00000000000E+00 0.  1.
         11    1    4    4    0    0 -0.53941476837E+02  0.28799631466E+02  0.14341403956E+03  0.15590602439E+03  0.00000000000E+00 0. -1.
         21    1    1    2  503  502 -0.13203217146E+02  0.16271211037E+03 -0.12778779676E+04  0.12882630383E+04  0.00000000000E+00 0.  1.
          1    1    1    2  501    0  0.77423190963E+02 -0.39168939086E+03 -0.34870038756E+03  0.53010082974E+03  0.00000000000E+00 0. -1.
<scales pt_clust_5="13000.00000" pt_clust_6="13000.00000" pt_clust_7="13000.00000" pt_clust_8="13000.00000" pt_clust_9="163.24692" pt_clust_10="13000.00000"></scales>
<clustering>
<clus scale="   80.867">  5  6 -1 -1</clus>
<clus scale="   92.449">  7  8 -1 -1</clus>
<clus scale="  163.247">  2  9  1 -1</clus>
<clus scale="  204.515">  1  5  2 -1</clus>
<clus scale="  223.225">  7 10 -1 -1</clus>
<clus scale="  163.247">  2  5  1 -1</clus>
</clustering>
</event>
<event>
10    4  0.2866397E-005  0.2811677E+03  0.7546771E-02  0.1120844E+00
          2   -1    0    0  503    0 -0.00000000000E+00  0.00000000000E+00  0.35804569971E+03  0.35804569971E+03  0.00000000000E+00 0. -1.
         21   -1    0    0  501  502  0.00000000000E+00 -0.00000000000E+00 -0.27059271714E+03  0.27059271714E+03  0.00000000000E+00 0.  1.
         24    2    1    2    0    0 -0.73185554054E+01 -0.10975100676E+03 -0.17046495057E+03  0.21885296084E+03  0.82094301613E+02 0.  0.
         23    2    1    2    0    0  0.11342374649E+01 -0.11798983509E+02  0.22959965885E+03  0.24575780742E+03  0.86835442399E+02 0.  0.
        -13    1    3    3    0    0 -0.16758487937E+02 -0.95704888495E+02 -0.17600782505E+03  0.20104483848E+03  0.00000000000E+00 0.  1.
         14    1    3    3    0    0  0.94399325319E+01 -0.14046118266E+02  0.55428744802E+01  0.17808122361E+02  0.00000000000E+00 0. -1.
        -11    1    4    4    0    0 -0.37484734027E+02  0.70942196748E+01  0.15528818381E+03  0.15990576372E+03  0.00000000000E+00 0. -1.
         11    1    4    4    0    0  0.38618971492E+02 -0.18893203183E+02  0.74311475036E+02  0.85852043701E+02  0.00000000000E+00 0.  1.
         21    1    1    2  503  502 -0.23775283409E+02 -0.99439889128E+01 -0.18273071341E+01  0.25835751742E+02  0.00000000000E+00 0.  1.
          1    1    1    2  501    0  0.29959601350E+02  0.13149397918E+03  0.30145581435E+02  0.13819189685E+03  0.00000000000E+00 0. -1.
<scales pt_clust_5="13000.00000" pt_clust_6="13000.00000" pt_clust_7="13000.00000" pt_clust_8="13000.00000" pt_clust_9="25.77105" pt_clust_10="13000.00000"></scales>
<clustering>
<clus scale="   25.771">  2  9  1 -1</clus>
<clus scale="   82.094">  5  6 -1 -1</clus>
<clus scale="   86.835">  7  8 -1 -1</clus>
<clus scale="  131.787">  7 10 -1 -1</clus>
<clus scale="  145.392">  1  5  2 -1</clus>
<clus scale="   25.771">  2  5  1 -1</clus>
</clustering>
</event>
<event>
10    4  0.2866397E-005  0.1043395E+04  0.7546771E-02  0.9317744E-01
         21   -1    0    0  501  502  0.00000000000E+00  0.00000000000E+00  0.55193400467E+03  0.55193400467E+03  0.00000000000E+00 0. -1.
          2   -1    0    0  503    0 -0.00000000000E+00 -0.00000000000E+00 -0.25043082486E+04  0.25043082486E+04  0.00000000000E+00 0. -1.
         24    2    1    2    0    0  0.28872990333E+03  0.81982079723E+03 -0.10623275337E+04  0.13750503070E+04  0.82173361040E+02 0.  0.
         23    2    1    2    0    0 -0.15884528051E+03 -0.66240695059E+03 -0.41032435685E+03  0.79986748850E+03  0.86064685014E+02 0.  0.
        -13    1    3    3    0    0  0.66882309375E+02  0.13852942543E+03 -0.23138906305E+03  0.27785705590E+03  0.00000000000E+00 0.  1.
         14    1    3    3    0    0  0.22184759395E+03  0.68129137180E+03 -0.83093847064E+03  0.10971932511E+04  0.00000000000E+00 0. -1.
        -11    1    4    4    0    0 -0.32208514303E+02 -0.47245674701E+02 -0.20932527341E+02  0.60890991718E+02  0.00000000000E+00 0.  1.
         11    1    4    4    0    0 -0.12663676620E+03 -0.61516127589E+03 -0.38939182951E+03  0.73897649678E+03  0.00000000000E+00 0. -1.
         21    1    1    2  503  502 -0.34115447501E+02 -0.41271768873E+02  0.18870548480E+03  0.19615550632E+03  0.00000000000E+00 0. -1.
          1    1    1    2  501    0 -0.95769175318E+02 -0.11614207777E+03 -0.66842783820E+03  0.68516895147E+03  0.00000000000E+00 0. -1.
<scales pt_clust_5="13000.00000" pt_clust_6="13000.00000" pt_clust_7="13000.00000" pt_clust_8="13000.00000" pt_clust_9="53.54645" pt_clust_10="13000.00000"></scales>
<clustering>
<clus scale="   53.546">  1  9  2 -1</clus>
<clus scale="   82.173">  5  6 -1 -1</clus>
<clus scale="   86.065">  7  8 -1 -1</clus>
<clus scale="  151.782">  7 10 -1 -1</clus>
<clus scale="  851.331">  2  5  1 -1</clus>
<clus scale="   53.546">  1  5  2 -1</clus>
</clustering>
</event>
<event>
10    4  0.2866397E-005  0.2501765E+03  0.7546771E-02  0.1146506E+00
         21   -1    0    0  503  502  0.00000000000E+00  0.00000000000E+00  0.19895705888E+03  0.19895705888E+03  0.00000000000E+00 0.  1.
          2   -1    0    0  502    0 -0.00000000000E+00 -0.00000000000E+00 -0.60337628418E+03  0.60337628418E+03  0.00000000000E+00 0. -1.
         24    2    1    2    0    0  0.75805282562E+02  0.41129718748E+01 -0.19535890569E+03  0.22491553297E+03  0.81599862341E+02 0.  0.
         23    2    1    2    0    0  0.74357517230E+01  0.51994122276E+02 -0.20629812383E+03  0.23112686046E+03  0.90011280275E+02 0.  0.
        -13    1    3    3    0    0  0.91534778192E+01 -0.31597487735E+02 -0.84933807830E+02  0.91082045979E+02  0.00000000000E+00 0.  1.
         14    1    3    3    0    0  0.66651804743E+02  0.35710459609E+02 -0.11042509786E+03  0.13383348699E+03  0.00000000000E+00 0. -1.
        -13    1    4    4    0    0  0.45473922286E+02  0.85899464860E+01 -0.84339577931E+02  0.96202022817E+02  0.00000000000E+00 0. -1.
         13    1    4    4    0    0 -0.38038170563E+02  0.43404175790E+02 -0.12195854589E+03  0.13492483764E+03  0.00000000000E+00 0.  1.
         21    1    1    2  503  501 -0.19140814697E+02  0.70438812915E+02  0.13186662777E+03  0.15072094968E+03  0.00000000000E+00 0.  1.
          1    1    1    2  501    0 -0.64100219588E+02 -0.12654590707E+03 -0.13462882356E+03  0.19556999995E+03  0.00000000000E+00 0. -1.
<scales pt_clust_5="13000.00000" pt_clust_6="13000.00000" pt_clust_7="13000.00000" pt_clust_8="13000.00000" pt_clust_9="72.99313" pt_clust_10="13000.00000"></scales>
<clustering>
<clus scale="   72.993">  1  9  2 -1</clus>
<clus scale="   81.600">  5  6 -1 -1</clus>
<clus scale="   90.011">  7  8 -1 -1</clus>
<clus scale="  110.348">  2  5  1 -1</clus>
<clus scale="   97.136">  7 10 -1 -1</clus>
<clus scale="   72.993">  1  5  2 -1</clus>
</clustering>
</event>
<event>
10    4  0.2866397E-005  0.2431898E+03  0.7546771E-02  0.1141314E+00
          2   -1    0    0  502    0 -0.00000000000E+00  0.00000000000E+00  0.11077819748E+04  0.11077819748E+04  0.00000000000E+00 0. -1.
         21   -1    0    0  503  502  0.00000000000E+00 -0.00000000000E+00 -0.78082711058E+02  0.78082711058E+02  0.00000000000E+00 0. -1.
         24    2    1    2    0    0 -0.10890662750E+03  0.59765137752E+02  0.22649094130E+03  0.27057617525E+03  0.80503384501E+02 0.  0.
         23    2    1    2    0    0  0.34792030781E+02  0.51400180989E+02  0.26114372512E+03  0.28297061921E+03  0.89576013271E+02 0.  0.
        -13    1    3    3    0    0 -0.14199690668E+02 -0.18526505903E+02  0.22414374250E+02  0.32361501960E+02  0.00000000000E+00 0.  1.
         14    1    3    3    0    0 -0.94706936829E+02  0.78291643656E+02  0.20407656705E+03  0.23821467329E+03  0.00000000000E+00 0. -1.
        -13    1    4    4    0    0 -0.23953162728E+02  0.14524087337E+02  0.27523219360E+02  0.39271245480E+02  0.00000000000E+00 0.  1.
         13    1    4    4    0    0  0.58745193509E+02  0.36876093652E+02  0.23362050576E+03  0.24369937373E+03  0.00000000000E+00 0. -1.
         21    1    1    2  503  501  0.25853914037E+02 -0.62526747474E+01 -0.34916375124E+02  0.43893895525E+02  0.00000000000E+00 0. -1.
          1    1    1    2  501    0  0.48260682680E+02 -0.10491264399E+03  0.57698097245E+03  0.58842399588E+03  0.00000000000E+00 0. -1.
<scales pt_clust_5="13000.00000" pt_clust_6="13000.00000" pt_clust_7="13000.00000" pt_clust_8="13000.00000" pt_clust_9="26.59926" pt_clust_10="13000.00000"></scales>
<clustering>
<clus scale="   26.599">  2  9  1 -1</clus>
<clus scale="   80.503">  5  6 -1 -1</clus>
<clus scale="   89.576">  7  8 -1 -1</clus>
<clus scale="  117.960">  7 10 -1 -1</clus>
<clus scale="  136.044">  1  5  2 -1</clus>
<clus scale="   26.599">  2  5  1 -1</clus>
</clustering>
</event>
<event>
10    4  0.2866397E-005  0.2727231E+03  0.7546771E-02  0.1146171E+00
         21   -1    0    0  503  502  0.00000000000E+00  0.00000000000E+00  0.87814903438E+02  0.87814903438E+02  0.00000000000E+00 0.  1.
          4   -1    0    0  502    0 -0.00000000000E+00 -0.00000000000E+00 -0.84559145677E+03  0.84559145677E+03  0.00000000000E+00 0. -1.
         24    2    1    2    0    0 -0.16068575773E+02  0.40614333479E+01 -0.13804618952E+03  0.16129003869E+03  0.81749812059E+02 0.  0.
         23    2    1    2    0    0 -0.57653450065E+02  0.22847956192E+01 -0.54469127306E+03  0.55522472683E+03  0.90866791147E+02 0.  0.
        -11    1    3    3    0    0  0.94929823686E+01 -0.19118023804E+02 -0.25827669743E+01  0.21500842626E+02  0.00000000000E+00 0.  1.
         12    1    3    3    0    0 -0.25561558142E+02  0.23179457151E+02 -0.13546342255E+03  0.13978919607E+03  0.00000000000E+00 0. -1.
        -13    1    4    4    0    0 -0.82626852538E+02  0.14011636057E+01 -0.41498217473E+03  0.42313043540E+03  0.00000000000E+00 0.  1.
         13    1    4    4    0    0  0.24973402474E+02  0.88363201355E+00 -0.12970909834E+03  0.13209429143E+03  0.00000000000E+00 0. -1.
         21    1    1    2  503  501 -0.30276568067E+02 -0.42972609284E+02  0.33369468337E+02  0.62264252503E+02  0.00000000000E+00 0.  1.
          3    1    1    2  501    0  0.10399859390E+03  0.36626380317E+02 -0.10840855909E+03  0.15462734219E+03  0.00000000000E+00 0. -1.
<scales pt_clust_5="13000.00000" pt_clust_6="13000.00000" pt_clust_7="13000.00000" pt_clust_8="13000.00000" pt_clust_9="52.56725" pt_clust_10="13000.00000"></scales>
<clustering>
<clus scale="   52.567">  1  9  2 -1</clus>
<clus scale="   81.750">  5  6 -1 -1</clus>
<clus scale="   85.862">  2  5  1 -1</clus>
<clus scale="   90.867">  7  8 -1 -1</clus>
<clus scale="   83.525">  7 10 -1 -1</clus>
<clus scale="   52.567">  1  5  2 -1</clus>
</clustering>
</event>
<event>
10    4  0.2866397E-005  0.1883643E+03  0.7546771E-02  0.1175787E+00
         21   -1    0    0  501  502  0.00000000000E+00  0.00000000000E+00  0.26761434603E+03  0.26761434603E+03  0.00000000000E+00 0. -1.
          2   -1    0    0  503    0 -0.00000000000E+00 -0.00000000000E+00 -0.10789589496E+04  0.10789589496E+04  0.00000000000E+00 0. -1.
         24    2    1    2    0    0  0.10129840708E+03 -0.18622939912E+02 -0.87300941348E+03  0.88282673279E+03  0.81421268349E+02 0.  0.
         23    2    1    2    0    0 -0.17266769262E+02  0.57517223268E+02 -0.63231978369E+02  0.12676768120E+03  0.92007551944E+02 0.  0.
        -13    1    3    3    0    0  0.89613632264E+01 -0.32695690777E+02 -0.14845327829E+03  0.15227504740E+03  0.00000000000E+00 0.  1.
         14    1    3    3    0    0  0.92337043854E+02  0.14072750865E+02 -0.72455613519E+03  0.73055168539E+03  0.00000000000E+00 0. -1.
        -11    1    4    4    0    0 -0.27356261822E+02  0.81469599846E+01 -0.70309342227E+02  0.75882419718E+02  0.00000000000E+00 0.  1.
         11    1    4    4    0    0  0.10089492560E+02  0.49370263283E+02  0.70773638577E+01  0.50885261480E+02  0.00000000000E+00 0. -1.
         21    1    1    2  503  502 -0.11133547287E+02 -0.31576868879E+02  0.21684304957E+03  0.21941276779E+03  0.00000000000E+00 0. -1.
          1    1    1    2  501    0 -0.72898090532E+02 -0.73174144766E+01 -0.91946261252E+02  0.11756611381E+03  0.00000000000E+00 0. -1.
<scales pt_clust_5="13000.00000" pt_clust_6="13000.00000" pt_clust_7="13000.00000" pt_clust_8="13000.00000" pt_clust_9="33.48215" pt_clust_10="13000.00000"></scales>
<clustering>
<clus scale="   33.482">  1  9  2 -1</clus>
<clus scale="   81.421">  5  6 -1 -1</clus>
<clus scale="   92.008">  7  8 -1 -1</clus>
<clus scale="   77.347">  7 10 -1 -1</clus>
<clus scale="  130.926">  2  5  1 -1</clus>
<clus scale="   33.482">  1  5  2 -1</clus>
</clustering>
</event>
<event>
10    4  0.2866397E-005  0.5571282E+03  0.7546771E-02  0.1059859E+00
         21   -1    0    0  501  502  0.00000000000E+00  0.00000000000E+00  0.49006994395E+03  0.49006994395E+03  0.00000000000E+00 0. -1.
          2   -1    0    0  503    0 -0.00000000000E+00 -0.00000000000E+00 -0.92823768673E+03  0.92823768673E+03  0.00000000000E+00 0. -1.
         24    2    1    2    0    0 -0.17910195744E+02  0.46190546656E+02 -0.68627667833E+03  0.69263005156E+03  0.79412640020E+02 0.  0.
         23    2    1    2    0    0 -0.42503525787E+02  0.22451705131E+02 -0.21434452926E+03  0.23782096295E+03  0.91129602382E+02 0.  0.
        -11    1    3    3    0    0  0.25800610142E+02  0.33935104650E+02 -0.21593515513E+03  0.22010282604E+03  0.00000000000E+00 0.  1.
         12    1    3    3    0    0 -0.43710805886E+02  0.12255442005E+02 -0.47034152320E+03  0.47252722552E+03  0.00000000000E+00 0. -1.
        -13    1    4    4    0    0 -0.60672162830E+02  0.43923097433E+02 -0.15632353792E+03  0.17334185397E+03  0.00000000000E+00 0. -1.
         13    1    4    4    0    0  0.18168637043E+02 -0.21471392302E+02 -0.58020991334E+02  0.64479108980E+02  0.00000000000E+00 0.  1.
         21    1    1    2  503  502  0.27274289197E+02  0.36075731288E+02  0.14929929411E+03  0.15599879635E+03  0.00000000000E+00 0. -1.
          1    1    1    2  501    0  0.33139432334E+02 -0.10471798307E+03  0.31315417069E+03  0.33185781982E+03  0.00000000000E+00 0. -1.
<scales pt_clust_5="13000.00000" pt_clust_6="13000.00000" pt_clust_7="13000.00000" pt_clust_8="13000.00000" pt_clust_9="45.22549" pt_clust_10="13000.00000"></scales>
<clustering>
<clus scale="   45.225">  1  9  2 -1</clus>
<clus scale="   79.413">  5  6 -1 -1</clus>
<clus scale="   91.130">  7  8 -1 -1</clus>
<clus scale="   91.863">  7 10 -1 -1</clus>
<clus scale="   93.718">  2  5  1 -1</clus>
<clus scale="   45.225">  1  5  2 -1</clus>
</clustering>
</event>
<event>
10    4  0.2866397E-005  0.7151289E+03  0.7546771E-02  0.9837933E-01
         21   -1    0    0  503  502  0.00000000000E+00  0.00000000000E+00  0.58577840723E+03  0.58577840723E+03  0.00000000000E+00 0. -1.
         -1   -1    0    0    0  501 -0.00000000000E+00 -0.00000000000E+00 -0.90328355976E+03  0.90328355976E+03  0.00000000000E+00 0.  1.
         24    2    1    2    0    0 -0.16227447752E+03 -0.40336826686E+03 -0.40468766339E+03  0.59927183564E+03  0.79471147719E+02 0.  0.
         23    2    1    2    0    0  0.35444542082E+03  0.25487745339E+03 -0.56201462725E+02  0.44940991842E+03  0.90645450924E+02 0.  0.
        -11    1    3    3    0    0 -0.16613722160E+03 -0.39667294637E+03 -0.40600421276E+03  0.59143082737E+03  0.00000000000E+00 0.  1.
         12    1    3    3    0    0  0.38627440831E+01 -0.66953204966E+01  0.13165493719E+01  0.78410082676E+01  0.00000000000E+00 0. -1.
        -13    1    4    4    0    0  0.20033168935E+03  0.11163276724E+03  0.78575800254E+01  0.22946982818E+03  0.00000000000E+00 0. -1.
         13    1    4    4    0    0  0.15411373147E+03  0.14324468615E+03 -0.64059042751E+02  0.21994009024E+03  0.00000000000E+00 0.  1.
         21    1    1    2  503  501  0.26548059616E+02 -0.50606535030E+01  0.16971031990E+03  0.17184877761E+03  0.00000000000E+00 0. -1.
         -2    1    1    2    0  502 -0.21871900292E+03  0.15355146698E+03 -0.26326346315E+02  0.26853143533E+03  0.00000000000E+00 0.  1.
<scales pt_clust_5="13000.00000" pt_clust_6="13000.00000" pt_clust_7="13000.00000" pt_clust_8="13000.00000" pt_clust_9="27.02609" pt_clust_10="13000.00000"></scales>
<clustering>
<clus scale="   27.026">  1  9  2 -1</clus>
<clus scale="   79.471">  5  6 -1 -1</clus>
<clus scale="   90.645">  7  8 -1 -1</clus>
<clus scale="  260.069">  7 10 -1 -1</clus>
<clus scale="  440.831">  2  5  1 -1</clus>
<clus scale="   27.026">  1  5  2 -1</clus>
</clustering>
</event>
<event>
10    4  0.2866397E-005  0.8298759E+03  0.7546771E-02  0.1004137E+00
         -1   -1    0    0    0  501 -0.00000000000E+00  0.00000000000E+00  0.67141672592E+03  0.67141672592E+03  0.00000000000E+00 0.  1.
         21   -1    0    0  501  502  0.00000000000E+00 -0.00000000000E+00 -0.53640101627E+03  0.53640101627E+03  0.00000000000E+00 0. -1.
         24    2    1    2    0    0 -0.72989469104E+02 -0.46763725798E+02 -0.18067646707E+03  0.21581556402E+03  0.80112815891E+02 0.  0.
         23    2    1    2    0    0  0.39344099628E+03  0.16087695823E+03 -0.92901098903E+02  0.44411377267E+03  0.89046143385E+02 0.  0.
        -13    1    3    3    0    0 -0.43218010424E+02 -0.19447760966E+02 -0.22318545129E+02  0.52384437462E+02  0.00000000000E+00 0.  1.
         14    1    3    3    0    0 -0.29771458681E+02 -0.27315964832E+02 -0.15835792194E+03  0.16343112656E+03  0.00000000000E+00 0. -1.
        -13    1    4    4    0    0  0.24341998891E+03  0.54279178293E+02 -0.39669659257E+02  0.25253356621E+03  0.00000000000E+00 0. -1.
         13    1    4    4    0    0  0.15002100738E+03  0.10659777993E+03 -0.53231439647E+02  0.19158020646E+03  0.00000000000E+00 0.  1.
         21    1    1    2  503  502 -0.98053345539E+02 -0.16694341465E+02  0.41522491184E+02  0.10778347221E+03  0.00000000000E+00 0.  1.
         -2    1    1    2    0  503 -0.22239818164E+03 -0.97418890964E+02  0.36707078444E+03  0.44010493328E+03  0.00000000000E+00 0.  1.
<scales pt_clust_5="13000.00000" pt_clust_6="13000.00000" pt_clust_7="13000.00000" pt_clust_8="13000.00000" pt_clust_9="99.46441" pt_clust_10="13000.00000"></scales>
<clustering>
<clus scale="   80.113">  5  6 -1 -1</clus>
<clus scale="   89.046">  7  8 -1 -1</clus>
<clus scale="   99.464">  2  9  1 -1</clus>
<clus scale="  147.380">  1  5  2 -1</clus>
<clus scale="  338.273">  7 10 -1 -1</clus>
<clus scale="   99.464">  2  5  1 -1</clus>
</clustering>
</event>
<event>
10    4  0.2866397E-005  0.2078824E+03  0.7546771E-02  0.1162345E+00
         21   -1    0    0  503  502  0.00000000000E+00  0.00000000000E+00  0.93061217603E+02  0.93061217603E+02  0.00000000000E+00 0.  1.
          2   -1    0    0  502    0 -0.00000000000E+00 -0.00000000000E+00 -0.49292634148E+03  0.49292634148E+03  0.00000000000E+00 0. -1.
         24    2    1    2    0    0  0.84333088888E+02  0.18485845710E+02 -0.19692091519E+02  0.13148984331E+03  0.97200843883E+02 0.  0.
         23    2    1    2    0    0 -0.11435540176E+03 -0.78634424265E+02 -0.29371938430E+03  0.33499114143E+03  0.81776876478E+02 0.  0.
        -11    1    3    3    0    0  0.10366081420E+03  0.14512679910E+02 -0.30456500395E+02  0.10901275474E+03  0.00000000000E+00 0.  1.
         12    1    3    3    0    0 -0.19327725312E+02  0.39731658003E+01  0.10764408876E+02  0.22477088572E+02  0.00000000000E+00 0. -1.
        -13    1    4    4    0    0  0.60566329233E+01 -0.31007154456E+02 -0.58201964294E+02  0.66223825603E+02  0.00000000000E+00 0. -1.
         13    1    4    4    0    0 -0.12041203469E+03 -0.47627269809E+02 -0.23551742001E+03  0.26876731582E+03  0.00000000000E+00 0.  1.
         21    1    1    2  503  501 -0.18489636282E+01  0.24296606715E+02 -0.48456782791E+01  0.24844000530E+02  0.00000000000E+00 0. -1.
          1    1    1    2  501    0  0.31871276505E+02  0.35851971840E+02 -0.81607969771E+02  0.94662573813E+02  0.00000000000E+00 0. -1.
<scales pt_clust_5="13000.00000" pt_clust_6="13000.00000" pt_clust_7="13000.00000" pt_clust_8="13000.00000" pt_clust_9="24.36686" pt_clust_10="13000.00000"></scales>
<clustering>
<clus scale="   24.367">  1  9  2 -1</clus>
<clus scale="   81.777">  7  8 -1 -1</clus>
<clus scale="   49.320">  7 10 -1 -1</clus>
<clus scale="   97.201">  5  6 -1 -1</clus>
<clus scale="  132.534">  2  5  1 -1</clus>
<clus scale="   24.367">  1  5  2 -1</clus>
</clustering>
</event>
<event>
10    4  0.2866397E-005  0.4572075E+03  0.7546771E-02  0.1068676E+00
          2   -1    0    0  502    0 -0.00000000000E+00  0.00000000000E+00  0.80547980226E+03  0.80547980226E+03  0.00000000000E+00 0. -1.
         21   -1    0    0  503  502  0.00000000000E+00 -0.00000000000E+00 -0.31614656989E+03  0.31614656989E+03  0.00000000000E+00 0. -1.
         24    2    1    2    0    0 -0.10956278122E+03  0.12811022133E+02  0.16548021352E+03  0.21608272335E+03  0.84498029243E+02 0.  0.
         23    2    1    2    0    0  0.13635483418E+03 -0.15038678665E+03  0.10354726449E+03  0.24535813852E+03  0.90938186435E+02 0.  0.
        -13    1    3    3    0    0 -0.59914601405E+01  0.24007658348E+02  0.57821305871E+01  0.25410594013E+02  0.00000000000E+00 0.  1.
         14    1    3    3    0    0 -0.10357132108E+03 -0.11196636215E+02  0.15969808293E+03  0.19067212933E+03  0.00000000000E+00 0. -1.
        -11    1    4    4    0    0  0.17297853072E+02 -0.13660214232E+02 -0.16833391338E+02  0.27734098827E+02  0.00000000000E+00 0.  1.
         11    1    4    4    0    0  0.11905698111E+03 -0.13672657242E+03  0.12038065583E+03  0.21762403970E+03  0.00000000000E+00 0. -1.
         21    1    1    2  503  501  0.34647757257E+02  0.32423348654E+01 -0.20604872825E+03  0.20896664383E+03  0.00000000000E+00 0. -1.
          1    1    1    2  501    0 -0.61439810218E+02  0.13433342965E+03  0.42635448261E+03  0.45121886645E+03  0.00000000000E+00 0. -1.
<scales pt_clust_5="13000.00000" pt_clust_6="13000.00000" pt_clust_7="13000.00000" pt_clust_8="13000.00000" pt_clust_9="34.79914" pt_clust_10="13000.00000"></scales>
<clustering>
<clus scale="   34.799">  2  9  1 -1</clus>
<clus scale="   84.498">  5  6 -1 -1</clus>
<clus scale="   90.938">  7  8 -1 -1</clus>
<clus scale="  132.759">  1  5  2 -1</clus>
<clus scale="  192.058">  7 10 -1 -1</clus>
<clus scale="   34.799">  2  5  1 -1</clus>
</clustering>
</event>
<event>
10    4  0.2866397E-005  0.1555554E+03  0.7546771E-02  0.1216751E+00
         21   -1    0    0  501  502  0.00000000000E+00  0.00000000000E+00  0.14053265715E+03  0.14053265715E+03  0.00000000000E+00 0. -1.
          2   -1    0    0  503    0 -0.00000000000E+00 -0.00000000000E+00 -0.98704802357E+03  0.98704802357E+03  0.00000000000E+00 0. -1.
         24    2    1    2    0    0  0.49204397555E+02  0.92282254612E+01 -0.91887783098E+03  0.92380000795E+03  0.81016995302E+02 0.  0.
         23    2    1    2    0    0  0.19260740173E+02 -0.37378709398E+02  0.43083583964E+02  0.10794011140E+03  0.89592010884E+02 0.  0.
        -11    1    3    3    0    0  0.22175521795E+02  0.34572424795E+01 -0.53968042134E+02  0.58448745617E+02  0.00000000000E+00 0.  1.
         12    1    3    3    0    0  0.27028875759E+02  0.57709829817E+01 -0.86490978885E+03  0.86535126233E+03  0.00000000000E+00 0. -1.
        -11    1    4    4    0    0  0.48204239662E+02 -0.47937140575E+02  0.32611700290E+02  0.75399875091E+02  0.00000000000E+00 0. -1.
         11    1    4    4    0    0 -0.28943499489E+02  0.10558431177E+02  0.10471883674E+02  0.32540236312E+02  0.00000000000E+00 0.  1.
         21    1    1    2  503  502 -0.31281346826E+02 -0.19903462196E+01 -0.11065478343E+02  0.33240471541E+02  0.00000000000E+00 0.  1.
          1    1    1    2  501    0 -0.37183790902E+02  0.30140830156E+02  0.40344358942E+02  0.62600089831E+02  0.00000000000E+00 0. -1.
<scales pt_clust_5="13000.00000" pt_clust_6="13000.00000" pt_clust_7="13000.00000" pt_clust_8="13000.00000" pt_clust_9="31.34460" pt_clust_10="13000.00000"></scales>
<clustering>
<clus scale="   31.345">  1  9  2 -1</clus>
<clus scale="   81.017">  5  6 -1 -1</clus>
<clus scale="   89.592">  7  8 -1 -1</clus>
<clus scale="   57.652">  7 10 -1 -1</clus>
<clus scale="   94.927">  2  5  1 -1</clus>
<clus scale="   31.345">  1  5  2 -1</clus>
</clustering>
</event>
<event>
10    4  0.2866397E-005  0.3939490E+03  0.7546771E-02  0.1080596E+00
          4   -1    0    0  503    0 -0.00000000000E+00  0.00000000000E+00  0.16609762849E+04  0.16609762849E+04  0.00000000000E+00 0. -1.
         21   -1    0    0  501  502  0.00000000000E+00 -0.00000000000E+00 -0.18370810022E+03  0.18370810022E+03  0.00000000000E+00 0.  1.
         24    2    1    2    0    0 -0.15895136777E+02 -0.13001377687E+03  0.12988086025E+04  0.13077253378E+04  0.78009842053E+02 0.  0.
         23    2    1    2    0    0  0.14301035794E+02  0.14188698064E+03  0.26053925975E+03  0.31045375852E+03  0.90357044039E+02 0.  0.
        -11    1    3    3    0    0  0.11797919630E+02 -0.42127863552E+02  0.18461073279E+03  0.18972366868E+03  0.00000000000E+00 0.  1.
         12    1    3    3    0    0 -0.27693056408E+02 -0.87885913321E+02  0.11141978697E+04  0.11180016691E+04  0.00000000000E+00 0. -1.
        -11    1    4    4    0    0  0.26898902125E+02  0.12215608470E+03  0.14032234325E+03  0.18797877534E+03  0.00000000000E+00 0.  1.
         11    1    4    4    0    0 -0.12597866330E+02  0.19730895941E+02  0.12021691650E+03  0.12247498318E+03  0.00000000000E+00 0. -1.
         21    1    1    2  503  502  0.75159782702E+02  0.67508800136E+02 -0.24680699989E+02  0.10399792298E+03  0.00000000000E+00 0.  1.
          3    1    1    2  501    0 -0.73565681720E+02 -0.79382003904E+02 -0.57398977588E+02  0.12250736590E+03  0.00000000000E+00 0. -1.
<scales pt_clust_5="13000.00000" pt_clust_6="13000.00000" pt_clust_7="13000.00000" pt_clust_8="13000.00000" pt_clust_9="101.02688" pt_clust_10="13000.00000"></scales>
<clustering>
<clus scale="   78.010">  5  6 -1 -1</clus>
<clus scale="   90.357">  7  8 -1 -1</clus>
<clus scale="  101.027">  2  9  1 -1</clus>
<clus scale="   33.156">  7 10 -1 -1</clus>
<clus scale="  150.037">  1  5  2 -1</clus>
<clus scale="  101.027">  2  5  1 -1</clus>
</clustering>
</event>
<event>
10    4  0.2866397E-005  0.2964882E+03  0.7546771E-02  0.1133194E+00
          2   -1    0    0  502    0 -0.00000000000E+00  0.00000000000E+00  0.16411403842E+04  0.16411403842E+04  0.00000000000E+00 0. -1.
         21   -1    0    0  503  502  0.00000000000E+00 -0.00000000000E+00 -0.32442224272E+02  0.32442224272E+02  0.00000000000E+00 0.  1.
         24    2    1    2    0    0  0.37079996822E+02  0.27214667451E+02  0.13053263654E+03  0.16000005970E+03  0.80285027317E+02 0.  0.
         23    2    1    2    0    0  0.10688081762E+03  0.14904601405E+02  0.45822807831E+03  0.47977973430E+03  0.92574107492E+02 0.  0.
        -11    1    3    3    0    0 -0.10619050861E+02 -0.21123054356E+02  0.44542537804E+02  0.50428021382E+02  0.00000000000E+00 0.  1.
         12    1    3    3    0    0  0.47699047683E+02  0.48337721807E+02  0.85990098739E+02  0.10957203831E+03  0.00000000000E+00 0. -1.
        -13    1    4    4    0    0  0.31569574511E+02  0.19369772937E+01  0.26275310033E+02  0.41119117612E+02  0.00000000000E+00 0. -1.
         13    1    4    4    0    0  0.75311243110E+02  0.12967624111E+02  0.43195276828E+03  0.43866061669E+03  0.00000000000E+00 0.  1.
         21    1    1    2  503  501 -0.21914649392E+02  0.15593346455E+02  0.84599045261E+02  0.88771632691E+02  0.00000000000E+00 0.  1.
          1    1    1    2  501    0 -0.12204616505E+03 -0.57712615311E+02  0.93533839978E+03  0.94503118175E+03  0.00000000000E+00 0. -1.
<scales pt_clust_5="13000.00000" pt_clust_6="13000.00000" pt_clust_7="13000.00000" pt_clust_8="13000.00000" pt_clust_9="26.89618" pt_clust_10="13000.00000"></scales>
<clustering>
<clus scale="   26.896">  2  9  1 -1</clus>
<clus scale="   80.285">  5  6 -1 -1</clus>
<clus scale="   91.405">  1  5  2 -1</clus>
<clus scale="   92.574">  7  8 -1 -1</clus>
<clus scale="  112.294">  7 10 -1 -1</clus>
<clus scale="   26.896">  2  5  1 -1</clus>
</clustering>
</event>
<event>
10    4  0.2866397E-005  0.2911444E+03  0.7546771E-02  0.1111432E+00
         21   -1    0    0  501  502  0.00000000000E+00  0.00000000000E+00  0.62344869105E+02  0.62344869105E+02  0.00000000000E+00 0. -1.
          2   -1    0    0  503    0 -0.00000000000E+00 -0.00000000000E+00 -0.15127085587E+04  0.15127085587E+04  0.00000000000E+00 0. -1.
         24    2    1    2    0    0 -0.12954478246E+03  0.27240321328E+01 -0.67399416776E+03  0.69109957935E+03  0.81001354263E+02 0.  0.
         23    2    1    2    0    0 -0.47961206852E+01 -0.46569963180E+02 -0.18916511684E+03  0.21611866930E+03  0.93445564635E+02 0.  0.
        -13    1    3    3    0    0 -0.34834388297E+02  0.36796589410E+02 -0.27326834348E+03  0.27792626926E+03  0.00000000000E+00 0.  1.
         14    1    3    3    0    0 -0.94710394165E+02 -0.34072557277E+02 -0.40072582428E+03  0.41317331009E+03  0.00000000000E+00 0. -1.
        -11    1    4    4    0    0  0.15980551839E+02 -0.64860083229E+02 -0.16943177118E+03  0.18212450005E+03  0.00000000000E+00 0.  1.
         11    1    4    4    0    0 -0.20776672524E+02  0.18290120048E+02 -0.19733345660E+02  0.33994169257E+02  0.00000000000E+00 0. -1.
         21    1    1    2  503  502 -0.85107483019E+02 -0.11699939323E+02 -0.10922326225E+03  0.13896004197E+03  0.00000000000E+00 0. -1.
          1    1    1    2  501    0  0.21944838617E+03  0.55545870370E+02 -0.47798114271E+03  0.52887513715E+03  0.00000000000E+00 0. -1.
<scales pt_clust_5="13000.00000" pt_clust_6="13000.00000" pt_clust_7="13000.00000" pt_clust_8="13000.00000" pt_clust_9="85.90793" pt_clust_10="13000.00000"></scales>
<clustering>
<clus scale="   81.001">  5  6 -1 -1</clus>
<clus scale="   85.908">  1  9  2 -1</clus>
<clus scale="   93.446">  7  8 -1 -1</clus>
<clus scale="  165.984">  2  5  1 -1</clus>
<clus scale="  106.580">  7 10 -1 -1</clus>
<clus scale="   85.908">  1  5  2 -1</clus>
</clustering>
</event>
<event>
10    4  0.2866397E-005  0.4384947E+03  0.7546771E-02  0.1075218E+00
         21   -1    0    0  503  502  0.00000000000E+00  0.00000000000E+00  0.91178306381E+02  0.91178306381E+02  0.00000000000E+00 0.  1.
          2   -1    0    0  502    0 -0.00000000000E+00 -0.00000000000E+00 -0.16385828341E+04  0.16385828341E+04  0.00000000000E+00 0. -1.
         24    2    1    2    0    0 -0.71461934203E+02  0.69624517290E+02 -0.20294804044E+03  0.24231667774E+03  0.87034957024E+02 0.  0.
         23    2    1    2    0    0  0.68919982925E+02 -0.22961217462E+03 -0.70110175559E+03  0.74655552751E+03  0.91267569161E+02 0.  0.
        -11    1    3    3    0    0 -0.70553267582E+02  0.83054772312E+01 -0.10623358283E+03  0.12779796023E+03  0.00000000000E+00 0.  1.
         12    1    3    3    0    0 -0.90866662154E+00  0.61319040059E+02 -0.96714457607E+02  0.11451871750E+03  0.00000000000E+00 0. -1.
        -11    1    4    4    0    0  0.61732579075E+02 -0.78594111187E+02 -0.20740751216E+03  0.23022993232E+03  0.00000000000E+00 0.  1.
         11    1    4    4    0    0  0.71874038505E+01 -0.15101806343E+03 -0.49369424343E+03  0.51632559519E+03  0.00000000000E+00 0. -1.
         21    1    1    2  503  501  0.22124250720E+02 -0.11930451349E+02  0.33718179186E+02  0.42056316374E+02  0.00000000000E+00 0.  1.
          1    1    1    2  501    0 -0.19582299442E+02  0.17191810868E+03 -0.67707291091E+03  0.69883261890E+03  0.00000000000E+00 0. -1.
<scales pt_clust_5="13000.00000" pt_clust_6="13000.00000" pt_clust_7="13000.00000" pt_clust_8="13000.00000" pt_clust_9="25.13599" pt_clust_10="13000.00000"></scales>
<clustering>
<clus scale="   25.136">  1  9  2 -1</clus>
<clus scale="   87.035">  5  6 -1 -1</clus>
<clus scale="   91.268">  7  8 -1 -1</clus>
<clus scale="  125.833">  2  5  1 -1</clus>
<clus scale="  204.716">  7 10 -1 -1</clus>
<clus scale="   25.136">  1  5  2 -1</clus>
</clustering>
</event>
<event>
10    4  0.2866397E-005  0.1554363E+03  0.7546771E-02  0.1224767E+00
          2   -1    0    0  502    0 -0.00000000000E+00  0.00000000000E+00  0.63301694337E+03  0.63301694337E+03  0.00000000000E+00 0. -1.
         21   -1    0    0  503  502  0.00000000000E+00 -0.00000000000E+00 -0.36405373410E+02  0.36405373410E+02  0.00000000000E+00 0. -1.
         24    2    1    2    0    0  0.48356454100E+01 -0.15513381257E+02  0.17160382975E+03  0.18988841311E+03  0.79659817866E+02 0.  0.
         23    2    1    2    0    0 -0.28580730827E+02 -0.50920535197E+02  0.23235981822E+03  0.25687671398E+03  0.92654206499E+02 0.  0.
        -11    1    3    3    0    0 -0.30532000310E+02  0.16462625177E+01  0.12610830370E+03  0.12976215737E+03  0.00000000000E+00 0.  1.
         12    1    3    3    0    0  0.35367645720E+02 -0.17159643774E+02  0.45495526048E+02  0.60126255734E+02  0.00000000000E+00 0. -1.
        -11    1    4    4    0    0 -0.61307777523E+01  0.27363644389E+02  0.62509406764E+02  0.68511177220E+02  0.00000000000E+00 0.  1.
         11    1    4    4    0    0 -0.22449953074E+02 -0.78284179586E+02  0.16985041146E+03  0.18836553676E+03  0.00000000000E+00 0. -1.
         21    1    1    2  503  501  0.13936047859E+02  0.29325473163E+02  0.71716453638E+01  0.33251004547E+02  0.00000000000E+00 0. -1.
          1    1    1    2  501    0  0.98090375577E+01  0.37108443290E+02  0.18547627663E+03  0.18940618515E+03  0.00000000000E+00 0. -1.
<scales pt_clust_5="13000.00000" pt_clust_6="13000.00000" pt_clust_7="13000.00000" pt_clust_8="13000.00000" pt_clust_9="32.46840" pt_clust_10="13000.00000"></scales>
<clustering>
<clus scale="   32.468">  2  9  1 -1</clus>
<clus scale="   79.660">  5  6 -1 -1</clus>
<clus scale="   80.423">  1  5  2 -1</clus>
<clus scale="   92.654">  7  8 -1 -1</clus>
<clus scale="   40.867">  7 10 -1 -1</clus>
<clus scale="   32.468">  2  5  1 -1</clus>
</clustering>
</event>
<event>
10    4  0.2866397E-005  0.1955210E+03  0.7546771E-02  0.1172971E+00
         21   -1    0    0  503  502  0.00000000000E+00  0.00000000000E+00  0.48443672964E+03  0.48443672964E+03  0.00000000000E+00 0.  1.
          4   -1    0    0  502    0 -0.00000000000E+00 -0.00000000000E+00 -0.16732004770E+03  0.16732004770E+03  0.00000000000E+00 0. -1.
         24    2    1    2    0    0  0.81377191679E+02 -0.79187414843E+01 -0.40851586555E+02  0.12158354264E+03  0.80179498159E+02 0.  0.
         23    2    1    2    0    0 -0.46419215866E+02  0.54092307548E+01 -0.13042797227E+02  0.10299041317E+03  0.90845513183E+02 0.  0.
        -13    1    3    3    0    0  0.42710740570E+02 -0.19917403026E+02  0.17748844284E+02  0.50358035871E+02  0.00000000000E+00 0.  1.
         14    1    3    3    0    0  0.38666451109E+02  0.11998661542E+02 -0.58600430839E+02  0.71225506771E+02  0.00000000000E+00 0. -1.
        -11    1    4    4    0    0 -0.21844761953E+02  0.26387627659E+02  0.32453335030E+02  0.47188128516E+02  0.00000000000E+00 0. -1.
         11    1    4    4    0    0 -0.24574453913E+02 -0.20978396904E+02 -0.45496132257E+02  0.55802284650E+02  0.00000000000E+00 0.  1.
         21    1    1    2  503  501  0.66121194490E+02 -0.21076818762E+02  0.28210786709E+03  0.29051866261E+03  0.00000000000E+00 0.  1.
          3    1    1    2  501    0 -0.10107917030E+03  0.23586329491E+02  0.88903198634E+02  0.13666415893E+03  0.00000000000E+00 0. -1.
<scales pt_clust_5="13000.00000" pt_clust_6="13000.00000" pt_clust_7="13000.00000" pt_clust_8="13000.00000" pt_clust_9="69.39917" pt_clust_10="13000.00000"></scales>
<clustering>
<clus scale="   69.399">  1  9  2 -1</clus>
<clus scale="   80.179">  5  6 -1 -1</clus>
<clus scale="   90.846">  7  8 -1 -1</clus>
<clus scale="   64.489">  7 10 -1 -1</clus>
<clus scale="  124.797">  2  5  1 -1</clus>
<clus scale="   69.399">  1  5  2 -1</clus>
</clustering>
</event>
<event>
10    4  0.2866397E-005  0.4122873E+03  0.7546771E-02  0.1062511E+00
         21   -1    0    0  503  502  0.00000000000E+00  0.00000000000E+00  0.40255237800E+03  0.40255237800E+03  0.00000000000E+00 0. -1.
          2   -1    0    0  502    0 -0.00000000000E+00 -0.00000000000E+00 -0.48273454615E+03  0.48273454615E+03  0.00000000000E+00 0. -1.
         24    2    1    2    0    0 -0.20710181419E+02 -0.22831649549E+03  0.15828758545E+03  0.29023264064E+03  0.81379925420E+02 0.  0.
         23    2    1    2    0    0  0.30677819158E+02 -0.86832556575E+02 -0.74476935518E+02  0.14934433590E+03  0.90971947722E+02 0.  0.
        -11    1    3    3    0    0 -0.48396697177E+02 -0.90776130590E+02  0.62889250044E+02  0.12057198660E+03  0.00000000000E+00 0.  1.
         12    1    3    3    0    0  0.27686515758E+02 -0.13754036490E+03  0.95398335407E+02  0.16966065404E+03  0.00000000000E+00 0. -1.
        -13    1    4    4    0    0 -0.15043150403E+02 -0.76602567594E+02 -0.64909845915E+02  0.10152604510E+03  0.00000000000E+00 0.  1.
         13    1    4    4    0    0  0.45720969561E+02 -0.10229988981E+02 -0.95670896023E+01  0.47818290806E+02  0.00000000000E+00 0. -1.
         21    1    1    2  503  501  0.24285521801E+02  0.42936332153E+02  0.69648163684E+02  0.85347418781E+02  0.00000000000E+00 0.  1.
          1    1    1    2  501    0 -0.34253159540E+02  0.27221271991E+03 -0.23364098177E+03  0.36036252883E+03  0.00000000000E+00 0. -1.
<scales pt_clust_5="13000.00000" pt_clust_6="13000.00000" pt_clust_7="13000.00000" pt_clust_8="13000.00000" pt_clust_9="49.32864" pt_clust_10="13000.00000"></scales>
<clustering>
<clus scale="   49.329">  1  9  2 -1</clus>
<clus scale="   81.380">  5  6 -1 -1</clus>
<clus scale="   90.972">  7  8 -1 -1</clus>
<clus scale="  214.750">  2  5  1 -1</clus>
<clus scale="  137.065">  7 10 -1 -1</clus>
<clus scale="   49.329">  1  5  2 -1</clus>
</clustering>
</event>
<event>
10    4  0.2866397E-005  0.2503775E+03  0.7546771E-02  0.1150993E+00
          2   -1    0    0  503    0 -0.00000000000E+00  0.00000000000E+00  0.10538571489E+04  0.10538571489E+04  0.00000000000E+00 0. -1.
         21   -1    0    0  501  502  0.00000000000E+00 -0.00000000000E+00 -0.12430475258E+03  0.12430475258E+03  0.00000000000E+00 0.  1.
         24    2    1    2    0    0  0.58420212357E+02  0.46285365472E+01  0.79178122582E+03  0.79811529421E+03  0.81462683039E+02 0.  0.
         23    2    1    2    0    0  0.33006228247E+00 -0.71917770236E+02  0.86065561558E+02  0.14443477144E+03  0.91004657562E+02 0.  0.
        -13    1    3    3    0    0 -0.10945140182E+02 -0.20886582225E+02  0.12114035750E+03  0.12341406575E+03  0.00000000000E+00 0.  1.
         14    1    3    3    0    0  0.69365352539E+02  0.25515118772E+02  0.67064086833E+03  0.67470122846E+03  0.00000000000E+00 0. -1.
        -13    1    4    4    0    0 -0.40732657696E+02 -0.35107059053E+02  0.17727244359E+02  0.56620757597E+02  0.00000000000E+00 0.  1.
         13    1    4    4    0    0  0.41062719978E+02 -0.36810711183E+02  0.68338317199E+02  0.87814013844E+02  0.00000000000E+00 0. -1.
         21    1    1    2  503  502 -0.53532623369E+02 -0.66926458367E+02 -0.12723051112E+02  0.86641610234E+02  0.00000000000E+00 0.  1.
          1    1    1    2  501    0 -0.52176512710E+01  0.13421569206E+03  0.64428660074E+02  0.14897022561E+03  0.00000000000E+00 0. -1.
<scales pt_clust_5="13000.00000" pt_clust_6="13000.00000" pt_clust_7="13000.00000" pt_clust_8="13000.00000" pt_clust_9="85.70235" pt_clust_10="13000.00000"></scales>
<clustering>
<clus scale="   81.463">  5  6 -1 -1</clus>
<clus scale="   85.702">  2  9  1 -1</clus>
<clus scale="   91.005">  7  8 -1 -1</clus>
<clus scale="   98.954">  1  5  2 -1</clus>
<clus scale="   98.259">  7 10 -1 -1</clus>
<clus scale="   85.702">  2  5  1 -1</clus>
</clustering>
</event>
<event>
10    4  0.2866397E-005  0.5434538E+03  0.7546771E-02  0.1037462E+00
         21   -1    0    0  503  502  0.00000000000E+00  0.00000000000E+00  0.33023385222E+03  0.33023385222E+03  0.00000000000E+00 0. -1.
          2   -1    0    0  502    0 -0.00000000000E+00 -0.00000000000E+00 -0.71431207690E+03  0.71431207690E+03  0.00000000000E+00 0. -1.
         24    2    1    2    0    0 -0.13469178451E+03 -0.12101450513E+03 -0.25038895296E+03  0.31904014220E+03  0.79407791216E+02 0.  0.
         23    2    1    2    0    0 -0.17097863532E+03  0.14907255606E+02  0.22890680232E+02  0.19572286793E+03  0.91255343864E+02 0.  0.
        -11    1    3    3    0    0 -0.14442823057E+02 -0.51087831514E+02 -0.38537504743E+02  0.65602598565E+02  0.00000000000E+00 0.  1.
         12    1    3    3    0    0 -0.12024896145E+03 -0.69926673618E+02 -0.21185144822E+03  0.25343754364E+03  0.00000000000E+00 0. -1.
        -13    1    4    4    0    0 -0.12730375973E+03  0.36194566896E+01  0.56642904860E+02  0.13938352262E+03  0.00000000000E+00 0. -1.
         13    1    4    4    0    0 -0.43674875593E+02  0.11287798917E+02 -0.33752224628E+02  0.56339345309E+02  0.00000000000E+00 0.  1.
         21    1    1    2  503  501  0.40272108910E+02  0.13901791611E+02  0.12496760111E+03  0.13203031430E+03  0.00000000000E+00 0.  1.
          1    1    1    2  501    0  0.26539831092E+03  0.92205457915E+02 -0.28154755306E+03  0.39775260469E+03  0.00000000000E+00 0. -1.
<scales pt_clust_5="13000.00000" pt_clust_6="13000.00000" pt_clust_7="13000.00000" pt_clust_8="13000.00000" pt_clust_9="42.60402" pt_clust_10="13000.00000"></scales>
<clustering>
<clus scale="   42.604">  1  9  2 -1</clus>
<clus scale="   79.408">  5  6 -1 -1</clus>
<clus scale="   91.255">  7  8 -1 -1</clus>
<clus scale="  191.641">  2  5  1 -1</clus>
<clus scale="  170.655">  7 10 -1 -1</clus>
<clus scale="   42.604">  1  5  2 -1</clus>
</clustering>
</event>
<event>
10    4  0.2866397E-005  0.2015686E+03  0.7546771E-02  0.1165508E+00
          2   -1    0    0  503    0 -0.00000000000E+00  0.00000000000E+00  0.35290376794E+03  0.35290376794E+03  0.00000000000E+00 0. -1.
         21   -1    0    0  501  502  0.00000000000E+00 -0.00000000000E+00 -0.22590177299E+03  0.22590177299E+03  0.00000000000E+00 0.  1.
         24    2    1    2    0    0 -0.92212724281E+01 -0.93189409768E+02 -0.93468474705E+02  0.15571658768E+03  0.82109694660E+02 0.  0.
         23    2    1    2    0    0  0.25894113666E+02  0.23893575158E+02  0.91018314540E+02  0.13346169922E+03  0.91029025704E+02 0.  0.
        -13    1    3    3    0    0 -0.27174171526E+02 -0.37349473512E+02 -0.84610046141E+02  0.96396466106E+02  0.00000000000E+00 0.  1.
         14    1    3    3    0    0  0.17952899098E+02 -0.55839936255E+02 -0.88584285647E+01  0.59320121575E+02  0.00000000000E+00 0. -1.
        -11    1    4    4    0    0  0.31720163901E+02  0.44701952859E+02  0.18591077034E+02  0.57879716072E+02  0.00000000000E+00 0.  1.
         11    1    4    4    0    0 -0.58260502349E+01 -0.20808377701E+02  0.72427237506E+02  0.75581983148E+02  0.00000000000E+00 0. -1.
         21    1    1    2  503  502  0.28376847151E+02 -0.16808832528E+02 -0.64639322584E+02  0.72567377859E+02  0.00000000000E+00 0.  1.
          1    1    1    2  501    0 -0.45049688388E+02  0.86104667138E+02  0.19409147770E+03  0.21705987617E+03  0.00000000000E+00 0. -1.
<scales pt_clust_5="13000.00000" pt_clust_6="13000.00000" pt_clust_7="13000.00000" pt_clust_8="13000.00000" pt_clust_9="32.98154" pt_clust_10="13000.00000"></scales>
<clustering>
<clus scale="   32.982">  2  9  1 -1</clus>
<clus scale="   82.110">  5  6 -1 -1</clus>
<clus scale="   91.029">  7  8 -1 -1</clus>
<clus scale="   95.138">  7 10 -1 -1</clus>
<clus scale="  135.132">  1  5  2 -1</clus>
<clus scale="   32.982">  2  5  1 -1</clus>
</clustering>
</event>
<event>
10    4  0.2866397E-005  0.3909405E+03  0.7546771E-02  0.1077253E+00
         21   -1    0    0  503  502  0.00000000000E+00  0.00000000000E+00  0.25430826002E+03  0.25430826002E+03  0.00000000000E+00 0. -1.
          2   -1    0    0  502    0 -0.00000000000E+00 -0.00000000000E+00 -0.14835377207E+04  0.14835377207E+04  0.00000000000E+00 0. -1.
         24    2    1    2    0    0  0.10231360546E+03  0.10831367069E+03 -0.47116904251E+03  0.50037775714E+03  0.78598397565E+02 0.  0.
         23    2    1    2    0    0  0.43847981907E+01  0.13994281718E+03 -0.40949904734E+03  0.44212806547E+03  0.90468436268E+02 0.  0.
        -11    1    3    3    0    0  0.37555603029E+02  0.48558941827E+02 -0.31624956241E+03  0.32215241714E+03  0.00000000000E+00 0.  1.
         12    1    3    3    0    0  0.64758002436E+02  0.59754728864E+02 -0.15491948011E+03  0.17822534000E+03  0.00000000000E+00 0. -1.
        -13    1    4    4    0    0  0.41003871453E+02  0.70299455713E+02 -0.14622172304E+03  0.16734432538E+03  0.00000000000E+00 0.  1.
         13    1    4    4    0    0 -0.36619073262E+02  0.69643361469E+02 -0.26327732431E+03  0.27478374009E+03  0.00000000000E+00 0. -1.
         21    1    1    2  503  501  0.84529859108E+02 -0.10356883158E+03  0.17456342118E+03  0.21987311789E+03  0.00000000000E+00 0. -1.
          1    1    1    2  501    0 -0.19122826276E+03 -0.14468765630E+03 -0.52312479197E+03  0.57546704019E+03  0.00000000000E+00 0. -1.
<scales pt_clust_5="13000.00000" pt_clust_6="13000.00000" pt_clust_7="13000.00000" pt_clust_8="13000.00000" pt_clust_9="133.68545" pt_clust_10="13000.00000"></scales>
<clustering>
<clus scale="   78.598">  5  6 -1 -1</clus>
<clus scale="   90.468">  7  8 -1 -1</clus>
<clus scale="  133.685">  1  9  2 -1</clus>
<clus scale="  168.026">  2  5  1 -1</clus>
<clus scale="  160.699">  7 10 -1 -1</clus>
<clus scale="  133.685">  1  5  2 -1</clus>
</clustering>
</event>
<event>
10    4  0.2866397E-005  0.3152580E+03  0.7546771E-02  0.1090920E+00
          2   -1    0    0  502    0 -0.00000000000E+00  0.00000000000E+00  0.48888678405E+03  0.48888678405E+03  0.00000000000E+00 0. -1.
         21   -1    0    0  503  502  0.00000000000E+00 -0.00000000000E+00 -0.52824928110E+03  0.52824928110E+03  0.00000000000E+00 0. -1.
         24    2    1    2    0    0  0.12415190482E+02 -0.22999350017E+03 -0.38588861504E+03  0.45641810356E+03  0.79726500981E+02 0.  0.
         23    2    1    2    0    0 -0.58246436490E+01  0.10033741539E+02  0.49634191080E+02  0.10819772576E+03  0.95438946414E+02 0.  0.
        -11    1    3    3    0    0  0.17042316516E+02 -0.29837044625E+02 -0.11202192650E+03  0.11717338350E+03  0.00000000000E+00 0.  1.
         12    1    3    3    0    0 -0.46271260336E+01 -0.20015645555E+03 -0.27386668854E+03  0.33924472006E+03  0.00000000000E+00 0. -1.
        -11    1    4    4    0    0 -0.47295302394E+02  0.22160074758E+02  0.33639019074E+02  0.62124859325E+02  0.00000000000E+00 0. -1.
         11    1    4    4    0    0  0.41470658745E+02 -0.12126333219E+02  0.15995172006E+02  0.46072866436E+02  0.00000000000E+00 0.  1.
         21    1    1    2  503  501  0.17255443595E+02  0.27432497506E+02 -0.47349220320E+02  0.57378052581E+02  0.00000000000E+00 0.  1.
          1    1    1    2  501    0 -0.23845990428E+02  0.19252726113E+03  0.34424114723E+03  0.39514218325E+03  0.00000000000E+00 0. -1.
<scales pt_clust_5="13000.00000" pt_clust_6="13000.00000" pt_clust_7="13000.00000" pt_clust_8="13000.00000" pt_clust_9="32.40821" pt_clust_10="13000.00000"></scales>
<clustering>
<clus scale="   32.408">  2  9  1 -1</clus>
<clus scale="   79.727">  5  6 -1 -1</clus>
<clus scale="   95.439">  7  8 -1 -1</clus>
<clus scale="  195.344">  7 10 -1 -1</clus>
<clus scale="  222.356">  1  5  2 -1</clus>
<clus scale="   32.408">  2  5  1 -1</clus>
</clustering>
</event>
<event>
10    4  0.2866397E-005  0.2362753E+03  0.7546771E-02  0.1169052E+00
          2   -1    0    0  502    0 -0.00000000000E+00  0.00000000000E+00  0.19615332380E+03  0.19615332380E+03  0.00000000000E+00 0. -1.
         21   -1    0    0  503  502  0.00000000000E+00 -0.00000000000E+00 -0.35164810275E+03  0.35164810275E+03  0.00000000000E+00 0. -1.
         24    2    1    2    0    0 -0.78950756028E+01 -0.10245374044E+02  0.11650804952E+03  0.13970341594E+03  0.75997492809E+02 0.  0.
         23    2    1    2    0    0 -0.59621398400E+01  0.97045609717E+01  0.29222126610E+02  0.95359365836E+02  0.90054152341E+02 0.  0.
        -13    1    3    3    0    0  0.32131651923E+02 -0.17151805378E+02  0.57578269786E+02  0.68131377753E+02  0.00000000000E+00 0.  1.
         14    1    3    3    0    0 -0.40026727526E+02  0.69064313342E+01  0.58929779735E+02  0.71572038184E+02  0.00000000000E+00 0. -1.
        -11    1    4    4    0    0  0.29948425570E+02  0.15944341770E+02  0.44397941670E+02  0.55877611376E+02  0.00000000000E+00 0.  1.
         11    1    4    4    0    0 -0.35910565410E+02 -0.62397807980E+01 -0.15175815060E+02  0.39481754460E+02  0.00000000000E+00 0. -1.
         21    1    1    2  503  501  0.72006989655E+01 -0.39858734994E+02 -0.11105118320E+03  0.11820716607E+03  0.00000000000E+00 0. -1.
          1    1    1    2  501    0  0.66565164773E+01  0.40399548066E+02 -0.19017377187E+03  0.19453147870E+03  0.00000000000E+00 0. -1.
<scales pt_clust_5="13000.00000" pt_clust_6="13000.00000" pt_clust_7="13000.00000" pt_clust_8="13000.00000" pt_clust_9="40.50394" pt_clust_10="13000.00000"></scales>
<clustering>
<clus scale="   40.504">  2  9  1 -1</clus>
<clus scale="   75.997">  5  6 -1 -1</clus>
<clus scale="   77.339">  1  5  2 -1</clus>
<clus scale="   90.054">  7  8 -1 -1</clus>
<clus scale="   13.993">  7 10 -1 -1</clus>
<clus scale="   40.504">  2  5  1 -1</clus>
</clustering>
</event>
<event>
10    4  0.2866397E-005  0.7819096E+03  0.7546771E-02  0.1023365E+00
          2   -1    0    0  502    0 -0.00000000000E+00  0.00000000000E+00  0.20995340693E+03  0.20995340693E+03  0.00000000000E+00 0. -1.
         21   -1    0    0  503  502  0.00000000000E+00 -0.00000000000E+00 -0.13326843756E+04  0.13326843756E+04  0.00000000000E+00 0. -1.
         24    2    1    2    0    0 -0.43143774473E+02  0.33969547928E+02 -0.28168457036E+03  0.29815694156E+03  0.80845835747E+02 0.  0.
         23    2    1    2    0    0  0.26628336233E+03  0.32007101327E+03 -0.58798085881E+03  0.72613827411E+03  0.90570526119E+02 0.  0.
        -11    1    3    3    0    0  0.21156705391E+02 -0.58015755744E+01 -0.55940743302E+02  0.60088528218E+02  0.00000000000E+00 0.  1.
         12    1    3    3    0    0 -0.64300479864E+02  0.39771123503E+02 -0.22574382706E+03  0.23806841334E+03  0.00000000000E+00 0. -1.
        -11    1    4    4    0    0  0.16152881618E+03  0.12605149058E+03 -0.26232622208E+03  0.33285970547E+03  0.00000000000E+00 0.  1.
         11    1    4    4    0    0  0.10475454615E+03  0.19401952269E+03 -0.32565463674E+03  0.39327856864E+03  0.00000000000E+00 0. -1.
         21    1    1    2  503  501 -0.31816343835E+02 -0.12988602918E+03 -0.16163559546E+03  0.20978256846E+03  0.00000000000E+00 0. -1.
          1    1    1    2  501    0 -0.19132324402E+03 -0.22415453202E+03 -0.91429943991E+02  0.30855999836E+03  0.00000000000E+00 0. -1.
<scales pt_clust_5="13000.00000" pt_clust_6="13000.00000" pt_clust_7="13000.00000" pt_clust_8="13000.00000" pt_clust_9="131.14924" pt_clust_10="13000.00000"></scales>
<clustering>
<clus scale="   80.846">  5  6 -1 -1</clus>
<clus scale="   90.571">  7  8 -1 -1</clus>
<clus scale="   97.731">  1  5  2 -1</clus>
<clus scale="  131.149">  2  9  1 -1</clus>
<clus scale="  337.520">  7 10 -1 -1</clus>
<clus scale="  131.149">  2  5  1 -1</clus>
</clustering>
</event>
<event>
10    4  0.2866397E-005  0.3584659E+03  0.7546771E-02  0.1088013E+00
          2   -1    0    0  502    0 -0.00000000000E+00  0.00000000000E+00  0.15050862874E+04  0.15050862874E+04  0.00000000000E+00 0. -1.
         21   -1    0    0  503  502  0.00000000000E+00 -0.00000000000E+00 -0.17637815146E+03  0.17637815146E+03  0.00000000000E+00 0.  1.
         24    2    1    2    0    0 -0.10681546416E+03  0.92910162142E+02  0.10149790302E+04  0.10281163239E+04  0.82455455829E+02 0.  0.
         23    2    1    2    0    0 -0.71259292954E+01  0.35084778374E+02  0.36311941247E+03  0.37628868214E+03  0.91955119776E+02 0.  0.
        -13    1    3    3    0    0 -0.43760682622E+02  0.19327079268E+01  0.15595358054E+03  0.16198843164E+03  0.00000000000E+00 0.  1.
         14    1    3    3    0    0 -0.63054781533E+02  0.90977454215E+02  0.85902544966E+03  0.86612789230E+03  0.00000000000E+00 0. -1.
        -13    1    4    4    0    0  0.34864166852E+01  0.64376186973E+02  0.19724667854E+03  0.20751554339E+03  0.00000000000E+00 0.  1.
         13    1    4    4    0    0 -0.10612345981E+02 -0.29291408599E+02  0.16587273393E+03  0.16877313875E+03  0.00000000000E+00 0. -1.
         21    1    1    2  503  501 -0.94313960727E+01 -0.20523804824E+02 -0.10256096813E+03  0.10501871252E+03  0.00000000000E+00 0.  1.
          1    1    1    2  501    0  0.12337278952E+03 -0.10747113569E+03  0.53170661428E+02  0.17204072029E+03  0.00000000000E+00 0. -1.
<scales pt_clust_5="13000.00000" pt_clust_6="13000.00000" pt_clust_7="13000.00000" pt_clust_8="13000.00000" pt_clust_9="22.58712" pt_clust_10="13000.00000"></scales>
<clustering>
<clus scale="   22.587">  2  9  1 -1</clus>
<clus scale="   82.455">  5  6 -1 -1</clus>
<clus scale="   91.955">  7  8 -1 -1</clus>
<clus scale="  163.347">  1  5  2 -1</clus>
<clus scale="  134.670">  7 10 -1 -1</clus>
<clus scale="   22.587">  2  5  1 -1</clus>
</clustering>
</event>
<event>
10    4  0.2866397E-005  0.2657812E+03  0.7546771E-02  0.1113997E+00
          2   -1    0    0  503    0 -0.00000000000E+00  0.00000000000E+00  0.12283993967E+04  0.12283993967E+04  0.00000000000E+00 0. -1.
         21   -1    0    0  501  502  0.00000000000E+00 -0.00000000000E+00 -0.12496448425E+03  0.12496448425E+03  0.00000000000E+00 0. -1.
         24    2    1    2    0    0  0.71411722519E+02 -0.15286066503E+03  0.65928079039E+03  0.68528380669E+03  0.80602221432E+02 0.  0.
         23    2    1    2    0    0 -0.30398017607E+02  0.42001497423E+02  0.21352033413E+03  0.23708283535E+03  0.89045900931E+02 0.  0.
        -13    1    3    3    0    0  0.20075019872E+02  0.52364166833E+01  0.75764573342E+02  0.78553784481E+02  0.00000000000E+00 0.  1.
         14    1    3    3    0    0  0.51336702647E+02 -0.15809708172E+03  0.58351621705E+03  0.60673002221E+03  0.00000000000E+00 0. -1.
        -11    1    4    4    0    0 -0.52992040036E+02  0.25356600235E+02  0.19450787595E+03  0.20318569656E+03  0.00000000000E+00 0.  1.
         11    1    4    4    0    0  0.22594022430E+02  0.16644897188E+02  0.19012458179E+02  0.33897138787E+02  0.00000000000E+00 0. -1.
         21    1    1    2  503  502  0.74989740592E+02 -0.69564898078E+02 -0.16663212040E+02  0.10363589568E+03  0.00000000000E+00 0. -1.
          1    1    1    2  501    0 -0.11600344550E+03  0.18042406569E+03  0.24729699996E+03  0.32736134322E+03  0.00000000000E+00 0. -1.
<scales pt_clust_5="13000.00000" pt_clust_6="13000.00000" pt_clust_7="13000.00000" pt_clust_8="13000.00000" pt_clust_9="102.28752" pt_clust_10="13000.00000"></scales>
<clustering>
<clus scale="   80.602">  5  6 -1 -1</clus>
<clus scale="   89.046">  7  8 -1 -1</clus>
<clus scale="  102.288">  2  9  1 -1</clus>
<clus scale="  154.114">  7 10 -1 -1</clus>
<clus scale="  204.446">  1  5  2 -1</clus>
<clus scale="  102.288">  2  5  1 -1</clus>
</clustering>
</event>
<event>
10    4  0.2866397E-005  0.2529087E+03  0.7546771E-02  0.1150055E+00
         21   -1    0    0  503  502  0.00000000000E+00  0.00000000000E+00  0.59830007381E+02  0.59830007381E+02  0.00000000000E+00 0.  1.
          2   -1    0    0  502    0 -0.00000000000E+00 -0.00000000000E+00 -0.63506545825E+03  0.63506545825E+03  0.00000000000E+00 0. -1.
         24    2    1    2    0    0  0.56345468207E+02  0.29863854116E+02 -0.13426771737E+03  0.16880266691E+03  0.79999117861E+02 0.  0.
         23    2    1    2    0    0  0.81909965134E+02 -0.26610391396E+02 -0.16917529466E+03  0.20947449689E+03  0.88554667902E+02 0.  0.
        -13    1    3    3    0    0  0.49280347979E+02  0.56363420321E+02 -0.97134807351E+02  0.12263995534E+03  0.00000000000E+00 0.  1.
         14    1    3    3    0    0  0.70651202276E+01 -0.26499566206E+02 -0.37132910023E+02  0.46162711572E+02  0.00000000000E+00 0. -1.
        -13    1    4    4    0    0 -0.13920049779E+02 -0.22748758123E+02 -0.26798919083E+02  0.37808145234E+02  0.00000000000E+00 0. -1.
         13    1    4    4    0    0  0.95830014914E+02 -0.38616332728E+01 -0.14237637558E+03  0.17166635166E+03  0.00000000000E+00 0.  1.
         21    1    1    2  503  501 -0.17195221872E+02 -0.10380320665E+02 -0.12319852879E+01  0.20123232844E+02  0.00000000000E+00 0.  1.
          1    1    1    2  501    0 -0.12106021147E+03  0.71268579456E+01 -0.27056045355E+03  0.29649506898E+03  0.00000000000E+00 0. -1.
<scales pt_clust_5="13000.00000" pt_clust_6="13000.00000" pt_clust_7="13000.00000" pt_clust_8="13000.00000" pt_clust_9="20.08549" pt_clust_10="13000.00000"></scales>
<clustering>
<clus scale="   20.085">  1  9  2 -1</clus>
<clus scale="   79.999">  5  6 -1 -1</clus>
<clus scale="   88.555">  7  8 -1 -1</clus>
<clus scale="   98.170">  2  5  1 -1</clus>
<clus scale="   96.323">  7 10 -1 -1</clus>
<clus scale="   20.085">  1  5  2 -1</clus>
</clustering>
</event>
<event>
10    4  0.2866397E-005  0.4813582E+03  0.7546771E-02  0.1063968E+00
         21   -1    0    0  501  502  0.00000000000E+00  0.00000000000E+00  0.41177890833E+03  0.41177890833E+03  0.00000000000E+00 0. -1.
         -1   -1    0    0    0  501 -0.00000000000E+00 -0.00000000000E+00 -0.49892898386E+03  0.49892898386E+03  0.00000000000E+00 0.  1.
         24    2    1    2    0    0 -0.73838346129E+02 -0.39418866041E+01  0.19412063809E+03  0.22303031587E+03  0.81191501002E+02 0.  0.
         23    2    1    2    0    0  0.21512169455E+03 -0.44467567471E+02 -0.41632998757E+03  0.47977439237E+03  0.92725945669E+02 0.  0.
        -13    1    3    3    0    0 -0.35774362926E+02 -0.26190613650E+02  0.31110223917E+02  0.54162711511E+02  0.00000000000E+00 0.  1.
         14    1    3    3    0    0 -0.38063983204E+02  0.22248727046E+02  0.16301041418E+03  0.16886760436E+03  0.00000000000E+00 0. -1.
        -11    1    4    4    0    0  0.12149369110E+03  0.10789793645E+02 -0.15879622630E+03  0.20023330919E+03  0.00000000000E+00 0. -1.
         11    1    4    4    0    0  0.93628003444E+02 -0.55257361116E+02 -0.25753376127E+03  0.27954108317E+03  0.00000000000E+00 0.  1.
         21    1    1    2  503  502 -0.43077121381E+02  0.11010417167E+02  0.74100212979E+02  0.86415908467E+02  0.00000000000E+00 0.  1.
         -2    1    1    2    0  503 -0.98206227035E+02  0.37399036908E+02  0.60959060966E+02  0.12148727548E+03  0.00000000000E+00 0.  1.
<scales pt_clust_5="13000.00000" pt_clust_6="13000.00000" pt_clust_7="13000.00000" pt_clust_8="13000.00000" pt_clust_9="44.46198" pt_clust_10="13000.00000"></scales>
<clustering>
<clus scale="   44.462">  1  9  2 -1</clus>
<clus scale="   81.192">  5  6 -1 -1</clus>
<clus scale="   92.726">  7  8 -1 -1</clus>
<clus scale="  117.250">  7 10 -1 -1</clus>
<clus scale="  129.576">  2  5  1 -1</clus>
<clus scale="   44.462">  1  5  2 -1</clus>
</clustering>
</event>
<event>
10    4  0.2866397E-005  0.2579969E+03  0.7546771E-02  0.1129062E+00
         21   -1    0    0  501  502  0.00000000000E+00  0.00000000000E+00  0.10056062127E+03  0.10056062127E+03  0.00000000000E+00 0. -1.
          2   -1    0    0  503    0 -0.00000000000E+00 -0.00000000000E+00 -0.90706059887E+03  0.90706059887E+03  0.00000000000E+00 0. -1.
         24    2    1    2    0    0 -0.39445353673E+02 -0.12689514060E+03 -0.17177553145E+03  0.23037293050E+03  0.76854025718E+02 0.  0.
         23    2    1    2    0    0 -0.10798280343E+03 -0.19836007365E+02 -0.54874996448E+02  0.15344595331E+03  0.92090403005E+02 0.  0.
        -13    1    3    3    0    0 -0.31727352556E+02 -0.18186983632E+02 -0.15199542709E+02  0.39603249519E+02  0.00000000000E+00 0.  1.
         14    1    3    3    0    0 -0.77180011171E+01 -0.10870815696E+03 -0.15657598874E+03  0.19076968098E+03  0.00000000000E+00 0. -1.
        -13    1    4    4    0    0  0.12666576252E+02 -0.18769242119E+02 -0.88477211561E+01  0.24310672004E+02  0.00000000000E+00 0.  1.
         13    1    4    4    0    0 -0.12064937968E+03 -0.10667652467E+01 -0.46027275292E+02  0.12913528130E+03  0.00000000000E+00 0. -1.
         21    1    1    2  503  502  0.10329458393E+03  0.14742540914E+03 -0.40039061583E+03  0.43899506554E+03  0.00000000000E+00 0. -1.
          1    1    1    2  501    0  0.44133573172E+02 -0.69426117981E+00 -0.17945883388E+03  0.18480727079E+03  0.00000000000E+00 0. -1.
<scales pt_clust_5="13000.00000" pt_clust_6="13000.00000" pt_clust_7="13000.00000" pt_clust_8="13000.00000" pt_clust_9="107.50677" pt_clust_10="13000.00000"></scales>
<clustering>
<clus scale="   76.854">  5  6 -1 -1</clus>
<clus scale="   92.090">  7  8 -1 -1</clus>
<clus scale="   44.139">  7 10 -1 -1</clus>
<clus scale="  153.509">  2  5  1 -1</clus>
<clus scale="  107.507">  1  9  2 -1</clus>
<clus scale="  107.507">  1  5  2 -1</clus>
</clustering>
</event>
<event>
10    4  0.2866397E-005  0.1677954E+03  0.7546771E-02  0.1204682E+00
         21   -1    0    0  503  502  0.00000000000E+00  0.00000000000E+00  0.58638783569E+02  0.58638783569E+02  0.00000000000E+00 0. -1.
          2   -1    0    0  502    0 -0.00000000000E+00 -0.00000000000E+00 -0.55306636218E+03  0.55306636218E+03  0.00000000000E+00 0. -1.
         24    2    1    2    0    0 -0.52474106695E+02 -0.27656501936E+02 -0.77962174182E+02  0.12662929171E+03  0.80240033296E+02 0.  0.
         23    2    1    2    0    0  0.21274350668E+02 -0.65710517116E+01 -0.13029891809E+03  0.16032928581E+03  0.90729791781E+02 0.  0.
        -11    1    3    3    0    0 -0.32859288918E+02 -0.38568848050E+02 -0.88387409431E+02  0.10188043509E+03  0.00000000000E+00 0.  1.
         12    1    3    3    0    0 -0.19614817777E+02  0.10912346114E+02  0.10425235248E+02  0.24748856623E+02  0.00000000000E+00 0. -1.
        -13    1    4    4    0    0 -0.68245343470E+01  0.38941892384E+02 -0.48146789371E+02  0.62298945242E+02  0.00000000000E+00 0.  1.
         13    1    4    4    0    0  0.28098885015E+02 -0.45512944095E+02 -0.82152128718E+02  0.98030340570E+02  0.00000000000E+00 0. -1.
         21    1    1    2  503  501 -0.43775037397E+01  0.29633116047E+02  0.58621183376E+01  0.30522918226E+02  0.00000000000E+00 0. -1.
          1    1    1    2  501    0  0.35577259767E+02  0.45944376002E+01 -0.29202860468E+03  0.29422365000E+03  0.00000000000E+00 0. -1.
<scales pt_clust_5="13000.00000" pt_clust_6="13000.00000" pt_clust_7="13000.00000" pt_clust_8="13000.00000" pt_clust_9="29.95470" pt_clust_10="13000.00000"></scales>
<clustering>
<clus scale="   29.955">  1  9  2 -1</clus>
<clus scale="   80.240">  5  6 -1 -1</clus>
<clus scale="   90.730">  7  8 -1 -1</clus>
<clus scale="   35.867">  7 10 -1 -1</clus>
<clus scale="   97.836">  2  5  1 -1</clus>
<clus scale="   29.955">  1  5  2 -1</clus>
</clustering>
</event>
<event>
10    4  0.2866397E-005  0.2836253E+03  0.7546771E-02  0.1128718E+00
         21   -1    0    0  501  502  0.00000000000E+00  0.00000000000E+00  0.30432279967E+03  0.30432279967E+03  0.00000000000E+00 0.  1.
          4   -1    0    0  503    0 -0.00000000000E+00 -0.00000000000E+00 -0.16753393623E+03  0.16753393623E+03  0.00000000000E+00 0. -1.
         24    2    1    2    0    0  0.86154549927E+02 -0.14894039656E+02 -0.28465944135E+02  0.12187993457E+03  0.79999809909E+02 0.  0.
         23    2    1    2    0    0  0.62207636510E+02  0.43809720252E+02  0.11693302836E+03  0.16592280798E+03  0.89821842877E+02 0.  0.
        -13    1    3    3    0    0  0.52748965156E+02 -0.42663157428E+02  0.35205420728E+01  0.67933736414E+02  0.00000000000E+00 0.  1.
         14    1    3    3    0    0  0.33405584771E+02  0.27769117772E+02 -0.31986486207E+02  0.53946198158E+02  0.00000000000E+00 0. -1.
        -13    1    4    4    0    0  0.16549079409E+02  0.27657715108E+02 -0.68954416011E+01  0.32960102384E+02  0.00000000000E+00 0. -1.
         13    1    4    4    0    0  0.45658557100E+02  0.16152005144E+02  0.12382846996E+03  0.13296270559E+03  0.00000000000E+00 0.  1.
         21    1    1    2  503  502 -0.12629498551E+02  0.21253637151E+02  0.28926759724E+02  0.38052316012E+02  0.00000000000E+00 0. -1.
          3    1    1    2  501    0 -0.13573268789E+03 -0.50169317746E+02  0.19395019495E+02  0.14600167734E+03  0.00000000000E+00 0. -1.
<scales pt_clust_5="13000.00000" pt_clust_6="13000.00000" pt_clust_7="13000.00000" pt_clust_8="13000.00000" pt_clust_9="24.72289" pt_clust_10="13000.00000"></scales>
<clustering>
<clus scale="   24.723">  1  9  2 -1</clus>
<clus scale="   80.000">  5  6 -1 -1</clus>
<clus scale="   89.822">  7  8 -1 -1</clus>
<clus scale="  116.525">  2  5  1 -1</clus>
<clus scale="   95.962">  7 10 -1 -1</clus>
<clus scale="   24.723">  1  5  2 -1</clus>
</clustering>
</event>
<event>
10    4  0.2866397E-005  0.4732806E+03  0.7546771E-02  0.1046996E+00
          2   -1    0    0  502    0 -0.00000000000E+00  0.00000000000E+00  0.17900122603E+04  0.17900122603E+04  0.00000000000E+00 0. -1.
         21   -1    0    0  503  502  0.00000000000E+00 -0.00000000000E+00 -0.11205112031E+03  0.11205112031E+03  0.00000000000E+00 0. -1.
         24    2    1    2    0    0 -0.14342904185E+03  0.56405592943E+01  0.14717345575E+03  0.22157373514E+03  0.82651001636E+02 0.  0.
         23    2    1    2    0    0  0.35777832907E+03 -0.97000950604E+02  0.12231132464E+04  0.12813285176E+04  0.91554570039E+02 0.  0.
        -11    1    3    3    0    0 -0.61871066807E+01  0.26139179747E+02  0.23020890453E+02  0.35376523348E+02  0.00000000000E+00 0.  1.
         12    1    3    3    0    0 -0.13724193517E+03 -0.20498620453E+02  0.12415256529E+03  0.18619721179E+03  0.00000000000E+00 0. -1.
        -11    1    4    4    0    0  0.36820019275E+02 -0.85310499159E+01  0.55273902640E+02  0.66960413269E+02  0.00000000000E+00 0.  1.
         11    1    4    4    0    0  0.32095830980E+03 -0.88469900688E+02  0.11678393438E+04  0.12143681043E+04  0.00000000000E+00 0. -1.
         21    1    1    2  503  501 -0.13173890561E+03  0.14845820309E+02  0.11267481160E+03  0.17398606497E+03  0.00000000000E+00 0. -1.
          1    1    1    2  501    0 -0.82610381615E+02  0.76514571001E+02  0.19499962627E+03  0.22517506294E+03  0.00000000000E+00 0. -1.
<scales pt_clust_5="13000.00000" pt_clust_6="13000.00000" pt_clust_7="13000.00000" pt_clust_8="13000.00000" pt_clust_9="132.57276" pt_clust_10="13000.00000"></scales>
<clustering>
<clus scale="   82.651">  5  6 -1 -1</clus>
<clus scale="   91.555">  7  8 -1 -1</clus>
<clus scale="  112.601">  7 10 -1 -1</clus>
<clus scale="  132.573">  2  9  1 -1</clus>
<clus scale="  220.122">  1  5  2 -1</clus>
<clus scale="  132.573">  2  5  1 -1</clus>
</clustering>
</event>
<event>
10    4  0.2866397E-005  0.2850263E+03  0.7546771E-02  0.1106120E+00
         -1   -1    0    0    0  501 -0.00000000000E+00  0.00000000000E+00  0.13158544670E+04  0.13158544670E+04  0.00000000000E+00 0.  1.
         21   -1    0    0  501  502  0.00000000000E+00 -0.00000000000E+00 -0.78186203024E+02  0.78186203024E+02  0.00000000000E+00 0.  1.
         24    2    1    2    0    0  0.13114546196E+03 -0.13607263770E+03  0.83190326198E+03  0.85693413637E+03  0.80982602158E+02 0.  0.
         23    2    1    2    0    0 -0.21120298998E+02  0.56369900828E+02  0.34570194956E+03  0.36425716827E+03  0.97723149567E+02 0.  0.
        -13    1    3    3    0    0  0.37345245713E+02 -0.88472554644E+02  0.30988534530E+03  0.32442408593E+03  0.00000000000E+00 0.  1.
         14    1    3    3    0    0  0.93800216252E+02 -0.47600083054E+02  0.52201791669E+03  0.53251005044E+03  0.00000000000E+00 0. -1.
        -13    1    4    4    0    0 -0.59138788375E+02  0.21899875997E+02  0.20547072306E+03  0.21493073046E+03  0.00000000000E+00 0. -1.
         13    1    4    4    0    0  0.38018489377E+02  0.34470024832E+02  0.14023122650E+03  0.14932643782E+03  0.00000000000E+00 0.  1.
         21    1    1    2  503  502 -0.26064487806E+02 -0.49112449612E+01 -0.16444932373E+02  0.31207589660E+02  0.00000000000E+00 0.  1.
         -2    1    1    2    0  503 -0.83960675161E+02  0.84613981831E+02  0.76507984840E+02  0.14164177576E+03  0.00000000000E+00 0.  1.
<scales pt_clust_5="13000.00000" pt_clust_6="13000.00000" pt_clust_7="13000.00000" pt_clust_8="13000.00000" pt_clust_9="26.52316" pt_clust_10="13000.00000"></scales>
<clustering>
<clus scale="   26.523">  2  9  1 -1</clus>
<clus scale="   80.983">  5  6 -1 -1</clus>
<clus scale="   97.723">  7  8 -1 -1</clus>
<clus scale="  128.785">  7 10 -1 -1</clus>
<clus scale="  202.593">  1  5  2 -1</clus>
<clus scale="   26.523">  2  5  1 -1</clus>
</clustering>
</event>
<event>
10    4  0.2866397E-005  0.4440535E+03  0.7546771E-02  0.1078114E+00
         21   -1    0    0  501  502  0.00000000000E+00  0.00000000000E+00  0.51904310513E+02  0.51904310513E+02  0.00000000000E+00 0.  1.
          2   -1    0    0  503    0 -0.00000000000E+00 -0.00000000000E+00 -0.18089494768E+04  0.18089494768E+04  0.00000000000E+00 0. -1.
         24    2    1    2    0    0 -0.27381181040E+02 -0.70743388740E+02 -0.41925899370E+03  0.43342435179E+03  0.79524894225E+02 0.  0.
         23    2    1    2    0    0  0.18164489821E+03  0.13854860877E+03 -0.47483797062E+03  0.53482526480E+03  0.91522562770E+02 0.  0.
        -13    1    3    3    0    0  0.25904698963E+02 -0.41901810539E+02 -0.19448159197E+03  0.20062378914E+03  0.00000000000E+00 0.  1.
         14    1    3    3    0    0 -0.53285880003E+02 -0.28841578201E+02 -0.22477740173E+03  0.23280056265E+03  0.00000000000E+00 0. -1.
        -13    1    4    4    0    0  0.18545399229E+03  0.11388921956E+03 -0.44867533004E+03  0.49867172506E+03  0.00000000000E+00 0.  1.
         13    1    4    4    0    0 -0.38090940846E+01  0.24659389211E+02 -0.26162640578E+02  0.36153539744E+02  0.00000000000E+00 0. -1.
         21    1    1    2  503  502 -0.14266820715E+02 -0.14409433463E+02 -0.39782051371E+01  0.20663979823E+02  0.00000000000E+00 0. -1.
          1    1    1    2  501    0 -0.13999689645E+03 -0.53395786565E+02 -0.85896999680E+03  0.87194019087E+03  0.00000000000E+00 0. -1.
<scales pt_clust_5="13000.00000" pt_clust_6="13000.00000" pt_clust_7="13000.00000" pt_clust_8="13000.00000" pt_clust_9="20.27742" pt_clust_10="13000.00000"></scales>
<clustering>
<clus scale="   20.277">  1  9  2 -1</clus>
<clus scale="   79.525">  5  6 -1 -1</clus>
<clus scale="   91.523">  7  8 -1 -1</clus>
<clus scale="  112.018">  2  5  1 -1</clus>
<clus scale="  192.217">  7 10 -1 -1</clus>
<clus scale="   20.277">  1  5  2 -1</clus>
</clustering>
</event>
<event>
10    4  0.2866397E-005  0.2905640E+03  0.7546771E-02  0.1095326E+00
          2   -1    0    0  502    0 -0.00000000000E+00  0.00000000000E+00  0.94611732553E+03  0.94611732553E+03  0.00000000000E+00 0. -1.
         21   -1    0    0  503  502  0.00000000000E+00 -0.00000000000E+00 -0.16830627902E+03  0.16830627902E+03  0.00000000000E+00 0. -1.
         24    2    1    2    0    0 -0.24896725492E+03 -0.15337999876E+02  0.26863975764E+03  0.37433041506E+03  0.75736332045E+02 0.  0.
         23    2    1    2    0    0  0.17108016504E+03 -0.56548300002E+02  0.37049060352E+03  0.42242614709E+03  0.93351107883E+02 0.  0.
        -11    1    3    3    0    0 -0.28967654723E+02 -0.18633119484E+02  0.69511026617E+02  0.77576420278E+02  0.00000000000E+00 0.  1.
         12    1    3    3    0    0 -0.21999960020E+03  0.32951196082E+01  0.19912873102E+03  0.29675399478E+03  0.00000000000E+00 0. -1.
        -11    1    4    4    0    0  0.14139184675E+03 -0.35571976642E+02  0.35332778436E+03  0.38222708310E+03  0.00000000000E+00 0. -1.
         11    1    4    4    0    0  0.29688318284E+02 -0.20976323359E+02  0.17162819159E+02  0.40199063990E+02  0.00000000000E+00 0.  1.
         21    1    1    2  503  501  0.12390864908E+02  0.25961841864E+02 -0.79893641310E+02  0.84914926179E+02  0.00000000000E+00 0. -1.
          1    1    1    2  501    0  0.65496224976E+02  0.45924458014E+02  0.21857432666E+03  0.23275211622E+03  0.00000000000E+00 0. -1.
<scales pt_clust_5="13000.00000" pt_clust_6="13000.00000" pt_clust_7="13000.00000" pt_clust_8="13000.00000" pt_clust_9="28.76718" pt_clust_10="13000.00000"></scales>
<clustering>
<clus scale="   28.767">  2  9  1 -1</clus>
<clus scale="   75.736">  5  6 -1 -1</clus>
<clus scale="   93.351">  7  8 -1 -1</clus>
<clus scale="   82.068">  7 10 -1 -1</clus>
<clus scale="  252.950">  1  5  2 -1</clus>
<clus scale="   28.767">  2  5  1 -1</clus>
</clustering>
</event>
<event>
10    4  0.2866397E-005  0.1687013E+03  0.7546771E-02  0.1187201E+00
         21   -1    0    0  503  502  0.00000000000E+00  0.00000000000E+00  0.57429140833E+03  0.57429140833E+03  0.00000000000E+00 0. -1.
          2   -1    0    0  502    0 -0.00000000000E+00 -0.00000000000E+00 -0.69509007189E+02  0.69509007189E+02  0.00000000000E+00 0. -1.
         24    2    1    2    0    0  0.22345902097E+02  0.10844344713E+03  0.40113816234E+03  0.42329728608E+03  0.77520620186E+02 0.  0.
         23    2    1    2    0    0  0.13833528528E+02 -0.70719052819E+02  0.49565720356E+02  0.12732595019E+03  0.92534242385E+02 0.  0.
        -13    1    3    3    0    0  0.18952352984E+02  0.10371103262E+03  0.24098044459E+03  0.26303373290E+03  0.00000000000E+00 0.  1.
         14    1    3    3    0    0  0.33935491127E+01  0.47324145115E+01  0.16015771775E+03  0.16026355318E+03  0.00000000000E+00 0. -1.
        -11    1    4    4    0    0 -0.24618099732E+01 -0.40931857055E+02  0.74609720312E+02  0.85135702237E+02  0.00000000000E+00 0. -1.
         11    1    4    4    0    0  0.16295338501E+02 -0.29787195764E+02 -0.25043999956E+02  0.42190247951E+02  0.00000000000E+00 0.  1.
         21    1    1    2  503  501 -0.18552680245E+02  0.12160271462E+02  0.22328109471E+02  0.31474094409E+02  0.00000000000E+00 0. -1.
          1    1    1    2  501    0 -0.17626750380E+02 -0.49884665777E+02  0.31750408975E+02  0.61703084839E+02  0.00000000000E+00 0. -1.
<scales pt_clust_5="13000.00000" pt_clust_6="13000.00000" pt_clust_7="13000.00000" pt_clust_8="13000.00000" pt_clust_9="22.18276" pt_clust_10="13000.00000"></scales>
<clustering>
<clus scale="   22.183">  1  9  2 -1</clus>
<clus scale="   77.521">  5  6 -1 -1</clus>
<clus scale="   92.534">  7  8 -1 -1</clus>
<clus scale="   52.488">  7 10 -1 -1</clus>
<clus scale="  141.101">  2  5  1 -1</clus>
<clus scale="   22.183">  1  5  2 -1</clus>
</clustering>
</event>
<event>
10    4  0.2866397E-005  0.1941685E+03  0.7546771E-02  0.1184510E+00
         21   -1    0    0  501  502  0.00000000000E+00  0.00000000000E+00  0.41809891908E+02  0.41809891908E+02  0.00000000000E+00 0.  1.
          2   -1    0    0  503    0 -0.00000000000E+00 -0.00000000000E+00 -0.11321162151E+04  0.11321162151E+04  0.00000000000E+00 0. -1.
         24    2    1    2    0    0 -0.53828685266E+02  0.28579900180E+02 -0.82982238690E+03  0.83573041879E+03  0.78267496666E+02 0.  0.
         23    2    1    2    0    0  0.55855307970E+02 -0.75052889321E+02 -0.12722789012E+03  0.18306248693E+03  0.92586103016E+02 0.  0.
        -13    1    3    3    0    0 -0.10470561654E+02 -0.23457953567E+02 -0.12203694178E+03  0.12471136037E+03  0.00000000000E+00 0.  1.
         14    1    3    3    0    0 -0.43358123613E+02  0.52037853746E+02 -0.70778544513E+03  0.71101905842E+03  0.00000000000E+00 0. -1.
        -11    1    4    4    0    0  0.24090875900E+02  0.19906287812E+02 -0.25656937721E+02  0.40434008573E+02  0.00000000000E+00 0. -1.
         11    1    4    4    0    0  0.31764432070E+02 -0.94959177133E+02 -0.10157095240E+03  0.14262847836E+03  0.00000000000E+00 0.  1.
         21    1    1    2  503  502  0.23988327671E+02  0.46369264396E+01 -0.19818223340E+02  0.31459544301E+02  0.00000000000E+00 0. -1.
          1    1    1    2  501    0 -0.26014950375E+02  0.41836062702E+02 -0.11343782284E+03  0.12367365700E+03  0.00000000000E+00 0. -1.
<scales pt_clust_5="13000.00000" pt_clust_6="13000.00000" pt_clust_7="13000.00000" pt_clust_8="13000.00000" pt_clust_9="24.43238" pt_clust_10="13000.00000"></scales>
<clustering>
<clus scale="   24.432">  1  9  2 -1</clus>
<clus scale="   78.267">  5  6 -1 -1</clus>
<clus scale="   92.586">  7  8 -1 -1</clus>
<clus scale="   48.133">  7 10 -1 -1</clus>
<clus scale="   98.254">  2  5  1 -1</clus>
<clus scale="   24.432">  1  5  2 -1</clus>
</clustering>
</event>
<event>
10    4  0.2866397E-005  0.1529202E+03  0.7546771E-02  0.1219257E+00
          2   -1    0    0  502    0 -0.00000000000E+00  0.00000000000E+00  0.47839750449E+03  0.47839750449E+03  0.00000000000E+00 0. -1.
         21   -1    0    0  503  502  0.00000000000E+00 -0.00000000000E+00 -0.77173619274E+02  0.77173619274E+02  0.00000000000E+00 0. -1.
         24    2    1    2    0    0  0.87422157433E+01  0.36460192789E+02  0.44100816908E+02  0.97984623492E+02  0.79059043725E+02 0.  0.
         23    2    1    2    0    0  0.78096164013E+01 -0.68212458616E+02  0.37289604452E+03  0.39026587400E+03  0.92423280444E+02 0.  0.
        -11    1    3    3    0    0 -0.24640094848E+02  0.67026460366E+01  0.46661022386E+02  0.53191265712E+02  0.00000000000E+00 0.  1.
         12    1    3    3    0    0  0.33382310591E+02  0.29757546753E+02 -0.25602054776E+01  0.44793357780E+02  0.00000000000E+00 0. -1.
        -11    1    4    4    0    0 -0.29198146942E+02  0.40512346484E+01  0.15405518816E+03  0.15685007264E+03  0.00000000000E+00 0.  1.
         11    1    4    4    0    0  0.37007763343E+02 -0.72263693264E+02  0.21884085636E+03  0.23341580136E+03  0.00000000000E+00 0. -1.
         21    1    1    2  503  501  0.52356825530E+01  0.22450227351E+02 -0.31390374759E+02  0.38945868939E+02  0.00000000000E+00 0. -1.
          1    1    1    2  501    0 -0.21787514698E+02  0.93020384754E+01  0.15617398543E+02  0.28374757334E+02  0.00000000000E+00 0. -1.
<scales pt_clust_5="13000.00000" pt_clust_6="13000.00000" pt_clust_7="13000.00000" pt_clust_8="13000.00000" pt_clust_9="23.05266" pt_clust_10="13000.00000"></scales>
<clustering>
<clus scale="   23.053">  2  9  1 -1</clus>
<clus scale="   79.059">  5  6 -1 -1</clus>
<clus scale="   92.423">  7  8 -1 -1</clus>
<clus scale="   24.541">  7 10 -1 -1</clus>
<clus scale="   94.781">  1  5  2 -1</clus>
<clus scale="   23.053">  2  5  1 -1</clus>
</clustering>
</event>
<event>
10    4  0.2866397E-005  0.4583051E+03  0.7546771E-02  0.1071860E+00
         21   -1    0    0  503  502  0.00000000000E+00  0.00000000000E+00  0.21587589768E+03  0.21587589768E+03  0.00000000000E+00 0.  1.
          2   -1    0    0  502    0 -0.00000000000E+00 -0.00000000000E+00 -0.12265534860E+04  0.12265534860E+04  0.00000000000E+00 0. -1.
         24    2    1    2    0    0 -0.85419540112E+02 -0.41495644250E+02 -0.16433787264E+03  0.20662143520E+03  0.81652279680E+02 0.  0.
         23    2    1    2    0    0  0.17208791819E+03  0.99670702467E+02 -0.22867720261E+03  0.31787012790E+03  0.95914830455E+02 0.  0.
        -13    1    3    3    0    0 -0.29283158209E+02 -0.59160709758E+02 -0.94883240451E+02  0.11558686021E+03  0.00000000000E+00 0.  1.
         14    1    3    3    0    0 -0.56136381903E+02  0.17665065507E+02 -0.69454632190E+02  0.91034574999E+02  0.00000000000E+00 0. -1.
        -11    1    4    4    0    0  0.39284866880E+02  0.58613440622E+02 -0.33130532028E+02  0.77951705175E+02  0.00000000000E+00 0.  1.
         11    1    4    4    0    0  0.13280305131E+03  0.41057261845E+02 -0.19554667058E+03  0.23991842273E+03  0.00000000000E+00 0. -1.
         21    1    1    2  503  501  0.96400587196E+01  0.27785260226E+02  0.14320664458E+03  0.14619539825E+03  0.00000000000E+00 0.  1.
          1    1    1    2  501    0 -0.96308436796E+02 -0.85960318443E+02 -0.76086915762E+03  0.77174242229E+03  0.00000000000E+00 0. -1.
<scales pt_clust_5="13000.00000" pt_clust_6="13000.00000" pt_clust_7="13000.00000" pt_clust_8="13000.00000" pt_clust_9="29.41006" pt_clust_10="13000.00000"></scales>
<clustering>
<clus scale="   29.410">  1  9  2 -1</clus>
<clus scale="   81.652">  5  6 -1 -1</clus>
<clus scale="   95.915">  7  8 -1 -1</clus>
<clus scale="  120.779">  2  5  1 -1</clus>
<clus scale="  187.652">  7 10 -1 -1</clus>
<clus scale="   29.410">  1  5  2 -1</clus>
</clustering>
</event>
<event>
10    4  0.2866397E-005  0.6162290E+03  0.7546771E-02  0.1050958E+00
          2   -1    0    0  502    0 -0.00000000000E+00  0.00000000000E+00  0.64992597938E+03  0.64992597938E+03  0.00000000000E+00 0. -1.
         21   -1    0    0  503  502  0.00000000000E+00 -0.00000000000E+00 -0.21439677698E+03  0.21439677698E+03  0.00000000000E+00 0. -1.
         24    2    1    2    0    0  0.19091505610E+02  0.32915776511E+02  0.93920363493E+01  0.90606164201E+02  0.81690468934E+02 0.  0.
         23    2    1    2    0    0  0.15055305456E+03 -0.21331682232E+03  0.39396284366E+02  0.27770572944E+03  0.86012301568E+02 0.  0.
        -11    1    3    3    0    0 -0.23263382075E+02  0.12044087968E+02  0.29352523910E+02  0.39342288449E+02  0.00000000000E+00 0.  1.
         12    1    3    3    0    0  0.42354887685E+02  0.20871688543E+02 -0.19960487561E+02  0.51263875752E+02  0.00000000000E+00 0. -1.
        -13    1    4    4    0    0  0.10442485970E+03 -0.74670649441E+02  0.10925847057E+02  0.12883955660E+03  0.00000000000E+00 0.  1.
         13    1    4    4    0    0  0.46128194852E+02 -0.13864617288E+03  0.28470437309E+02  0.14886617283E+03  0.00000000000E+00 0. -1.
         21    1    1    2  503  501  0.14352960247E+02 -0.25696184096E+02  0.15555025482E+02  0.33290541640E+02  0.00000000000E+00 0.  1.
          1    1    1    2  501    0 -0.18399752041E+03  0.20609722990E+03  0.37118585620E+03  0.46272032108E+03  0.00000000000E+00 0. -1.
<scales pt_clust_5="13000.00000" pt_clust_6="13000.00000" pt_clust_7="13000.00000" pt_clust_8="13000.00000" pt_clust_9="29.43300" pt_clust_10="13000.00000"></scales>
<clustering>
<clus scale="   29.433">  2  9  1 -1</clus>
<clus scale="   81.690">  5  6 -1 -1</clus>
<clus scale="   86.012">  7  8 -1 -1</clus>
<clus scale="   89.046">  1  5  2 -1</clus>
<clus scale="  274.959">  7 10 -1 -1</clus>
<clus scale="   29.433">  2  5  1 -1</clus>
</clustering>
</event>
<event>
10    4  0.2866397E-005  0.8373586E+03  0.7546771E-02  0.9707016E-01
         21   -1    0    0  503  502  0.00000000000E+00  0.00000000000E+00  0.79005061720E+03  0.79005061720E+03  0.00000000000E+00 0. -1.
          2   -1    0    0  502    0 -0.00000000000E+00 -0.00000000000E+00 -0.61464673046E+03  0.61464673046E+03  0.00000000000E+00 0. -1.
         24    2    1    2    0    0  0.74861602586E+01 -0.43450281030E+03 -0.88086164014E+02  0.45032765668E+03  0.78658065852E+02 0.  0.
         23    2    1    2    0    0  0.30765003224E+02  0.51031443028E+03  0.31708500462E+03  0.60832464413E+03  0.90269980233E+02 0.  0.
        -11    1    3    3    0    0 -0.33656097155E+02 -0.19652011868E+03 -0.52769980668E+02  0.20624635944E+03  0.00000000000E+00 0.  1.
         12    1    3    3    0    0  0.41142257414E+02 -0.23798269162E+03 -0.35316183346E+02  0.24408129724E+03  0.00000000000E+00 0. -1.
        -11    1    4    4    0    0  0.35061278230E+02  0.41070687089E+03  0.21219895603E+03  0.46361387378E+03  0.00000000000E+00 0. -1.
         11    1    4    4    0    0 -0.42962750069E+01  0.99607559397E+02  0.10488604858E+03  0.14471077035E+03  0.00000000000E+00 0.  1.
         21    1    1    2  503  501  0.18963117908E+02  0.70663403313E+02  0.10153702442E+03  0.12515064417E+03  0.00000000000E+00 0. -1.
          1    1    1    2  501    0 -0.57214281390E+02 -0.14647502329E+03 -0.15513197828E+03  0.22089440267E+03  0.00000000000E+00 0. -1.
<scales pt_clust_5="13000.00000" pt_clust_6="13000.00000" pt_clust_7="13000.00000" pt_clust_8="13000.00000" pt_clust_9="73.16363" pt_clust_10="13000.00000"></scales>
<clustering>
<clus scale="   73.164">  1  9  2 -1</clus>
<clus scale="   78.658">  5  6 -1 -1</clus>
<clus scale="   90.270">  7  8 -1 -1</clus>
<clus scale="  153.720">  7 10 -1 -1</clus>
<clus scale="  423.154">  2  5  1 -1</clus>
<clus scale="   73.164">  1  5  2 -1</clus>
</clustering>
</event>
<event>
10    4  0.2866397E-005  0.1822959E+03  0.7546771E-02  0.1193804E+00
          2   -1    0    0  503    0 -0.00000000000E+00  0.00000000000E+00  0.55577846679E+03  0.55577846679E+03  0.00000000000E+00 0. -1.
         21   -1    0    0  501  502  0.00000000000E+00 -0.00000000000E+00 -0.55879191010E+02  0.55879191010E+02  0.00000000000E+00 0. -1.
         24    2    1    2    0    0 -0.66608036689E+02  0.78022576212E+01  0.65924710398E+02  0.12388225133E+03  0.80642662277E+02 0.  0.
         23    2    1    2    0    0  0.12690366120E+01  0.53504205593E+02  0.28889947529E+03  0.30634880883E+03  0.86731628480E+02 0.  0.
        -11    1    3    3    0    0 -0.60872013274E+02 -0.23097920646E+02  0.19768192586E+02  0.68041879577E+02  0.00000000000E+00 0.  1.
         12    1    3    3    0    0 -0.57360234144E+01  0.30900178267E+02  0.46156517812E+02  0.55840371758E+02  0.00000000000E+00 0. -1.
        -11    1    4    4    0    0 -0.35326190124E+02  0.33922503127E+02  0.83548304593E+02  0.96845212208E+02  0.00000000000E+00 0.  1.
         11    1    4    4    0    0  0.36595226736E+02  0.19581702465E+02  0.20535117070E+03  0.20950359662E+03  0.00000000000E+00 0. -1.
         21    1    1    2  503  502  0.22610880541E+02  0.14044861110E+00  0.58433215928E+01  0.23354144212E+02  0.00000000000E+00 0. -1.
          1    1    1    2  501    0  0.42728119536E+02 -0.61446911825E+02  0.13923176850E+03  0.15807245343E+03  0.00000000000E+00 0. -1.
<scales pt_clust_5="13000.00000" pt_clust_6="13000.00000" pt_clust_7="13000.00000" pt_clust_8="13000.00000" pt_clust_9="22.61132" pt_clust_10="13000.00000"></scales>
<clustering>
<clus scale="   22.611">  2  9  1 -1</clus>
<clus scale="   80.643">  5  6 -1 -1</clus>
<clus scale="   86.732">  7  8 -1 -1</clus>
<clus scale="   77.490">  7 10 -1 -1</clus>
<clus scale="   96.660">  1  5  2 -1</clus>
<clus scale="   22.611">  2  5  1 -1</clus>
</clustering>
</event>
<event>
10    4  0.2866397E-005  0.5378676E+03  0.7546771E-02  0.1040925E+00
         21   -1    0    0  501  502  0.00000000000E+00  0.00000000000E+00  0.13007322715E+03  0.13007322715E+03  0.00000000000E+00 0.  1.
          2   -1    0    0  503    0 -0.00000000000E+00 -0.00000000000E+00 -0.24023710024E+04  0.24023710024E+04  0.00000000000E+00 0. -1.
         24    2    1    2    0    0  0.17480732202E+03 -0.29675352835E+02 -0.50328431972E+03  0.53973380603E+03  0.81112566800E+02 0.  0.
         23    2    1    2    0    0  0.66075055321E+02 -0.17157526608E+03 -0.52961945275E+03  0.56744143546E+03  0.87687131809E+02 0.  0.
        -11    1    3    3    0    0  0.17826879531E+03 -0.33891798157E+02 -0.50245158338E+03  0.53421532270E+03  0.00000000000E+00 0.  1.
         12    1    3    3    0    0 -0.34614732887E+01  0.42164453220E+01 -0.83273634559E+00  0.55184833336E+01  0.00000000000E+00 0. -1.
        -13    1    4    4    0    0  0.15132322416E+01 -0.42498850666E+02 -0.45550705261E+02  0.62316201180E+02  0.00000000000E+00 0.  1.
         13    1    4    4    0    0  0.64561823079E+02 -0.12907641541E+03 -0.48406874749E+03  0.50512523428E+03  0.00000000000E+00 0. -1.
         21    1    1    2  503  502 -0.76352754405E+02 -0.71471544804E+02  0.36075925063E+02  0.11063180913E+03  0.00000000000E+00 0.  1.
          1    1    1    2  501    0 -0.16452962294E+03  0.27272216372E+03 -0.12754699278E+04  0.13146371789E+04  0.00000000000E+00 0. -1.
<scales pt_clust_5="13000.00000" pt_clust_6="13000.00000" pt_clust_7="13000.00000" pt_clust_8="13000.00000" pt_clust_9="104.58453" pt_clust_10="13000.00000"></scales>
<clustering>
<clus scale="   81.113">  5  6 -1 -1</clus>
<clus scale="   87.687">  7  8 -1 -1</clus>
<clus scale="  104.585">  1  9  2 -1</clus>
<clus scale="  178.697">  2  5  1 -1</clus>
<clus scale="  232.628">  7 10 -1 -1</clus>
<clus scale="  104.585">  1  5  2 -1</clus>
</clustering>
</event>
<event>
10    4  0.2866397E-005  0.3442102E+03  0.7546771E-02  0.1108573E+00
         21   -1    0    0  501  502  0.00000000000E+00  0.00000000000E+00  0.47713073329E+03  0.47713073329E+03  0.00000000000E+00 0. -1.
          2   -1    0    0  503    0 -0.00000000000E+00 -0.00000000000E+00 -0.16100698619E+03  0.16100698619E+03  0.00000000000E+00 0. -1.
         24    2    1    2    0    0  0.43340788199E+02 -0.61790648047E+02  0.31438833965E+02  0.11440224458E+03  0.80018530211E+02 0.  0.
         23    2    1    2    0    0  0.39225708558E+02 -0.73593707744E+02 -0.11171865575E+02  0.12453601584E+03  0.91813499171E+02 0.  0.
        -11    1    3    3    0    0  0.22816357290E+02  0.17078906932E+02  0.83358830501E+01  0.29694480433E+02  0.00000000000E+00 0.  1.
         12    1    3    3    0    0  0.20524430909E+02 -0.78869554978E+02  0.23102950914E+02  0.84707764152E+02  0.00000000000E+00 0. -1.
        -11    1    4    4    0    0  0.18812399754E+02 -0.89394603562E+02  0.89723023987E+01  0.91792176905E+02  0.00000000000E+00 0.  1.
         11    1    4    4    0    0  0.20413308804E+02  0.15800895818E+02 -0.20144167973E+02  0.32743838937E+02  0.00000000000E+00 0. -1.
         21    1    1    2  503  502 -0.83373996874E+02 -0.27880028783E+02  0.42138028955E+02  0.97489142184E+02  0.00000000000E+00 0. -1.
          1    1    1    2  501    0  0.80750011646E+00  0.16326438457E+03  0.25371874976E+03  0.30171031687E+03  0.00000000000E+00 0. -1.
<scales pt_clust_5="13000.00000" pt_clust_6="13000.00000" pt_clust_7="13000.00000" pt_clust_8="13000.00000" pt_clust_9="87.91204" pt_clust_10="13000.00000"></scales>
<clustering>
<clus scale="   80.019">  5  6 -1 -1</clus>
<clus scale="   87.912">  1  9  2 -1</clus>
<clus scale="   91.813">  7  8 -1 -1</clus>
<clus scale="  108.029">  2  5  1 -1</clus>
<clus scale="  129.321">  7 10 -1 -1</clus>
<clus scale="   87.912">  1  5  2 -1</clus>
</clustering>
</event>
<event>
10    4  0.2866397E-005  0.1813367E+03  0.7546771E-02  0.1179754E+00
         21   -1    0    0  501  502  0.00000000000E+00  0.00000000000E+00  0.21063707361E+03  0.21063707361E+03  0.00000000000E+00 0. -1.
          2   -1    0    0  503    0 -0.00000000000E+00 -0.00000000000E+00 -0.55696216879E+03  0.55696216879E+03  0.00000000000E+00 0. -1.
         24    2    1    2    0    0 -0.70168984888E+02 -0.86815691539E+02 -0.27549783234E+03  0.30753384636E+03  0.78850239649E+02 0.  0.
         23    2    1    2    0    0  0.13706751076E+02  0.10655624564E+03 -0.15876922536E+03  0.21234429088E+03  0.91325365811E+02 0.  0.
        -13    1    3    3    0    0 -0.15028818761E+02 -0.63320438269E+02 -0.80409315672E+02  0.10344564439E+03  0.00000000000E+00 0.  1.
         14    1    3    3    0    0 -0.55140166128E+02 -0.23495253269E+02 -0.19508851667E+03  0.20408820197E+03  0.00000000000E+00 0. -1.
        -13    1    4    4    0    0  0.57729606989E+01  0.30186828253E+02  0.53098272335E+01  0.31189195893E+02  0.00000000000E+00 0. -1.
         13    1    4    4    0    0  0.79337903775E+01  0.76369417384E+02 -0.16407905259E+03  0.18115509499E+03  0.00000000000E+00 0.  1.
         21    1    1    2  503  502  0.25279271953E+02 -0.78191624016E+01  0.16323135649E+03  0.16536219832E+03  0.00000000000E+00 0. -1.
          1    1    1    2  501    0  0.31182961859E+02 -0.11921391698E+02 -0.75289393970E+02  0.82358906832E+02  0.00000000000E+00 0. -1.
<scales pt_clust_5="13000.00000" pt_clust_6="13000.00000" pt_clust_7="13000.00000" pt_clust_8="13000.00000" pt_clust_9="26.46093" pt_clust_10="13000.00000"></scales>
<clustering>
<clus scale="   26.461">  1  9  2 -1</clus>
<clus scale="   78.850">  5  6 -1 -1</clus>
<clus scale="   91.325">  7  8 -1 -1</clus>
<clus scale="   35.398">  7 10 -1 -1</clus>
<clus scale="  134.182">  2  5  1 -1</clus>
<clus scale="   26.461">  1  5  2 -1</clus>
</clustering>
</event>
<event>
10    4  0.2866397E-005  0.1771062E+03  0.7546771E-02  0.1194105E+00
          2   -1    0    0  502    0 -0.00000000000E+00  0.00000000000E+00  0.10799632410E+04  0.10799632410E+04  0.00000000000E+00 0. -1.
         21   -1    0    0  503  502  0.00000000000E+00 -0.00000000000E+00 -0.25794517154E+02  0.25794517154E+02  0.00000000000E+00 0. -1.
         24    2    1    2    0    0 -0.80544574038E+02  0.81503161724E+01  0.25578348747E+03  0.28005745788E+03  0.80331383598E+02 0.  0.
         23    2    1    2    0    0 -0.14803994451E+02  0.28066650255E+02  0.45020838419E+03  0.46093754404E+03  0.93642592900E+02 0.  0.
        -13    1    3    3    0    0 -0.19535226833E+02  0.35594391319E+02  0.14560106307E+03  0.15115639368E+03  0.00000000000E+00 0.  1.
         14    1    3    3    0    0 -0.61009347205E+02 -0.27444075146E+02  0.11018242440E+03  0.12890106420E+03  0.00000000000E+00 0. -1.
        -11    1    4    4    0    0 -0.54775648090E+02  0.14580227406E+02  0.25596707167E+03  0.26216806906E+03  0.00000000000E+00 0. -1.
         11    1    4    4    0    0  0.39971653638E+02  0.13486422850E+02  0.19424131252E+03  0.19876947499E+03  0.00000000000E+00 0.  1.
         21    1    1    2  503  501  0.24301612059E+02 -0.14843480430E+02  0.50459374592E+02  0.57940018503E+02  0.00000000000E+00 0. -1.
          1    1    1    2  501    0  0.71046956430E+02 -0.21373485998E+02  0.29771747758E+03  0.30682273771E+03  0.00000000000E+00 0. -1.
<scales pt_clust_5="13000.00000" pt_clust_6="13000.00000" pt_clust_7="13000.00000" pt_clust_8="13000.00000" pt_clust_9="28.47626" pt_clust_10="13000.00000"></scales>
<clustering>
<clus scale="   28.476">  2  9  1 -1</clus>
<clus scale="   80.331">  5  6 -1 -1</clus>
<clus scale="   93.643">  7  8 -1 -1</clus>
<clus scale="   79.893">  7 10 -1 -1</clus>
<clus scale="  104.714">  1  5  2 -1</clus>
<clus scale="   28.476">  2  5  1 -1</clus>
</clustering>
</event>
<event>
10    4  0.2866397E-005  0.2871808E+03  0.7546771E-02  0.1101645E+00
          2   -1    0    0  503    0 -0.00000000000E+00  0.00000000000E+00  0.14795102058E+04  0.14795102058E+04  0.00000000000E+00 0. -1.
         21   -1    0    0  501  502  0.00000000000E+00 -0.00000000000E+00 -0.67148606602E+02  0.67148606602E+02  0.00000000000E+00 0. -1.
         24    2    1    2    0    0 -0.14728932043E+03 -0.13802077287E+03  0.48989019162E+03  0.53632650868E+03  0.83125485904E+02 0.  0.
         23    2    1    2    0    0  0.29894583026E+02 -0.10416157984E+02  0.27898835518E+03  0.29501322465E+03  0.90532413813E+02 0.  0.
        -13    1    3    3    0    0 -0.77455368310E+01 -0.28106076301E+02  0.15011272206E+03  0.15291754049E+03  0.00000000000E+00 0.  1.
         14    1    3    3    0    0 -0.13954378360E+03 -0.10991469657E+03  0.33977746956E+03  0.38340896819E+03  0.00000000000E+00 0. -1.
        -13    1    4    4    0    0  0.31078044830E+02 -0.34072058459E+02  0.26159108317E+03  0.26562500792E+03  0.00000000000E+00 0.  1.
         13    1    4    4    0    0 -0.11834618042E+01  0.23655900475E+02  0.17397272007E+02  0.29388216727E+02  0.00000000000E+00 0. -1.
         21    1    1    2  503  502 -0.26284893236E+02  0.17500042835E+02 -0.10326209633E+02  0.33223150318E+02  0.00000000000E+00 0. -1.
          1    1    1    2  501    0  0.14367963065E+03  0.13093688802E+03  0.65380926199E+03  0.68209592872E+03  0.00000000000E+00 0. -1.
<scales pt_clust_5="13000.00000" pt_clust_6="13000.00000" pt_clust_7="13000.00000" pt_clust_8="13000.00000" pt_clust_9="31.57764" pt_clust_10="13000.00000"></scales>
<clustering>
<clus scale="   31.578">  2  9  1 -1</clus>
<clus scale="   83.125">  5  6 -1 -1</clus>
<clus scale="   90.532">  7  8 -1 -1</clus>
<clus scale="  192.248">  7 10 -1 -1</clus>
<clus scale="  222.273">  1  5  2 -1</clus>
<clus scale="   31.578">  2  5  1 -1</clus>
</clustering>
</event>
<event>
10    4  0.2866397E-005  0.3844256E+03  0.7546771E-02  0.1062086E+00
          2   -1    0    0  503    0 -0.00000000000E+00  0.00000000000E+00  0.12524202186E+04  0.12524202186E+04  0.00000000000E+00 0. -1.
         21   -1    0    0  501  502  0.00000000000E+00 -0.00000000000E+00 -0.10136621294E+03  0.10136621294E+03  0.00000000000E+00 0. -1.
         24    2    1    2    0    0 -0.24668583333E+03 -0.84744795619E+01  0.42424041063E+03  0.49644989363E+03  0.74544306991E+02 0.  0.
         23    2    1    2    0    0  0.39668235852E+02  0.71038482632E+02  0.34811798981E+03  0.37831211917E+03  0.12374930194E+03 0.  0.
        -11    1    3    3    0    0 -0.23724899013E+02  0.60033564520E+01  0.98166642047E+02  0.10117114575E+03  0.00000000000E+00 0.  1.
         12    1    3    3    0    0 -0.22296093432E+03 -0.14477836014E+02  0.32607376859E+03  0.39527874788E+03  0.00000000000E+00 0. -1.
        -11    1    4    4    0    0  0.50809997010E+02  0.10028070982E+03  0.22833264649E+03  0.25450672685E+03  0.00000000000E+00 0. -1.
         11    1    4    4    0    0 -0.11141761158E+02 -0.29242227191E+02  0.11978534332E+03  0.12380539232E+03  0.00000000000E+00 0.  1.
         21    1    1    2  503  502 -0.25377121954E+02  0.69094051052E+00 -0.51209759060E+01  0.25897878517E+02  0.00000000000E+00 0. -1.
          1    1    1    2  501    0  0.23239471943E+03 -0.63254943581E+02  0.38381658108E+03  0.45312654019E+03  0.00000000000E+00 0. -1.
<scales pt_clust_5="13000.00000" pt_clust_6="13000.00000" pt_clust_7="13000.00000" pt_clust_8="13000.00000" pt_clust_9="25.38653" pt_clust_10="13000.00000"></scales>
<clustering>
<clus scale="   25.387">  2  9  1 -1</clus>
<clus scale="   74.544">  5  6 -1 -1</clus>
<clus scale="  123.749">  7  8 -1 -1</clus>
<clus scale="  230.906">  7 10 -1 -1</clus>
<clus scale="  268.061">  1  5  2 -1</clus>
<clus scale="   25.387">  2  5  1 -1</clus>
</clustering>
</event>
<event>
10    4  0.2866397E-005  0.2589267E+03  0.7546771E-02  0.1145101E+00
          2   -1    0    0  503    0 -0.00000000000E+00  0.00000000000E+00  0.56995841766E+03  0.56995841766E+03  0.00000000000E+00 0. -1.
         21   -1    0    0  501  502  0.00000000000E+00 -0.00000000000E+00 -0.83585585289E+02  0.83585585289E+02  0.00000000000E+00 0.  1.
         24    2    1    2    0    0 -0.39529577956E+02 -0.41137709161E+02  0.12452251779E+03  0.15950678230E+03  0.81741406363E+02 0.  0.
         23    2    1    2    0    0 -0.52782523614E+02  0.58555250096E+02  0.97483192800E+02  0.15770351294E+03  0.95669812380E+02 0.  0.
        -11    1    3    3    0    0 -0.61442498250E+02 -0.17900638242E+02  0.61025065714E+02  0.88428909787E+02  0.00000000000E+00 0.  1.
         12    1    3    3    0    0  0.21912920294E+02 -0.23237070919E+02  0.63497452077E+02  0.71077872513E+02  0.00000000000E+00 0. -1.
        -13    1    4    4    0    0 -0.40738229978E+02  0.12513283653E+02 -0.67233185280E+01  0.43143813711E+02  0.00000000000E+00 0.  1.
         13    1    4    4    0    0 -0.12044293636E+02  0.46041966443E+02  0.10420651133E+03  0.11455969922E+03  0.00000000000E+00 0. -1.
         21    1    1    2  503  502 -0.18697556637E+02 -0.71101604285E+01 -0.21577667639E+02  0.29423608655E+02  0.00000000000E+00 0.  1.
          1    1    1    2  501    0  0.11100965821E+03 -0.10307380507E+02  0.28594478942E+03  0.30691009906E+03  0.00000000000E+00 0. -1.
<scales pt_clust_5="13000.00000" pt_clust_6="13000.00000" pt_clust_7="13000.00000" pt_clust_8="13000.00000" pt_clust_9="20.00382" pt_clust_10="13000.00000"></scales>
<clustering>
<clus scale="   20.004">  2  9  1 -1</clus>
<clus scale="   81.741">  5  6 -1 -1</clus>
<clus scale="   95.670">  7  8 -1 -1</clus>
<clus scale="  102.928">  1  5  2 -1</clus>
<clus scale="   87.328">  7 10 -1 -1</clus>
<clus scale="   20.004">  2  5  1 -1</clus>
</clustering>
</event>
<event>
10    4  0.2866397E-005  0.1163401E+03  0.7546771E-02  0.1266708E+00
          4   -1    0    0  502    0 -0.00000000000E+00  0.00000000000E+00  0.92836129588E+02  0.92836129588E+02  0.00000000000E+00 0. -1.
         21   -1    0    0  503  502  0.00000000000E+00 -0.00000000000E+00 -0.18026736403E+03  0.18026736403E+03  0.00000000000E+00 0.  1.
         24    2    1    2    0    0  0.51893841283E+01  0.24470380623E+02  0.17651668567E+02  0.85755758715E+02  0.80104553641E+02 0.  0.
         23    2    1    2    0    0  0.17573157839E+01 -0.20902937876E+02 -0.31022015640E+02  0.99160249671E+02  0.91817039213E+02 0.  0.
        -11    1    3    3    0    0  0.66410046086E+01 -0.19244008758E+02  0.33528403060E+02  0.39224847062E+02  0.00000000000E+00 0.  1.
         12    1    3    3    0    0 -0.14516204803E+01  0.43714389382E+02 -0.15876734494E+02  0.46530911652E+02  0.00000000000E+00 0. -1.
        -11    1    4    4    0    0 -0.24351784272E+02 -0.27161401246E+02 -0.53083878084E+02  0.64410008751E+02  0.00000000000E+00 0.  1.
         11    1    4    4    0    0  0.26109100056E+02  0.62584633697E+01  0.22061862444E+02  0.34750240920E+02  0.00000000000E+00 0. -1.
         21    1    1    2  503  501  0.38988043982E+01 -0.20491485573E+02 -0.60356646710E+02  0.63859427329E+02  0.00000000000E+00 0.  1.
          3    1    1    2  501    0 -0.10845504310E+02  0.16924042826E+02 -0.13704240662E+02  0.24328057905E+02  0.00000000000E+00 0. -1.
<scales pt_clust_5="13000.00000" pt_clust_6="13000.00000" pt_clust_7="13000.00000" pt_clust_8="13000.00000" pt_clust_9="20.85909" pt_clust_10="13000.00000"></scales>
<clustering>
<clus scale="   20.859">  2  9  1 -1</clus>
<clus scale="   80.105">  5  6 -1 -1</clus>
<clus scale="   82.470">  1  5  2 -1</clus>
<clus scale="   91.817">  7  8 -1 -1</clus>
<clus scale="   18.238">  7 10 -1 -1</clus>
<clus scale="   20.859">  2  5  1 -1</clus>
</clustering>
</event>
<event>
10    4  0.2866397E-005  0.2306585E+03  0.7546771E-02  0.1135041E+00
         21   -1    0    0  503  502  0.00000000000E+00  0.00000000000E+00  0.23996147676E+03  0.23996147676E+03  0.00000000000E+00 0.  1.
         -1   -1    0    0    0  501 -0.00000000000E+00 -0.00000000000E+00 -0.26093245986E+03  0.26093245986E+03  0.00000000000E+00 0.  1.
         24    2    1    2    0    0 -0.69764368986E+02 -0.14865077308E+03  0.76502954992E+02  0.19822362595E+03  0.80472257609E+02 0.  0.
         23    2    1    2    0    0  0.10225729994E+03  0.74852216690E+02 -0.55552292510E+02  0.16784285991E+03  0.95003992993E+02 0.  0.
        -11    1    3    3    0    0 -0.81256703422E+02 -0.13719322736E+03  0.49927161447E+02  0.16708487345E+03  0.00000000000E+00 0.  1.
         12    1    3    3    0    0  0.11492334436E+02 -0.11457545714E+02  0.26575793545E+02  0.31138752498E+02  0.00000000000E+00 0. -1.
        -13    1    4    4    0    0  0.24188892415E+02  0.48031177769E+02  0.18576629975E+02  0.56896289294E+02  0.00000000000E+00 0.  1.
         13    1    4    4    0    0  0.78068407527E+02  0.26821038921E+02 -0.74128922485E+02  0.11094657062E+03  0.00000000000E+00 0. -1.
         21    1    1    2  503  501 -0.25106568623E+02  0.82907679009E+01  0.28150080317E+02  0.38619990189E+02  0.00000000000E+00 0.  1.
         -2    1    1    2    0  502 -0.73863623339E+01  0.65507788486E+02 -0.70071725893E+02  0.96207460576E+02  0.00000000000E+00 0.  1.
<scales pt_clust_5="13000.00000" pt_clust_6="13000.00000" pt_clust_7="13000.00000" pt_clust_8="13000.00000" pt_clust_9="26.44006" pt_clust_10="13000.00000"></scales>
<clustering>
<clus scale="   26.440">  1  9  2 -1</clus>
<clus scale="   80.472">  5  6 -1 -1</clus>
<clus scale="   95.004">  7  8 -1 -1</clus>
<clus scale="   66.639">  7 10 -1 -1</clus>
<clus scale="  185.579">  2  5  1 -1</clus>
<clus scale="   26.440">  1  5  2 -1</clus>
</clustering>
</event>
<event>
10    4  0.2866397E-005  0.2353423E+03  0.7546771E-02  0.1147119E+00
         21   -1    0    0  503  502  0.00000000000E+00  0.00000000000E+00  0.20206646268E+03  0.20206646268E+03  0.00000000000E+00 0. -1.
          2   -1    0    0  502    0 -0.00000000000E+00 -0.00000000000E+00 -0.40614049813E+03  0.40614049813E+03  0.00000000000E+00 0. -1.
         24    2    1    2    0    0  0.35246619724E+02  0.52922919130E+02  0.52422408779E+02  0.11531007270E+03  0.80654475096E+02 0.  0.
         23    2    1    2    0    0 -0.87221634430E+02 -0.53141346967E+02 -0.25179269076E+03  0.28657172061E+03  0.91061384032E+02 0.  0.
        -11    1    3    3    0    0  0.29092792807E+02  0.28332998492E+02 -0.14991162504E+02  0.43288385857E+02  0.00000000000E+00 0.  1.
         12    1    3    3    0    0  0.61538269170E+01  0.24589920637E+02  0.67413571283E+02  0.72021686844E+02  0.00000000000E+00 0. -1.
        -11    1    4    4    0    0  0.18853601055E+02 -0.11195988575E+02 -0.53363451496E+02  0.57692862544E+02  0.00000000000E+00 0.  1.
         11    1    4    4    0    0 -0.10607523549E+03 -0.41945358392E+02 -0.19842923926E+03  0.22887885806E+03  0.00000000000E+00 0. -1.
         21    1    1    2  503  501 -0.11675667543E+02  0.69211805419E+02  0.59980708693E+02  0.92327030913E+02  0.00000000000E+00 0. -1.
          1    1    1    2  501    0  0.63650682248E+02 -0.68993377582E+02 -0.64684462164E+02  0.11399813659E+03  0.00000000000E+00 0. -1.
<scales pt_clust_5="13000.00000" pt_clust_6="13000.00000" pt_clust_7="13000.00000" pt_clust_8="13000.00000" pt_clust_9="70.18971" pt_clust_10="13000.00000"></scales>
<clustering>
<clus scale="   70.190">  1  9  2 -1</clus>
<clus scale="   80.654">  5  6 -1 -1</clus>
<clus scale="   91.061">  7  8 -1 -1</clus>
<clus scale="   82.699">  7 10 -1 -1</clus>
<clus scale="  130.634">  2  5  1 -1</clus>
<clus scale="   70.190">  1  5  2 -1</clus>
</clustering>
</event>
<event>
10    4  0.2866397E-005  0.2371857E+03  0.7546771E-02  0.1154467E+00
          2   -1    0    0  502    0 -0.00000000000E+00  0.00000000000E+00  0.31793815408E+03  0.31793815408E+03  0.00000000000E+00 0. -1.
         21   -1    0    0  503  502  0.00000000000E+00 -0.00000000000E+00 -0.14715160854E+03  0.14715160854E+03  0.00000000000E+00 0.  1.
         24    2    1    2    0    0  0.48277177433E+02 -0.61573943811E+02  0.72391783070E+02  0.13279886165E+03  0.79201836980E+02 0.  0.
         23    2    1    2    0    0  0.17636728147E+02 -0.35375036390E+02 -0.53643899307E+01  0.94707960404E+02  0.85897460411E+02 0.  0.
        -11    1    3    3    0    0  0.34246000437E+02 -0.36199786796E+00  0.59555924968E+02  0.68701002811E+02  0.00000000000E+00 0.  1.
         12    1    3    3    0    0  0.14031176996E+02 -0.61211945943E+02  0.12835858102E+02  0.64097858835E+02  0.00000000000E+00 0. -1.
        -13    1    4    4    0    0 -0.22600396348E+02  0.50680397651E+01 -0.25276066230E+02  0.34283268021E+02  0.00000000000E+00 0.  1.
         13    1    4    4    0    0  0.40237124495E+02 -0.40443076155E+02  0.19911676299E+02  0.60424692383E+02  0.00000000000E+00 0. -1.
         21    1    1    2  503  501 -0.27861658659E+00  0.23990250815E+02 -0.49837341938E+02  0.55311575758E+02  0.00000000000E+00 0.  1.
          1    1    1    2  501    0 -0.65635288993E+02  0.72958729386E+02  0.15359649434E+03  0.18227136481E+03  0.00000000000E+00 0. -1.
<scales pt_clust_5="13000.00000" pt_clust_6="13000.00000" pt_clust_7="13000.00000" pt_clust_8="13000.00000" pt_clust_9="23.99187" pt_clust_10="13000.00000"></scales>
<clustering>
<clus scale="   23.992">  2  9  1 -1</clus>
<clus scale="   79.202">  5  6 -1 -1</clus>
<clus scale="   85.897">  7  8 -1 -1</clus>
<clus scale="  100.898">  7 10 -1 -1</clus>
<clus scale="  107.246">  1  5  2 -1</clus>
<clus scale="   23.992">  2  5  1 -1</clus>
</clustering>
</event>
<event>
10    4  0.2866397E-005  0.1896460E+03  0.7546771E-02  0.1181567E+00
          2   -1    0    0  502    0 -0.00000000000E+00  0.00000000000E+00  0.94672717696E+03  0.94672717696E+03  0.00000000000E+00 0. -1.
         21   -1    0    0  503  502  0.00000000000E+00 -0.00000000000E+00 -0.11193824402E+03  0.11193824402E+03  0.00000000000E+00 0. -1.
         24    2    1    2    0    0 -0.72156490705E+02 -0.12337920530E+02  0.19499806780E+03  0.22355257999E+03  0.81195604194E+02 0.  0.
         23    2    1    2    0    0  0.45474170725E+02  0.15267455918E+02  0.24290228060E+03  0.26342475343E+03  0.89944913072E+02 0.  0.
        -11    1    3    3    0    0  0.45898875215E+01 -0.30163385983E+02  0.56510607230E+02  0.64221068591E+02  0.00000000000E+00 0.  1.
         12    1    3    3    0    0 -0.76746378226E+02  0.17825465454E+02  0.13848746057E+03  0.15933151140E+03  0.00000000000E+00 0. -1.
        -13    1    4    4    0    0  0.73029008788E+02  0.10306884798E+02  0.16875659854E+03  0.18416910042E+03  0.00000000000E+00 0. -1.
         13    1    4    4    0    0 -0.27554838062E+02  0.49605711199E+01  0.74145682055E+02  0.79255653009E+02  0.00000000000E+00 0.  1.
         21    1    1    2  503  501 -0.50632506331E+01  0.67401750058E+02 -0.70678709365E+02  0.97796279967E+02  0.00000000000E+00 0. -1.
          1    1    1    2  501    0  0.31745570612E+02 -0.70331285447E+02  0.46756729391E+03  0.47389180759E+03  0.00000000000E+00 0. -1.
<scales pt_clust_5="13000.00000" pt_clust_6="13000.00000" pt_clust_7="13000.00000" pt_clust_8="13000.00000" pt_clust_9="67.59166" pt_clust_10="13000.00000"></scales>
<clustering>
<clus scale="   67.592">  2  9  1 -1</clus>
<clus scale="   81.196">  5  6 -1 -1</clus>
<clus scale="   89.945">  7  8 -1 -1</clus>
<clus scale="   69.963">  7 10 -1 -1</clus>
<clus scale="  112.626">  1  5  2 -1</clus>
<clus scale="   67.592">  2  5  1 -1</clus>
</clustering>
</event>
<event>
10    4  0.2866397E-005  0.9008505E+03  0.7546771E-02  0.1005808E+00
          2   -1    0    0  502    0 -0.00000000000E+00  0.00000000000E+00  0.10780385272E+04  0.10780385272E+04  0.00000000000E+00 0. -1.
         21   -1    0    0  503  502  0.00000000000E+00 -0.00000000000E+00 -0.25022941952E+03  0.25022941952E+03  0.00000000000E+00 0. -1.
         24    2    1    2    0    0 -0.19121178204E+02 -0.74061543754E+02  0.14199707301E+03  0.17964579256E+03  0.79112011245E+02 0.  0.
         23    2    1    2    0    0  0.17077272695E+03  0.43063393420E+03  0.50836241537E+03  0.69338406376E+03  0.87978434660E+02 0.  0.
        -13    1    3    3    0    0 -0.48719644134E+02 -0.34919879020E+02  0.65753620073E+02  0.88974941573E+02  0.00000000000E+00 0.  1.
         14    1    3    3    0    0  0.29598465930E+02 -0.39141664734E+02  0.76243452932E+02  0.90670850986E+02  0.00000000000E+00 0. -1.
        -11    1    4    4    0    0  0.14647694998E+02  0.20701287035E+02  0.64644290621E+02  0.69440496568E+02  0.00000000000E+00 0.  1.
         11    1    4    4    0    0  0.15612503195E+03  0.40993264716E+03  0.44371812475E+03  0.62394356719E+03  0.00000000000E+00 0. -1.
         21    1    1    2  503  501 -0.12914703169E+02  0.16567559929E+02  0.11378641607E+02  0.23890313618E+02  0.00000000000E+00 0.  1.
          1    1    1    2  501    0 -0.13873684558E+03 -0.37313995037E+03  0.16607097766E+03  0.43134777675E+03  0.00000000000E+00 0. -1.
<scales pt_clust_5="13000.00000" pt_clust_6="13000.00000" pt_clust_7="13000.00000" pt_clust_8="13000.00000" pt_clust_9="21.00651" pt_clust_10="13000.00000"></scales>
<clustering>
<clus scale="   21.007">  2  9  1 -1</clus>
<clus scale="   79.112">  5  6 -1 -1</clus>
<clus scale="   87.978">  7  8 -1 -1</clus>
<clus scale="  109.366">  1  5  2 -1</clus>
<clus scale="  416.848">  7 10 -1 -1</clus>
<clus scale="   21.007">  2  5  1 -1</clus>
</clustering>
</event>
<event>
10    4  0.2866397E-005  0.1920803E+03  0.7546771E-02  0.1186151E+00
          2   -1    0    0  502    0 -0.00000000000E+00  0.00000000000E+00  0.11742574564E+04  0.11742574564E+04  0.00000000000E+00 0. -1.
         21   -1    0    0  503  502  0.00000000000E+00 -0.00000000000E+00 -0.22556075535E+03  0.22556075535E+03  0.00000000000E+00 0. -1.
         24    2    1    2    0    0 -0.19321441078E+02  0.52498501311E+02  0.10172878867E+04  0.10220503467E+04  0.81134801240E+02 0.  0.
         23    2    1    2    0    0 -0.20384533950E+02  0.40236981133E+02  0.49238625738E+02  0.12442295259E+03  0.10498611809E+03 0.  0.
        -13    1    3    3    0    0 -0.36144471757E+02  0.48197142292E+01  0.20704408104E+03  0.21023059715E+03  0.00000000000E+00 0.  1.
         14    1    3    3    0    0  0.16823030679E+02  0.47678787082E+02  0.81024380567E+03  0.81181974953E+03  0.00000000000E+00 0. -1.
        -11    1    4    4    0    0 -0.40606448016E+02  0.52137602008E+02  0.67669993311E+02  0.94585628710E+02  0.00000000000E+00 0. -1.
         11    1    4    4    0    0  0.20221914066E+02 -0.11900620875E+02 -0.18431367573E+02  0.29837323880E+02  0.00000000000E+00 0.  1.
         21    1    1    2  503  501  0.41401496428E+02 -0.19035005869E+02 -0.16140190136E+03  0.16771102861E+03  0.00000000000E+00 0. -1.
          1    1    1    2  501    0 -0.16955213998E+01 -0.73700476575E+02  0.43572089934E+02  0.85633883839E+02  0.00000000000E+00 0. -1.
<scales pt_clust_5="13000.00000" pt_clust_6="13000.00000" pt_clust_7="13000.00000" pt_clust_8="13000.00000" pt_clust_9="45.56770" pt_clust_10="13000.00000"></scales>
<clustering>
<clus scale="   45.568">  2  9  1 -1</clus>
<clus scale="   81.135">  5  6 -1 -1</clus>
<clus scale="   97.852">  1  5  2 -1</clus>
<clus scale="  104.986">  7  8 -1 -1</clus>
<clus scale="   55.601">  7 10 -1 -1</clus>
<clus scale="   45.568">  2  5  1 -1</clus>
</clustering>
</event>
<event>
10    4  0.2866397E-005  0.2626484E+03  0.7546771E-02  0.1128348E+00
         21   -1    0    0  501  502  0.00000000000E+00  0.00000000000E+00  0.18103419442E+03  0.18103419442E+03  0.00000000000E+00 0. -1.
          2   -1    0    0  503    0 -0.00000000000E+00 -0.00000000000E+00 -0.40891859967E+03  0.40891859967E+03  0.00000000000E+00 0. -1.
         24    2    1    2    0    0 -0.86540912503E+02  0.10451913664E+03 -0.40409707449E+02  0.16233908488E+03  0.79419484779E+02 0.  0.
         23    2    1    2    0    0  0.48281798092E+02 -0.64633428277E+02 -0.19941430741E+03  0.23416977642E+03  0.92524624344E+02 0.  0.
        -13    1    3    3    0    0 -0.46947002479E+02  0.68269367023E+01 -0.30643052277E+02  0.56476763004E+02  0.00000000000E+00 0.  1.
         14    1    3    3    0    0 -0.39593910023E+02  0.97692199937E+02 -0.97666551717E+01  0.10586232187E+03  0.00000000000E+00 0. -1.
        -13    1    4    4    0    0 -0.25942540968E+02 -0.27406941701E+01 -0.44427354649E+02  0.51520060923E+02  0.00000000000E+00 0. -1.
         13    1    4    4    0    0  0.74224339060E+02 -0.61892734107E+02 -0.15498695277E+03  0.18264971550E+03  0.00000000000E+00 0.  1.
         21    1    1    2  503  502 -0.44716793478E+02 -0.86876973163E+02  0.68762402174E+01  0.97951430640E+02  0.00000000000E+00 0. -1.
          1    1    1    2  501    0  0.82975907889E+02  0.46991264801E+02  0.50633693968E+01  0.95492502152E+02  0.00000000000E+00 0. -1.
<scales pt_clust_5="13000.00000" pt_clust_6="13000.00000" pt_clust_7="13000.00000" pt_clust_8="13000.00000" pt_clust_9="97.70977" pt_clust_10="13000.00000"></scales>
<clustering>
<clus scale="   79.419">  5  6 -1 -1</clus>
<clus scale="   92.525">  7  8 -1 -1</clus>
<clus scale="   95.358">  7 10 -1 -1</clus>
<clus scale="   97.710">  1  9  2 -1</clus>
<clus scale="  148.076">  2  5  1 -1</clus>
<clus scale="   97.710">  1  5  2 -1</clus>
</clustering>
</event>
<event>
10    4  0.2866397E-005  0.1813992E+03  0.7546771E-02  0.1202168E+00
         -3   -1    0    0    0  501 -0.00000000000E+00  0.00000000000E+00  0.11608321024E+03  0.11608321024E+03  0.00000000000E+00 0.  1.
         21   -1    0    0  503  502  0.00000000000E+00 -0.00000000000E+00 -0.79194862135E+03  0.79194862135E+03  0.00000000000E+00 0.  1.
         24    2    1    2    0    0  0.14769555670E+02 -0.55626219928E+01  0.46788740305E+02  0.94734030655E+02  0.80847187995E+02 0.  0.
         23    2    1    2    0    0  0.92096876994E+02  0.23145306341E+01 -0.91225222454E+02  0.16004929481E+03  0.93843187044E+02 0.  0.
        -13    1    3    3    0    0  0.26364106233E+02 -0.29932921583E+01  0.66569241484E+02  0.71662331857E+02  0.00000000000E+00 0.  1.
         14    1    3    3    0    0 -0.11594550563E+02 -0.25693298345E+01 -0.19780501179E+02  0.23071698798E+02  0.00000000000E+00 0. -1.
        -11    1    4    4    0    0  0.92145172911E+02  0.33921215111E+02 -0.79494443994E+02  0.12633585537E+03  0.00000000000E+00 0.  1.
         11    1    4    4    0    0 -0.48295916856E-01 -0.31606684476E+02 -0.11730778460E+02  0.33713439447E+02  0.00000000000E+00 0. -1.
         21    1    1    2  503  501 -0.66951472571E+02 -0.34868092219E+02 -0.54826498551E+03  0.55343723932E+03  0.00000000000E+00 0.  1.
         -4    1    1    2    0  502 -0.39914960093E+02  0.38116183578E+02 -0.83163943448E+02  0.99811266797E+02  0.00000000000E+00 0.  1.
<scales pt_clust_5="13000.00000" pt_clust_6="13000.00000" pt_clust_7="13000.00000" pt_clust_8="13000.00000" pt_clust_9="75.48698" pt_clust_10="13000.00000"></scales>
<clustering>
<clus scale="   75.487">  2  9  1 -1</clus>
<clus scale="   80.847">  5  6 -1 -1</clus>
<clus scale="   81.753">  1  5  2 -1</clus>
<clus scale="   93.843">  7  8 -1 -1</clus>
<clus scale="   66.065">  7 10 -1 -1</clus>
<clus scale="   75.487">  2  5  1 -1</clus>
</clustering>
</event>
<event>
10    4  0.2866397E-005  0.4104414E+03  0.7546771E-02  0.1085117E+00
         21   -1    0    0  501  502  0.00000000000E+00  0.00000000000E+00  0.13467824336E+03  0.13467824336E+03  0.00000000000E+00 0.  1.
         -1   -1    0    0    0  501 -0.00000000000E+00 -0.00000000000E+00 -0.81973245537E+03  0.81973245537E+03  0.00000000000E+00 0.  1.
         24    2    1    2    0    0 -0.64019841650E+02  0.69566505024E+02 -0.14680591581E+03  0.18805949769E+03  0.69830931621E+02 0.  0.
         23    2    1    2    0    0 -0.11871273815E+03  0.81088353811E+02 -0.72027001764E+02  0.18554634772E+03  0.92582519108E+02 0.  0.
        -13    1    3    3    0    0 -0.76792257596E+02  0.64397245902E+02 -0.14127324400E+03  0.17321138986E+03  0.00000000000E+00 0.  1.
         14    1    3    3    0    0  0.12772415947E+02  0.51692591218E+01 -0.55326718078E+01  0.14848107836E+02  0.00000000000E+00 0. -1.
        -11    1    4    4    0    0 -0.11611459189E+03  0.30746057545E+02 -0.44376008648E+02  0.12805135161E+03  0.00000000000E+00 0.  1.
         11    1    4    4    0    0 -0.25981462602E+01  0.50342296266E+02 -0.27650993116E+02  0.57494996109E+02  0.00000000000E+00 0. -1.
         21    1    1    2  503  502 -0.28249037981E+01 -0.14041203368E+03 -0.10770678253E+03  0.17698663872E+03  0.00000000000E+00 0.  1.
         -2    1    1    2    0  503  0.18555748360E+03 -0.10242825154E+02 -0.35851451191E+03  0.40381821459E+03  0.00000000000E+00 0.  1.
<scales pt_clust_5="13000.00000" pt_clust_6="13000.00000" pt_clust_7="13000.00000" pt_clust_8="13000.00000" pt_clust_9="126.35229" pt_clust_10="13000.00000"></scales>
<clustering>
<clus scale="   69.831">  5  6 -1 -1</clus>
<clus scale="   92.583">  7  8 -1 -1</clus>
<clus scale="  117.535">  2  5  1 -1</clus>
<clus scale="  126.352">  1  9  2 -1</clus>
<clus scale="  143.479">  7 10 -1 -1</clus>
<clus scale="  126.352">  1  5  2 -1</clus>
</clustering>
</event>
<event>
10    4  0.2866397E-005  0.7336569E+03  0.7546771E-02  0.9974820E-01
          2   -1    0    0  502    0 -0.00000000000E+00  0.00000000000E+00  0.16245253810E+04  0.16245253810E+04  0.00000000000E+00 0. -1.
         21   -1    0    0  503  502  0.00000000000E+00 -0.00000000000E+00 -0.17894697532E+03  0.17894697532E+03  0.00000000000E+00 0.  1.
         24    2    1    2    0    0 -0.15884624721E+03 -0.17767759431E+03  0.18379389133E+03  0.31202989927E+03  0.82346862571E+02 0.  0.
         23    2    1    2    0    0  0.11710612411E+03 -0.98232894971E+02  0.15248396043E+02  0.17878625601E+03  0.91479318966E+02 0.  0.
        -11    1    3    3    0    0 -0.13903710778E+03 -0.18449269493E+03  0.16504908643E+03  0.28391913066E+03  0.00000000000E+00 0.  1.
         12    1    3    3    0    0 -0.19809139434E+02  0.68151006140E+01  0.18744804897E+02  0.28110768615E+02  0.00000000000E+00 0. -1.
        -13    1    4    4    0    0  0.19867054705E+02 -0.75774852341E+02  0.66642015642E+01  0.78618952502E+02  0.00000000000E+00 0. -1.
         13    1    4    4    0    0  0.97239069408E+02 -0.22458042630E+02  0.85841944786E+01  0.10016730351E+03  0.00000000000E+00 0.  1.
         21    1    1    2  503  501 -0.12169772663E+02 -0.28448644759E+02  0.27796040697E+01  0.31066943108E+02  0.00000000000E+00 0. -1.
          1    1    1    2  501    0  0.53909895764E+02  0.30435913404E+03  0.12437565142E+04  0.12815892579E+04  0.00000000000E+00 0. -1.
<scales pt_clust_5="13000.00000" pt_clust_6="13000.00000" pt_clust_7="13000.00000" pt_clust_8="13000.00000" pt_clust_9="30.94235" pt_clust_10="13000.00000"></scales>
<clustering>
<clus scale="   30.942">  2  9  1 -1</clus>
<clus scale="   82.347">  5  6 -1 -1</clus>
<clus scale="   91.479">  7  8 -1 -1</clus>
<clus scale="  262.992">  1  5  2 -1</clus>
<clus scale="  160.891">  7 10 -1 -1</clus>
<clus scale="   30.942">  2  5  1 -1</clus>
</clustering>
</event>
<event>
10    4  0.2866397E-005  0.2183698E+03  0.7546771E-02  0.1175099E+00
          2   -1    0    0  503    0 -0.00000000000E+00  0.00000000000E+00  0.57268106808E+03  0.57268106808E+03  0.00000000000E+00 0. -1.
         21   -1    0    0  501  502  0.00000000000E+00 -0.00000000000E+00 -0.15661015388E+03  0.15661015388E+03  0.00000000000E+00 0. -1.
         24    2    1    2    0    0  0.30865282605E+02 -0.19005268034E+02  0.81308292756E+02  0.11788176309E+03  0.77273577081E+02 0.  0.
         23    2    1    2    0    0  0.90765870354E+02  0.63479644145E+02  0.23463164539E+03  0.27833879376E+03  0.10075895321E+03 0.  0.
        -11    1    3    3    0    0  0.32719666644E+02  0.12068075131E+02  0.79368905863E+02  0.86692780787E+02  0.00000000000E+00 0.  1.
         12    1    3    3    0    0 -0.18543840390E+01 -0.31073343164E+02  0.19393868928E+01  0.31188982303E+02  0.00000000000E+00 0. -1.
        -11    1    4    4    0    0  0.73098774153E+02  0.12267887461E+02  0.59586738421E+02  0.95102635301E+02  0.00000000000E+00 0. -1.
         11    1    4    4    0    0  0.17667096201E+02  0.51211756684E+02  0.17504490697E+03  0.18323615846E+03  0.00000000000E+00 0.  1.
         21    1    1    2  503  502 -0.80208240017E+02 -0.89976741955E+02 -0.78696678484E+02  0.14395257227E+03  0.00000000000E+00 0. -1.
          1    1    1    2  501    0 -0.41422912941E+02  0.45502365844E+02  0.17882765454E+03  0.18911809284E+03  0.00000000000E+00 0. -1.
<scales pt_clust_5="13000.00000" pt_clust_6="13000.00000" pt_clust_7="13000.00000" pt_clust_8="13000.00000" pt_clust_9="120.12418" pt_clust_10="13000.00000"></scales>
<clustering>
<clus scale="   77.274">  5  6 -1 -1</clus>
<clus scale="   85.353">  1  5  2 -1</clus>
<clus scale="  100.759">  7  8 -1 -1</clus>
<clus scale="   48.146">  7 10 -1 -1</clus>
<clus scale="  120.124">  2  9  1 -1</clus>
<clus scale="  120.124">  2  5  1 -1</clus>
</clustering>
</event>
<event>
10    4  0.2866397E-005  0.2738483E+03  0.7546771E-02  0.1127080E+00
         21   -1    0    0  503  502  0.00000000000E+00  0.00000000000E+00  0.40209993209E+03  0.40209993209E+03  0.00000000000E+00 0.  1.
          4   -1    0    0  502    0 -0.00000000000E+00 -0.00000000000E+00 -0.12523726358E+03  0.12523726358E+03  0.00000000000E+00 0. -1.
         24    2    1    2    0    0 -0.62533674557E+02  0.10319361109E+03  0.11835404918E+03  0.18699339580E+03  0.79996670502E+02 0.  0.
         23    2    1    2    0    0  0.63532009370E+02 -0.14293166555E+03  0.13790052495E+03  0.22731338560E+03  0.90493332693E+02 0.  0.
        -11    1    3    3    0    0 -0.74502205112E+02  0.10837181047E+03  0.10456456671E+03  0.16801421512E+03  0.00000000000E+00 0.  1.
         12    1    3    3    0    0  0.11968530555E+02 -0.51781993787E+01  0.13789482469E+02  0.18979180679E+02  0.00000000000E+00 0. -1.
        -13    1    4    4    0    0  0.45509289381E+02 -0.15302717620E+03  0.11705031685E+03  0.19796259432E+03  0.00000000000E+00 0. -1.
         13    1    4    4    0    0  0.18022719989E+02  0.10095510651E+02  0.20850208102E+02  0.29350791284E+02  0.00000000000E+00 0.  1.
         21    1    1    2  503  501  0.16879989912E+02 -0.23509011280E+02  0.35335725310E+02  0.45675169994E+02  0.00000000000E+00 0.  1.
          3    1    1    2  501    0 -0.17878324725E+02  0.63247065739E+02 -0.14727630934E+02  0.67355244283E+02  0.00000000000E+00 0. -1.
<scales pt_clust_5="13000.00000" pt_clust_6="13000.00000" pt_clust_7="13000.00000" pt_clust_8="13000.00000" pt_clust_9="28.94145" pt_clust_10="13000.00000"></scales>
<clustering>
<clus scale="   28.941">  1  9  2 -1</clus>
<clus scale="   79.997">  5  6 -1 -1</clus>
<clus scale="   90.493">  7  8 -1 -1</clus>
<clus scale="   63.749">  7 10 -1 -1</clus>
<clus scale="  134.789">  2  5  1 -1</clus>
<clus scale="   28.941">  1  5  2 -1</clus>
</clustering>
</event>
<event>
10    4  0.2866397E-005  0.2159931E+03  0.7546771E-02  0.1178066E+00
          2   -1    0    0  502    0 -0.00000000000E+00  0.00000000000E+00  0.29196274563E+03  0.29196274563E+03  0.00000000000E+00 0. -1.
         21   -1    0    0  503  502  0.00000000000E+00 -0.00000000000E+00 -0.27804216112E+03  0.27804216112E+03  0.00000000000E+00 0. -1.
         24    2    1    2    0    0 -0.16936711448E+02  0.75112145678E+01  0.22787157895E+03  0.24240676675E+03  0.80574893938E+02 0.  0.
         23    2    1    2    0    0 -0.97062990612E+00  0.93473100210E+02 -0.13847930332E+03  0.19143547891E+03  0.93449786260E+02 0.  0.
        -11    1    3    3    0    0  0.30241567727E+02 -0.66791504403E+01  0.60957596275E+02  0.68373913248E+02  0.00000000000E+00 0.  1.
         12    1    3    3    0    0 -0.47178279175E+02  0.14190365008E+02  0.16691398268E+03  0.17403285350E+03  0.00000000000E+00 0. -1.
        -11    1    4    4    0    0 -0.26292851705E+02 -0.55314303544E+01 -0.47696986495E+02  0.54744070850E+02  0.00000000000E+00 0.  1.
         11    1    4    4    0    0  0.25322221799E+02  0.99004530565E+02 -0.90782316826E+02  0.13669140806E+03  0.00000000000E+00 0. -1.
         21    1    1    2  503  501  0.23126512524E+02 -0.21826007334E+02 -0.34344069372E+02  0.46805184314E+02  0.00000000000E+00 0. -1.
          1    1    1    2  501    0 -0.52191711692E+01 -0.79158307445E+02 -0.41127621742E+02  0.89357476774E+02  0.00000000000E+00 0. -1.
<scales pt_clust_5="13000.00000" pt_clust_6="13000.00000" pt_clust_7="13000.00000" pt_clust_8="13000.00000" pt_clust_9="31.79953" pt_clust_10="13000.00000"></scales>
<clustering>
<clus scale="   31.800">  2  9  1 -1</clus>
<clus scale="   80.575">  5  6 -1 -1</clus>
<clus scale="   82.477">  1  5  2 -1</clus>
<clus scale="   93.450">  7  8 -1 -1</clus>
<clus scale="   81.955">  7 10 -1 -1</clus>
<clus scale="   31.800">  2  5  1 -1</clus>
</clustering>
</event>
<event>
10    4  0.2866397E-005  0.1213075E+03  0.7546771E-02  0.1254121E+00
         21   -1    0    0  503  502  0.00000000000E+00  0.00000000000E+00  0.12652062162E+03  0.12652062162E+03  0.00000000000E+00 0.  1.
          2   -1    0    0  502    0 -0.00000000000E+00 -0.00000000000E+00 -0.17437099548E+03  0.17437099548E+03  0.00000000000E+00 0. -1.
         24    2    1    2    0    0  0.37334728906E+02  0.17591810824E+02 -0.70429245468E+02  0.11596909773E+03  0.82372320725E+02 0.  0.
         23    2    1    2    0    0 -0.40166949964E+02 -0.20367658128E+02 -0.31552294149E+02  0.10518065087E+03  0.89661567485E+02 0.  0.
        -11    1    3    3    0    0 -0.14995994488E+02 -0.20857424631E+02 -0.11008218387E+02  0.27948039019E+02  0.00000000000E+00 0.  1.
         12    1    3    3    0    0  0.52330723394E+02  0.38449235455E+02 -0.59421027080E+02  0.88021058715E+02  0.00000000000E+00 0. -1.
        -13    1    4    4    0    0  0.17729664724E+01 -0.38597878856E+02 -0.43231707513E+02  0.57982067890E+02  0.00000000000E+00 0. -1.
         13    1    4    4    0    0 -0.41939916436E+02  0.18230220728E+02  0.11679413365E+02  0.47198582977E+02  0.00000000000E+00 0.  1.
         21    1    1    2  503  501  0.13910543312E+02 -0.16983460232E+02  0.52646443762E+02  0.57040241737E+02  0.00000000000E+00 0.  1.
          1    1    1    2  501    0 -0.11078322254E+02  0.19759307536E+02  0.14847219996E+01  0.22701626763E+02  0.00000000000E+00 0. -1.
<scales pt_clust_5="13000.00000" pt_clust_6="13000.00000" pt_clust_7="13000.00000" pt_clust_8="13000.00000" pt_clust_9="21.95316" pt_clust_10="13000.00000"></scales>
<clustering>
<clus scale="   21.953">  1  9  2 -1</clus>
<clus scale="   82.372">  5  6 -1 -1</clus>
<clus scale="   89.662">  7  8 -1 -1</clus>
<clus scale="   19.017">  7 10 -1 -1</clus>
<clus scale="   93.152">  2  5  1 -1</clus>
<clus scale="   21.953">  1  5  2 -1</clus>
</clustering>
</event>
<event>
10    4  0.2866397E-005  0.2280204E+03  0.7546771E-02  0.1141095E+00
          2   -1    0    0  502    0 -0.00000000000E+00  0.00000000000E+00  0.24435438053E+04  0.24435438053E+04  0.00000000000E+00 0. -1.
         21   -1    0    0  503  502  0.00000000000E+00 -0.00000000000E+00 -0.41652368565E+02  0.41652368565E+02  0.00000000000E+00 0. -1.
         24    2    1    2    0    0  0.14073897569E+03  0.13546322810E+01  0.18568318367E+04  0.18639273747E+04  0.81188015983E+02 0.  0.
         23    2    1    2    0    0 -0.58132193358E+02  0.59610025088E+02  0.26207762988E+03  0.28975048730E+03  0.91312396835E+02 0.  0.
        -11    1    3    3    0    0  0.13742936870E+02  0.17449888788E+02  0.99963698724E+02  0.10240169918E+03  0.00000000000E+00 0.  1.
         12    1    3    3    0    0  0.12699603883E+03 -0.16095256507E+02  0.17568681380E+04  0.17615256755E+04  0.00000000000E+00 0. -1.
        -13    1    4    4    0    0 -0.29096641879E+02  0.18463179092E+02  0.14983565357E+02  0.37576731918E+02  0.00000000000E+00 0. -1.
         13    1    4    4    0    0 -0.29035551479E+02  0.41146845996E+02  0.24709406452E+03  0.25217375539E+03  0.00000000000E+00 0.  1.
         21    1    1    2  503  501  0.36436719650E+02 -0.17699358212E+02  0.37101060527E+02  0.54930779279E+02  0.00000000000E+00 0. -1.
          1    1    1    2  501    0 -0.11904350199E+03 -0.43265299157E+02  0.24588090963E+03  0.27658753261E+03  0.00000000000E+00 0. -1.
<scales pt_clust_5="13000.00000" pt_clust_6="13000.00000" pt_clust_7="13000.00000" pt_clust_8="13000.00000" pt_clust_9="40.50805" pt_clust_10="13000.00000"></scales>
<clustering>
<clus scale="   40.508">  2  9  1 -1</clus>
<clus scale="   81.188">  5  6 -1 -1</clus>
<clus scale="   91.312">  7  8 -1 -1</clus>
<clus scale="  114.254">  7 10 -1 -1</clus>
<clus scale="  165.911">  1  5  2 -1</clus>
<clus scale="   40.508">  2  5  1 -1</clus>
</clustering>
</event>
<event>
10    4  0.2866397E-005  0.5605455E+03  0.7546771E-02  0.1027922E+00
         -1   -1    0    0    0  501 -0.00000000000E+00  0.00000000000E+00  0.25363277803E+03  0.25363277803E+03  0.00000000000E+00 0.  1.
         21   -1    0    0  503  502  0.00000000000E+00 -0.00000000000E+00 -0.78957004591E+03  0.78957004591E+03  0.00000000000E+00 0.  1.
         24    2    1    2    0    0 -0.19124674317E+03  0.10594834282E+03 -0.26747478950E+01  0.23268301281E+03  0.79585564354E+02 0.  0.
         23    2    1    2    0    0  0.85976197639E+01 -0.16453489176E+03  0.41688718611E+02  0.19238637747E+03  0.90160519648E+02 0.  0.
        -13    1    3    3    0    0 -0.34482454738E+02  0.33069177232E+02 -0.31769169817E+02  0.57374997328E+02  0.00000000000E+00 0.  1.
         14    1    3    3    0    0 -0.15676428843E+03  0.72879165585E+02  0.29094421922E+02  0.17530801548E+03  0.00000000000E+00 0. -1.
        -11    1    4    4    0    0  0.12900353589E+02 -0.12847245561E+03  0.69507099176E+02  0.14663842542E+03  0.00000000000E+00 0.  1.
         11    1    4    4    0    0 -0.43027338256E+01 -0.36062436152E+02 -0.27818380565E+02  0.45747952051E+02  0.00000000000E+00 0. -1.
         21    1    1    2  503  501 -0.23742007219E+01 -0.20314400390E+02 -0.10454944927E+03  0.10653121156E+03  0.00000000000E+00 0.  1.
         -2    1    1    2    0  502  0.18502332413E+03  0.78900949335E+02 -0.47040178932E+03  0.51160222212E+03  0.00000000000E+00 0.  1.
<scales pt_clust_5="13000.00000" pt_clust_6="13000.00000" pt_clust_7="13000.00000" pt_clust_8="13000.00000" pt_clust_9="20.45267" pt_clust_10="13000.00000"></scales>
<clustering>
<clus scale="   20.453">  2  9  1 -1</clus>
<clus scale="   79.586">  5  6 -1 -1</clus>
<clus scale="   90.161">  7  8 -1 -1</clus>
<clus scale="  194.275">  7 10 -1 -1</clus>
<clus scale="  231.435">  1  5  2 -1</clus>
<clus scale="   20.453">  2  5  1 -1</clus>
</clustering>
</event>
<event>
10    4  0.2866397E-005  0.6982065E+03  0.7546771E-02  0.1026367E+00
          2   -1    0    0  503    0 -0.00000000000E+00  0.00000000000E+00  0.80011405213E+03  0.80011405213E+03  0.00000000000E+00 0. -1.
         21   -1    0    0  501  502  0.00000000000E+00 -0.00000000000E+00 -0.11993498163E+04  0.11993498163E+04  0.00000000000E+00 0.  1.
         24    2    1    2    0    0  0.42629146561E+02 -0.86745314224E+02  0.26856872052E+03  0.29642275881E+03  0.79970623508E+02 0.  0.
         23    2    1    2    0    0  0.10400837906E+03 -0.23994212586E+03 -0.24689310411E+02  0.27883686562E+03  0.93543941028E+02 0.  0.
        -13    1    3    3    0    0 -0.38302055065E+01 -0.77773368029E+02  0.15761379165E+03  0.17579952948E+03  0.00000000000E+00 0.  1.
         14    1    3    3    0    0  0.46459352067E+02 -0.89719461950E+01  0.11095492887E+03  0.12062322933E+03  0.00000000000E+00 0. -1.
        -11    1    4    4    0    0  0.38721026507E+02 -0.13217543383E+03 -0.56522705734E+02  0.14887739743E+03  0.00000000000E+00 0. -1.
         11    1    4    4    0    0  0.65287352551E+02 -0.10776669203E+03  0.31833395324E+02  0.12995946819E+03  0.00000000000E+00 0.  1.
         21    1    1    2  503  502  0.17052023044E+03  0.45886804532E+03 -0.87990786185E+03  0.10069135402E+04  0.00000000000E+00 0.  1.
          1    1    1    2  501    0 -0.31715775606E+03 -0.13218060524E+03  0.23679268758E+03  0.41729070385E+03  0.00000000000E+00 0. -1.
<scales pt_clust_5="13000.00000" pt_clust_6="13000.00000" pt_clust_7="13000.00000" pt_clust_8="13000.00000" pt_clust_9="481.45046" pt_clust_10="13000.00000"></scales>
<clustering>
<clus scale="   79.971">  5  6 -1 -1</clus>
<clus scale="   93.544">  7  8 -1 -1</clus>
<clus scale="  125.448">  1  5  2 -1</clus>
<clus scale="  345.246">  7 10 -1 -1</clus>
<clus scale="  481.450">  2  9  1 -1</clus>
<clus scale="  481.450">  2  5  1 -1</clus>
</clustering>
</event>
<event>
10    4  0.2866397E-005  0.2385673E+03  0.7546771E-02  0.1157917E+00
         21   -1    0    0  501  502  0.00000000000E+00  0.00000000000E+00  0.32822388942E+03  0.32822388942E+03  0.00000000000E+00 0. -1.
          2   -1    0    0  503    0 -0.00000000000E+00 -0.00000000000E+00 -0.42694751634E+03  0.42694751634E+03  0.00000000000E+00 0. -1.
         24    2    1    2    0    0 -0.57413300397E+02 -0.21635554885E+01 -0.26479656713E+03  0.28289860378E+03  0.81322998117E+02 0.  0.
         23    2    1    2    0    0 -0.65746206566E+02 -0.17147159910E+02 -0.88343709193E+02  0.14749999049E+03  0.96618049401E+02 0.  0.
        -11    1    3    3    0    0 -0.29450701343E+02  0.37949959104E+02 -0.98951400394E+02  0.10999510373E+03  0.00000000000E+00 0.  1.
         12    1    3    3    0    0 -0.27962599054E+02 -0.40113514592E+02 -0.16584516674E+03  0.17290350005E+03  0.00000000000E+00 0. -1.
        -13    1    4    4    0    0 -0.83154701925E+02  0.92865377882E+00 -0.89763249192E+02  0.12236424214E+03  0.00000000000E+00 0. -1.
         13    1    4    4    0    0  0.17408495358E+02 -0.18075813689E+02  0.14195399994E+01  0.25135748347E+02  0.00000000000E+00 0.  1.
         21    1    1    2  503  502  0.49034597075E+02 -0.29863195689E+02  0.22325634529E+03  0.23052027650E+03  0.00000000000E+00 0. -1.
          1    1    1    2  501    0  0.74124909889E+02  0.49173911087E+02  0.31160304122E+02  0.94252534982E+02  0.00000000000E+00 0. -1.
<scales pt_clust_5="13000.00000" pt_clust_6="13000.00000" pt_clust_7="13000.00000" pt_clust_8="13000.00000" pt_clust_9="57.41256" pt_clust_10="13000.00000"></scales>
<clustering>
<clus scale="   57.413">  1  9  2 -1</clus>
<clus scale="   81.323">  5  6 -1 -1</clus>
<clus scale="   96.618">  7  8 -1 -1</clus>
<clus scale="   97.208">  2  5  1 -1</clus>
<clus scale="   92.195">  7 10 -1 -1</clus>
<clus scale="   57.413">  1  5  2 -1</clus>
</clustering>
</event>
<event>
10    4  0.2866397E-005  0.2262484E+03  0.7546771E-02  0.1138544E+00
         21   -1    0    0  503  502  0.00000000000E+00  0.00000000000E+00  0.18130273991E+03  0.18130273991E+03  0.00000000000E+00 0.  1.
          2   -1    0    0  502    0 -0.00000000000E+00 -0.00000000000E+00 -0.87351626144E+03  0.87351626144E+03  0.00000000000E+00 0. -1.
         24    2    1    2    0    0 -0.99657909341E+02  0.93352999283E+02  0.60390898902E+02  0.16857588508E+03  0.78257823837E+02 0.  0.
         23    2    1    2    0    0  0.89214339570E+01 -0.53875867779E+02 -0.45284659912E+03  0.46471598623E+03  0.88930896781E+02 0.  0.
        -13    1    3    3    0    0 -0.67180308416E+02  0.37719874684E+02 -0.44512255979E+01  0.77173805105E+02  0.00000000000E+00 0.  1.
         14    1    3    3    0    0 -0.32477600925E+02  0.55633124599E+02  0.64842124499E+02  0.91402079977E+02  0.00000000000E+00 0. -1.
        -11    1    4    4    0    0  0.30294831227E+01  0.23183499550E+02 -0.61139871369E+02  0.65457897082E+02  0.00000000000E+00 0.  1.
         11    1    4    4    0    0  0.58919508343E+01 -0.77059367329E+02 -0.39170672775E+03  0.39925808914E+03  0.00000000000E+00 0. -1.
         21    1    1    2  503  501  0.29808141649E+01  0.42634526447E+02  0.41593622408E+02  0.59637383607E+02  0.00000000000E+00 0.  1.
          1    1    1    2  501    0  0.87755661219E+02 -0.82111657950E+02 -0.34135144371E+03  0.36188974643E+03  0.00000000000E+00 0. -1.
<scales pt_clust_5="13000.00000" pt_clust_6="13000.00000" pt_clust_7="13000.00000" pt_clust_8="13000.00000" pt_clust_9="42.73860" pt_clust_10="13000.00000"></scales>
<clustering>
<clus scale="   42.739">  1  9  2 -1</clus>
<clus scale="   78.258">  5  6 -1 -1</clus>
<clus scale="   88.931">  7  8 -1 -1</clus>
<clus scale="  118.092">  7 10 -1 -1</clus>
<clus scale="  180.624">  2  5  1 -1</clus>
<clus scale="   42.739">  1  5  2 -1</clus>
</clustering>
</event>
<event>
10    4  0.2866397E-005  0.1348937E+03  0.7546771E-02  0.1234157E+00
          2   -1    0    0  502    0 -0.00000000000E+00  0.00000000000E+00  0.46958636990E+03  0.46958636990E+03  0.00000000000E+00 0. -1.
         21   -1    0    0  503  502  0.00000000000E+00 -0.00000000000E+00 -0.13587394240E+03  0.13587394240E+03  0.00000000000E+00 0. -1.
         24    2    1    2    0    0 -0.61425127318E+02  0.83046714939E+01 -0.39170452405E+02  0.10869661801E+03  0.80240990714E+02 0.  0.
         23    2    1    2    0    0  0.21214255015E+02 -0.17070069283E+02  0.24219975527E+03  0.25996328702E+03  0.90436481937E+02 0.  0.
        -11    1    3    3    0    0  0.17283872219E+02  0.13416300901E+02 -0.13682875435E+02  0.25806015751E+02  0.00000000000E+00 0.  1.
         12    1    3    3    0    0 -0.78708999537E+02 -0.51116294066E+01 -0.25487576970E+02  0.82890602260E+02  0.00000000000E+00 0. -1.
        -11    1    4    4    0    0 -0.95296243223E+01 -0.34602720849E+02  0.36313107128E+02  0.51056868091E+02  0.00000000000E+00 0.  1.
         11    1    4    4    0    0  0.30743879337E+02  0.17532651567E+02  0.20588664814E+03  0.20890641893E+03  0.00000000000E+00 0. -1.
         21    1    1    2  503  501  0.15113218817E+02  0.34922261648E+02 -0.44128852334E+02  0.58269454691E+02  0.00000000000E+00 0. -1.
          1    1    1    2  501    0  0.25097653486E+02 -0.26156863859E+02  0.17481197697E+03  0.17853095258E+03  0.00000000000E+00 0. -1.
<scales pt_clust_5="13000.00000" pt_clust_6="13000.00000" pt_clust_7="13000.00000" pt_clust_8="13000.00000" pt_clust_9="38.05225" pt_clust_10="13000.00000"></scales>
<clustering>
<clus scale="   38.052">  2  9  1 -1</clus>
<clus scale="   80.241">  5  6 -1 -1</clus>
<clus scale="   90.436">  7  8 -1 -1</clus>
<clus scale="   35.935">  7 10 -1 -1</clus>
<clus scale="  101.340">  1  5  2 -1</clus>
<clus scale="   38.052">  2  5  1 -1</clus>
</clustering>
</event>
<event>
10    4  0.2866397E-005  0.2158267E+03  0.7546771E-02  0.1176638E+00
         21   -1    0    0  503  502  0.00000000000E+00  0.00000000000E+00  0.78966150234E+02  0.78966150234E+02  0.00000000000E+00 0. -1.
         -3   -1    0    0    0  501 -0.00000000000E+00 -0.00000000000E+00 -0.38272380082E+03  0.38272380082E+03  0.00000000000E+00 0.  1.
         24    2    1    2    0    0  0.45341388741E+02 -0.33871946731E+02 -0.54741482785E+02  0.10635725572E+03  0.71498850326E+02 0.  0.
         23    2    1    2    0    0  0.49674705755E+02  0.42546395480E+02 -0.21939027918E+02  0.10595367486E+03  0.80418207584E+02 0.  0.
        -13    1    3    3    0    0  0.40020249559E+02 -0.55690160376E+02 -0.38546386714E+02  0.78669169731E+02  0.00000000000E+00 0.  1.
         14    1    3    3    0    0  0.53211391818E+01  0.21818213645E+02 -0.16195096071E+02  0.27688085986E+02  0.00000000000E+00 0. -1.
        -11    1    4    4    0    0  0.99824001577E+01  0.24998063117E+02 -0.48215466156E+02  0.55220310115E+02  0.00000000000E+00 0.  1.
         11    1    4    4    0    0  0.39692305598E+02  0.17548332363E+02  0.26276438238E+02  0.50733364750E+02  0.00000000000E+00 0. -1.
         21    1    1    2  503  501 -0.38836490418E+02 -0.16513222267E+01 -0.49163950305E+02  0.62674507279E+02  0.00000000000E+00 0.  1.
         -4    1    1    2    0  502 -0.56179604078E+02 -0.70231265222E+01 -0.17791318957E+03  0.18670451319E+03  0.00000000000E+00 0.  1.
<scales pt_clust_5="13000.00000" pt_clust_6="13000.00000" pt_clust_7="13000.00000" pt_clust_8="13000.00000" pt_clust_9="38.87160" pt_clust_10="13000.00000"></scales>
<clustering>
<clus scale="   38.872">  1  9  2 -1</clus>
<clus scale="   71.499">  5  6 -1 -1</clus>
<clus scale="   80.418">  7  8 -1 -1</clus>
<clus scale="   58.976">  7 10 -1 -1</clus>
<clus scale="   85.379">  2  5  1 -1</clus>
<clus scale="   38.872">  1  5  2 -1</clus>
</clustering>
</event>
<event>
10    4  0.2866397E-005  0.1594952E+03  0.7546771E-02  0.1198284E+00
         21   -1    0    0  501  502  0.00000000000E+00  0.00000000000E+00  0.23094885441E+03  0.23094885441E+03  0.00000000000E+00 0. -1.
          2   -1    0    0  503    0 -0.00000000000E+00 -0.00000000000E+00 -0.23698413492E+03  0.23698413492E+03  0.00000000000E+00 0. -1.
         24    2    1    2    0    0 -0.15631617962E+02  0.82183517603E+02  0.15848289135E+03  0.19630245968E+03  0.80120851080E+02 0.  0.
         23    2    1    2    0    0 -0.14815848139E+02 -0.97486162535E+02 -0.14705650442E+03  0.19866297185E+03  0.90101607378E+02 0.  0.
        -13    1    3    3    0    0 -0.16415957328E+01  0.54338424017E+02  0.26104839173E+02  0.60306067600E+02  0.00000000000E+00 0.  1.
         14    1    3    3    0    0 -0.13990022229E+02  0.27845093587E+02  0.13237805218E+03  0.13599639208E+03  0.00000000000E+00 0. -1.
        -13    1    4    4    0    0 -0.36045951498E+02 -0.72898575389E+02 -0.14483223273E+03  0.16610204259E+03  0.00000000000E+00 0. -1.
         13    1    4    4    0    0  0.21230103359E+02 -0.24587587146E+02 -0.22242716877E+01  0.32560929268E+02  0.00000000000E+00 0.  1.
         21    1    1    2  503  502  0.36856622219E+01  0.24098533888E+02  0.16050660920E+02  0.29188133848E+02  0.00000000000E+00 0.  1.
          1    1    1    2  501    0  0.26761803879E+02 -0.87958889569E+01 -0.33512328362E+02  0.43779423953E+02  0.00000000000E+00 0. -1.
<scales pt_clust_5="13000.00000" pt_clust_6="13000.00000" pt_clust_7="13000.00000" pt_clust_8="13000.00000" pt_clust_9="24.37875" pt_clust_10="13000.00000"></scales>
<clustering>
<clus scale="   24.379">  1  9  2 -1</clus>
<clus scale="   80.121">  5  6 -1 -1</clus>
<clus scale="   90.102">  7  8 -1 -1</clus>
<clus scale="   28.077">  7 10 -1 -1</clus>
<clus scale="  130.857">  2  5  1 -1</clus>
<clus scale="   24.379">  1  5  2 -1</clus>
</clustering>
</event>
<event>
10    4  0.2866397E-005  0.1325653E+03  0.7546771E-02  0.1243891E+00
          2   -1    0    0  503    0 -0.00000000000E+00  0.00000000000E+00  0.57753262722E+03  0.57753262722E+03  0.00000000000E+00 0. -1.
         21   -1    0    0  501  502  0.00000000000E+00 -0.00000000000E+00 -0.42659670265E+02  0.42659670265E+02  0.00000000000E+00 0. -1.
         24    2    1    2    0    0  0.19277496023E+02 -0.17761809895E+02  0.83609989889E+02  0.11882403848E+03  0.80258444836E+02 0.  0.
         23    2    1    2    0    0  0.13568195575E+02  0.21146845345E+02  0.25831325483E+03  0.27470784389E+03  0.90040973304E+02 0.  0.
        -11    1    3    3    0    0 -0.38725796036E+01  0.29502099614E+02  0.18238484763E+02  0.34900044138E+02  0.00000000000E+00 0.  1.
         12    1    3    3    0    0  0.23150075627E+02 -0.47263909509E+02  0.65371505126E+02  0.83923994340E+02  0.00000000000E+00 0. -1.
        -11    1    4    4    0    0 -0.25805076814E+02 -0.19950930327E+02  0.13514358303E+03  0.13902420524E+03  0.00000000000E+00 0.  1.
         11    1    4    4    0    0  0.39373272389E+02  0.41097775671E+02  0.12316967181E+03  0.13568363865E+03  0.00000000000E+00 0. -1.
         21    1    1    2  503  502 -0.36040667294E+01 -0.20030164646E+02 -0.87647592087E+01  0.22158921380E+02  0.00000000000E+00 0. -1.
          1    1    1    2  501    0 -0.29241624869E+02  0.16645129196E+02  0.20171447144E+03  0.20450149374E+03  0.00000000000E+00 0. -1.
<scales pt_clust_5="13000.00000" pt_clust_6="13000.00000" pt_clust_7="13000.00000" pt_clust_8="13000.00000" pt_clust_9="20.35183" pt_clust_10="13000.00000"></scales>
<clustering>
<clus scale="   20.352">  2  9  1 -1</clus>
<clus scale="   80.258">  5  6 -1 -1</clus>
<clus scale="   87.594">  1  5  2 -1</clus>
<clus scale="   90.041">  7  8 -1 -1</clus>
<clus scale="   22.232">  7 10 -1 -1</clus>
<clus scale="   20.352">  2  5  1 -1</clus>
</clustering>
</event>
<event>
10    4  0.2866397E-005  0.3383448E+03  0.7546771E-02  0.1117084E+00
          2   -1    0    0  502    0 -0.00000000000E+00  0.00000000000E+00  0.91580789807E+03  0.91580789807E+03  0.00000000000E+00 0. -1.
         21   -1    0    0  503  502  0.00000000000E+00 -0.00000000000E+00 -0.16441253280E+03  0.16441253280E+03  0.00000000000E+00 0. -1.
         24    2    1    2    0    0  0.19794950287E+02 -0.51747766032E+02  0.25448800490E+03  0.27274225010E+03  0.80959983961E+02 0.  0.
         23    2    1    2    0    0  0.25551481849E+02  0.80819984691E+02  0.50748006877E+03  0.52262764365E+03  0.91754485251E+02 0.  0.
        -13    1    3    3    0    0  0.25400910652E+02 -0.11711641435E+02  0.19010296534E+02  0.33819523672E+02  0.00000000000E+00 0.  1.
         14    1    3    3    0    0 -0.56059603656E+01 -0.40036124597E+02  0.23547770837E+03  0.23892272643E+03  0.00000000000E+00 0. -1.
        -11    1    4    4    0    0  0.42821962574E+02  0.63559100516E+00  0.18214066503E+03  0.18710784674E+03  0.00000000000E+00 0.  1.
         11    1    4    4    0    0 -0.17270480725E+02  0.80184393686E+02  0.32533940374E+03  0.33551979691E+03  0.00000000000E+00 0. -1.
         21    1    1    2  503  501  0.15789724238E+02  0.90092844280E+02 -0.90672910391E+02  0.12879290610E+03  0.00000000000E+00 0. -1.
          1    1    1    2  501    0 -0.61136156374E+02 -0.11916506294E+03  0.80100201987E+02  0.15605763102E+03  0.00000000000E+00 0. -1.
<scales pt_clust_5="13000.00000" pt_clust_6="13000.00000" pt_clust_7="13000.00000" pt_clust_8="13000.00000" pt_clust_9="91.46604" pt_clust_10="13000.00000"></scales>
<clustering>
<clus scale="   80.960">  5  6 -1 -1</clus>
<clus scale="   91.466">  2  9  1 -1</clus>
<clus scale="   91.680">  1  5  2 -1</clus>
<clus scale="   91.754">  7  8 -1 -1</clus>
<clus scale="   77.233">  7 10 -1 -1</clus>
<clus scale="   91.466">  2  5  1 -1</clus>
</clustering>
</event>
<event>
10    4  0.2866397E-005  0.2092510E+03  0.7546771E-02  0.1179898E+00
         21   -1    0    0  503  502  0.00000000000E+00  0.00000000000E+00  0.10399694885E+03  0.10399694885E+03  0.00000000000E+00 0.  1.
         -1   -1    0    0    0  501 -0.00000000000E+00 -0.00000000000E+00 -0.35066993256E+03  0.35066993256E+03  0.00000000000E+00 0.  1.
         24    2    1    2    0    0  0.25880246579E+02  0.28234328570E+02 -0.82365321264E+02  0.12173031892E+03  0.81038632293E+02 0.  0.
         23    2    1    2    0    0  0.15483958024E+02  0.12058423226E+02 -0.22333149733E+03  0.24227202907E+03  0.91834742024E+02 0.  0.
        -13    1    3    3    0    0 -0.22772112906E+02  0.31343117521E+02 -0.49831480573E+02  0.63120017413E+02  0.00000000000E+00 0.  1.
         14    1    3    3    0    0  0.48652359486E+02 -0.31087889512E+01 -0.32533840692E+02  0.58610301504E+02  0.00000000000E+00 0. -1.
        -13    1    4    4    0    0  0.44048917700E+02  0.37495500758E+01 -0.51445726494E+02  0.67830885670E+02  0.00000000000E+00 0.  1.
         13    1    4    4    0    0 -0.28564959675E+02  0.83088731503E+01 -0.17188577084E+03  0.17444114340E+03  0.00000000000E+00 0. -1.
         21    1    1    2  503  501 -0.41115066105E+01 -0.26494707029E+02  0.35530453495E+02  0.44511651426E+02  0.00000000000E+00 0.  1.
         -2    1    1    2    0  502 -0.37252697993E+02 -0.13798044767E+02  0.23493381388E+02  0.46152881993E+02  0.00000000000E+00 0.  1.
<scales pt_clust_5="13000.00000" pt_clust_6="13000.00000" pt_clust_7="13000.00000" pt_clust_8="13000.00000" pt_clust_9="26.81183" pt_clust_10="13000.00000"></scales>
<clustering>
<clus scale="   26.812">  1  9  2 -1</clus>
<clus scale="   81.039">  5  6 -1 -1</clus>
<clus scale="   87.043">  2  5  1 -1</clus>
<clus scale="   91.835">  7  8 -1 -1</clus>
<clus scale="   45.953">  7 10 -1 -1</clus>
<clus scale="   26.812">  1  5  2 -1</clus>
</clustering>
</event>
<event>
10    4  0.2866397E-005  0.5303337E+03  0.7546771E-02  0.1021960E+00
          2   -1    0    0  502    0 -0.00000000000E+00  0.00000000000E+00  0.20310443671E+04  0.20310443671E+04  0.00000000000E+00 0. -1.
         21   -1    0    0  503  502  0.00000000000E+00 -0.00000000000E+00 -0.24510435669E+03  0.24510435669E+03  0.00000000000E+00 0. -1.
         24    2    1    2    0    0 -0.38234497377E+03  0.21442855920E+03  0.10771847019E+03  0.45910075688E+03  0.83683631493E+02 0.  0.
         23    2    1    2    0    0 -0.36676067013E+02 -0.69282771401E+02  0.86251544322E+02  0.14788744217E+03  0.91028184366E+02 0.  0.
        -11    1    3    3    0    0 -0.11470962861E+03  0.53492154028E+02  0.69719176021E+02  0.14450077143E+03  0.00000000000E+00 0.  1.
         12    1    3    3    0    0 -0.26763534516E+03  0.16093640517E+03  0.37999294168E+02  0.31459998545E+03  0.00000000000E+00 0. -1.
        -13    1    4    4    0    0 -0.10537378022E+02  0.21027922793E+02  0.59918766775E+01  0.24271638979E+02  0.00000000000E+00 0.  1.
         13    1    4    4    0    0 -0.26138688990E+02 -0.90310694195E+02  0.80259667645E+02  0.12361580319E+03  0.00000000000E+00 0. -1.
         21    1    1    2  503  501  0.16698664167E+03 -0.26317796685E+02  0.27317400450E+03  0.32124943837E+03  0.00000000000E+00 0. -1.
          1    1    1    2  501    0  0.25203439911E+03 -0.11882799112E+03  0.13187959914E+04  0.13479110864E+04  0.00000000000E+00 0. -1.
<scales pt_clust_5="13000.00000" pt_clust_6="13000.00000" pt_clust_7="13000.00000" pt_clust_8="13000.00000" pt_clust_9="169.04790" pt_clust_10="13000.00000"></scales>
<clustering>
<clus scale="   83.684">  5  6 -1 -1</clus>
<clus scale="   91.028">  7  8 -1 -1</clus>
<clus scale="  169.048">  2  9  1 -1</clus>
<clus scale="  289.344">  7 10 -1 -1</clus>
<clus scale="  326.752">  1  5  2 -1</clus>
<clus scale="  169.048">  2  5  1 -1</clus>
</clustering>
</event>
<event>
10    4  0.2866397E-005  0.3106506E+03  0.7546771E-02  0.1106918E+00
         21   -1    0    0  503  502  0.00000000000E+00  0.00000000000E+00  0.45270332698E+02  0.45270332698E+02  0.00000000000E+00 0.  1.
          2   -1    0    0  502    0 -0.00000000000E+00 -0.00000000000E+00 -0.19774674106E+04  0.19774674106E+04  0.00000000000E+00 0. -1.
         24    2    1    2    0    0 -0.89623273754E+02 -0.77223695620E+02 -0.31970875028E+03  0.35071570955E+03  0.82413552003E+02 0.  0.
         23    2    1    2    0    0 -0.41391787930E+02 -0.38643840814E+02 -0.35847193032E+03  0.37395972328E+03  0.90206004586E+02 0.  0.
        -13    1    3    3    0    0 -0.46533833006E+02 -0.79029558553E+02 -0.15177177893E+03  0.17732947194E+03  0.00000000000E+00 0.  1.
         14    1    3    3    0    0 -0.43089440748E+02  0.18058629331E+01 -0.16793697135E+03  0.17338623760E+03  0.00000000000E+00 0. -1.
        -13    1    4    4    0    0 -0.61190827612E+02 -0.46918624646E+02 -0.32630670584E+03  0.33529351470E+03  0.00000000000E+00 0. -1.
         13    1    4    4    0    0  0.19799039683E+02  0.82747838315E+01 -0.32165224480E+02  0.38666208576E+02  0.00000000000E+00 0.  1.
         21    1    1    2  503  501 -0.41199056603E+02  0.19156465499E+02 -0.22303607103E+02  0.50614062524E+02  0.00000000000E+00 0.  1.
          1    1    1    2  501    0  0.17221411829E+03  0.96711070936E+02 -0.12317127902E+04  0.12474482480E+04  0.00000000000E+00 0. -1.
<scales pt_clust_5="13000.00000" pt_clust_6="13000.00000" pt_clust_7="13000.00000" pt_clust_8="13000.00000" pt_clust_9="45.43493" pt_clust_10="13000.00000"></scales>
<clustering>
<clus scale="   45.435">  1  9  2 -1</clus>
<clus scale="   82.414">  5  6 -1 -1</clus>
<clus scale="   90.206">  7  8 -1 -1</clus>
<clus scale="  153.316">  2  5  1 -1</clus>
<clus scale="   95.123">  7 10 -1 -1</clus>
<clus scale="   45.435">  1  5  2 -1</clus>
</clustering>
</event>
<event>
10    4  0.2866397E-005  0.1473249E+03  0.7546771E-02  0.1225613E+00
         -1   -1    0    0    0  501 -0.00000000000E+00  0.00000000000E+00  0.81638508294E+03  0.81638508294E+03  0.00000000000E+00 0.  1.
         21   -1    0    0  501  502  0.00000000000E+00 -0.00000000000E+00 -0.47083126281E+02  0.47083126281E+02  0.00000000000E+00 0.  1.
         24    2    1    2    0    0  0.17891002135E+02  0.51357495173E+02  0.42650446862E+03  0.43749287786E+03  0.80847239674E+02 0.  0.
         23    2    1    2    0    0 -0.39684029267E+02 -0.18326212758E+01  0.17559125229E+03  0.19946787462E+03  0.85889256856E+02 0.  0.
        -13    1    3    3    0    0  0.33082399951E+02 -0.59478723279E+01  0.96026202098E+02  0.10173914616E+03  0.00000000000E+00 0.  1.
         14    1    3    3    0    0 -0.15191397816E+02  0.57305367501E+02  0.33047826652E+03  0.33575373170E+03  0.00000000000E+00 0. -1.
        -11    1    4    4    0    0  0.23962688495E+02 -0.15787463621E+02  0.66015285292E+02  0.71982444663E+02  0.00000000000E+00 0. -1.
         11    1    4    4    0    0 -0.63646717761E+02  0.13954842345E+02  0.10957596700E+03  0.12748542996E+03  0.00000000000E+00 0.  1.
         21    1    1    2  503  502 -0.58384979794E+01 -0.30224520038E+02 -0.19725822366E+02  0.36561150668E+02  0.00000000000E+00 0.  1.
         -2    1    1    2    0  503  0.27631525111E+02 -0.19300353860E+02  0.18693205812E+03  0.18994630607E+03  0.00000000000E+00 0.  1.
<scales pt_clust_5="13000.00000" pt_clust_6="13000.00000" pt_clust_7="13000.00000" pt_clust_8="13000.00000" pt_clust_9="30.78327" pt_clust_10="13000.00000"></scales>
<clustering>
<clus scale="   30.783">  2  9  1 -1</clus>
<clus scale="   80.847">  5  6 -1 -1</clus>
<clus scale="   85.889">  7  8 -1 -1</clus>
<clus scale="   34.773">  7 10 -1 -1</clus>
<clus scale="   92.804">  1  5  2 -1</clus>
<clus scale="   30.783">  2  5  1 -1</clus>
</clustering>
</event>
<event>
10    4  0.2866397E-005  0.2047764E+03  0.7546771E-02  0.1182589E+00
         21   -1    0    0  501  502  0.00000000000E+00  0.00000000000E+00  0.38548188421E+03  0.38548188421E+03  0.00000000000E+00 0.  1.
         -1   -1    0    0    0  501 -0.00000000000E+00 -0.00000000000E+00 -0.66609075522E+02  0.66609075522E+02  0.00000000000E+00 0.  1.
         24    2    1    2    0    0 -0.35914233691E+02  0.15269688253E+02  0.59718256269E+02  0.10667612148E+03  0.79312856474E+02 0.  0.
         23    2    1    2    0    0 -0.18035641472E+02 -0.68720252373E+02  0.22946649428E+03  0.25730845656E+03  0.92222623977E+02 0.  0.
        -11    1    3    3    0    0 -0.54254624326E+02  0.40499242848E+01  0.14035501267E+02  0.56186844041E+02  0.00000000000E+00 0.  1.
         12    1    3    3    0    0  0.18340390635E+02  0.11219763968E+02  0.45682755002E+02  0.50489277443E+02  0.00000000000E+00 0. -1.
        -13    1    4    4    0    0  0.28148678056E+02 -0.34307086331E+02  0.41656020686E+02  0.60865000683E+02  0.00000000000E+00 0. -1.
         13    1    4    4    0    0 -0.46184319527E+02 -0.34413166042E+02  0.18781047359E+03  0.19644345588E+03  0.00000000000E+00 0.  1.
         21    1    1    2  503  502  0.18342977342E+02  0.15264473102E+02  0.26699307771E+02  0.35809523766E+02  0.00000000000E+00 0.  1.
         -2    1    1    2    0  503  0.35606897820E+02  0.38186091019E+02  0.29887503720E+01  0.52296857921E+02  0.00000000000E+00 0.  1.
<scales pt_clust_5="13000.00000" pt_clust_6="13000.00000" pt_clust_7="13000.00000" pt_clust_8="13000.00000" pt_clust_9="23.86355" pt_clust_10="13000.00000"></scales>
<clustering>
<clus scale="   23.864">  1  9  2 -1</clus>
<clus scale="   79.313">  5  6 -1 -1</clus>
<clus scale="   87.436">  2  5  1 -1</clus>
<clus scale="   92.223">  7  8 -1 -1</clus>
<clus scale="   54.066">  7 10 -1 -1</clus>
<clus scale="   23.864">  1  5  2 -1</clus>
</clustering>
</event>
<event>
10    4  0.2866397E-005  0.3793034E+03  0.7546771E-02  0.1092501E+00
          2   -1    0    0  503    0 -0.00000000000E+00  0.00000000000E+00  0.10516640984E+04  0.10516640984E+04  0.00000000000E+00 0. -1.
         21   -1    0    0  501  502  0.00000000000E+00 -0.00000000000E+00 -0.10637198483E+03  0.10637198483E+03  0.00000000000E+00 0. -1.
         24    2    1    2    0    0 -0.70931336750E+02 -0.63833215058E+02  0.14193625184E+02  0.12186363915E+03  0.74453701550E+02 0.  0.
         23    2    1    2    0    0  0.18657734576E+02 -0.13139176517E+03  0.64352180769E+03  0.66367240439E+03  0.93428241759E+02 0.  0.
        -13    1    3    3    0    0  0.45493254942E+01 -0.23740837722E+02 -0.18413436602E+02  0.30387141783E+02  0.00000000000E+00 0.  1.
         14    1    3    3    0    0 -0.75480662244E+02 -0.40092377335E+02  0.32607061786E+02  0.91476497372E+02  0.00000000000E+00 0. -1.
        -11    1    4    4    0    0  0.44583786781E+02 -0.12856887461E+03  0.54976250075E+03  0.56635366759E+03  0.00000000000E+00 0. -1.
         11    1    4    4    0    0 -0.25926052205E+02 -0.28228905674E+01  0.93759306940E+02  0.97318736798E+02  0.00000000000E+00 0.  1.
         21    1    1    2  503  502 -0.38161142410E+02  0.59248245643E+02  0.11523567470E+03  0.13507734127E+03  0.00000000000E+00 0. -1.
          1    1    1    2  501    0  0.90434744585E+02  0.13597673459E+03  0.17234100599E+03  0.23742269841E+03  0.00000000000E+00 0. -1.
<scales pt_clust_5="13000.00000" pt_clust_6="13000.00000" pt_clust_7="13000.00000" pt_clust_8="13000.00000" pt_clust_9="70.47434" pt_clust_10="13000.00000"></scales>
<clustering>
<clus scale="   70.474">  2  9  1 -1</clus>
<clus scale="   74.454">  5  6 -1 -1</clus>
<clus scale="   93.428">  7  8 -1 -1</clus>
<clus scale="  122.460">  1  5  2 -1</clus>
<clus scale="  154.925">  7 10 -1 -1</clus>
<clus scale="   70.474">  2  5  1 -1</clus>
</clustering>
</event>
<event>
10    4  0.2866397E-005  0.1920276E+03  0.7546771E-02  0.1171457E+00
         21   -1    0    0  503  502  0.00000000000E+00  0.00000000000E+00  0.81279304895E+02  0.81279304895E+02  0.00000000000E+00 0.  1.
         -1   -1    0    0    0  501 -0.00000000000E+00 -0.00000000000E+00 -0.59074257921E+03  0.59074257921E+03  0.00000000000E+00 0.  1.
         24    2    1    2    0    0 -0.10342061497E+03 -0.56658459021E+01 -0.19540898368E+03  0.23446944555E+03  0.77867352490E+02 0.  0.
         23    2    1    2    0    0  0.19556295411E+02  0.10104351031E+02 -0.12863836680E+03  0.15860057433E+03  0.90120842012E+02 0.  0.
        -13    1    3    3    0    0 -0.98604875856E+02  0.21515797205E+01 -0.20087645667E+03  0.22378315773E+03  0.00000000000E+00 0.  1.
         14    1    3    3    0    0 -0.48157391125E+01 -0.78174256225E+01  0.54674729899E+01  0.10686287824E+02  0.00000000000E+00 0. -1.
        -11    1    4    4    0    0  0.47232183625E+02  0.12622523142E+02 -0.32946088312E+02  0.58954660507E+02  0.00000000000E+00 0.  1.
         11    1    4    4    0    0 -0.27675888214E+02 -0.25181721104E+01 -0.95692278492E+02  0.99645913826E+02  0.00000000000E+00 0. -1.
         21    1    1    2  503  501 -0.18991534267E+02 -0.10929443609E+02  0.31747016640E+02  0.38574657186E+02  0.00000000000E+00 0. -1.
         -2    1    1    2    0  502  0.10285585382E+03  0.64909384793E+01 -0.21716294048E+03  0.24037720704E+03  0.00000000000E+00 0.  1.
<scales pt_clust_5="13000.00000" pt_clust_6="13000.00000" pt_clust_7="13000.00000" pt_clust_8="13000.00000" pt_clust_9="21.91189" pt_clust_10="13000.00000"></scales>
<clustering>
<clus scale="   21.912">  1  9  2 -1</clus>
<clus scale="   77.867">  5  6 -1 -1</clus>
<clus scale="   90.121">  7  8 -1 -1</clus>
<clus scale="   98.147">  7 10 -1 -1</clus>
<clus scale="  136.357">  2  5  1 -1</clus>
<clus scale="   21.912">  1  5  2 -1</clus>
</clustering>
</event>
<event>
10    4  0.2866397E-005  0.6671318E+03  0.7546771E-02  0.1034264E+00
         -1   -1    0    0    0  501 -0.00000000000E+00  0.00000000000E+00  0.98424143957E+03  0.98424143957E+03  0.00000000000E+00 0.  1.
         21   -1    0    0  501  502  0.00000000000E+00 -0.00000000000E+00 -0.43643043669E+03  0.43643043669E+03  0.00000000000E+00 0.  1.
         24    2    1    2    0    0 -0.62923236062E+02  0.48079556826E+02  0.13751869820E+03  0.17848726249E+03  0.81702711689E+02 0.  0.
         23    2    1    2    0    0 -0.32313945177E+03 -0.25403532828E+02  0.58773958075E+03  0.67721141369E+03  0.90072411346E+02 0.  0.
        -11    1    3    3    0    0 -0.38811082540E+02  0.43340471661E+02  0.14204765038E+03  0.15349994004E+03  0.00000000000E+00 0.  1.
         12    1    3    3    0    0 -0.24112153522E+02  0.47390851649E+01 -0.45289521855E+01  0.24987322457E+02  0.00000000000E+00 0. -1.
        -13    1    4    4    0    0 -0.61453183366E+02  0.30719200015E+02  0.12603038397E+03  0.14354031029E+03  0.00000000000E+00 0. -1.
         13    1    4    4    0    0 -0.26168626841E+03 -0.56122732843E+02  0.46170919678E+03  0.53367110340E+03  0.00000000000E+00 0.  1.
         21    1    1    2  503  502  0.14508275905E+03  0.48243599198E+02 -0.25909071704E+03  0.30083957767E+03  0.00000000000E+00 0.  1.
         -2    1    1    2    0  503  0.24097992878E+03 -0.70919623196E+02  0.81643440971E+02  0.26413362240E+03  0.00000000000E+00 0.  1.
<scales pt_clust_5="13000.00000" pt_clust_6="13000.00000" pt_clust_7="13000.00000" pt_clust_8="13000.00000" pt_clust_9="151.77739" pt_clust_10="13000.00000"></scales>
<clustering>
<clus scale="   81.703">  5  6 -1 -1</clus>
<clus scale="   90.072">  7  8 -1 -1</clus>
<clus scale="  113.782">  1  5  2 -1</clus>
<clus scale="  151.777">  2  9  1 -1</clus>
<clus scale="  309.191">  7 10 -1 -1</clus>
<clus scale="  151.777">  2  5  1 -1</clus>
</clustering>
</event>
<event>
10    4  0.2866397E-005  0.3774125E+03  0.7546771E-02  0.1085586E+00
         21   -1    0    0  501  502  0.00000000000E+00  0.00000000000E+00  0.14670021851E+03  0.14670021851E+03  0.00000000000E+00 0.  1.
         -1   -1    0    0    0  501 -0.00000000000E+00 -0.00000000000E+00 -0.12474432877E+04  0.12474432877E+04  0.00000000000E+00 0.  1.
         24    2    1    2    0    0 -0.91963146687E+02  0.85553141512E+02 -0.54741056703E+03  0.56740278799E+03  0.80690981792E+02 0.  0.
         23    2    1    2    0    0  0.60558174510E+02  0.20356149135E+03 -0.17060597293E+03  0.28766379310E+03  0.92409342604E+02 0.  0.
        -13    1    3    3    0    0 -0.43747675173E+02  0.59570150984E+02 -0.44660032382E+03  0.45267461957E+03  0.00000000000E+00 0.  1.
         14    1    3    3    0    0 -0.48215471515E+02  0.25982990528E+02 -0.10081024322E+03  0.11472816842E+03  0.00000000000E+00 0. -1.
        -11    1    4    4    0    0  0.50184959157E+02  0.11263435841E+03 -0.14941355816E+03  0.19372516662E+03  0.00000000000E+00 0.  1.
         11    1    4    4    0    0  0.10373215353E+02  0.90927132933E+02 -0.21192414769E+02  0.93938626474E+02  0.00000000000E+00 0. -1.
         21    1    1    2  503  502  0.59577934850E+02 -0.23946415516E+03 -0.12791228203E+03  0.27794633263E+03  0.00000000000E+00 0.  1.
         -2    1    1    2    0  503 -0.28172962673E+02 -0.49650477703E+02 -0.25481424723E+03  0.26113059252E+03  0.00000000000E+00 0.  1.
<scales pt_clust_5="13000.00000" pt_clust_6="13000.00000" pt_clust_7="13000.00000" pt_clust_8="13000.00000" pt_clust_9="216.75958" pt_clust_10="13000.00000"></scales>
<clustering>
<clus scale="   80.691">  5  6 -1 -1</clus>
<clus scale="   92.409">  7  8 -1 -1</clus>
<clus scale="   57.087">  7 10 -1 -1</clus>
<clus scale="  149.290">  2  5  1 -1</clus>
<clus scale="  216.760">  1  9  2 -1</clus>
<clus scale="  216.760">  1  5  2 -1</clus>
</clustering>
</event>
<event>
10    4  0.2866397E-005  0.1631151E+03  0.7546771E-02  0.1200774E+00
          2   -1    0    0  503    0 -0.00000000000E+00  0.00000000000E+00  0.48354012795E+03  0.48354012795E+03  0.00000000000E+00 0. -1.
         21   -1    0    0  501  502  0.00000000000E+00 -0.00000000000E+00 -0.76712986321E+02  0.76712986321E+02  0.00000000000E+00 0. -1.
         24    2    1    2    0    0 -0.32739267837E+02 -0.56682844455E+02  0.35032973322E+03  0.36948320259E+03  0.97478769504E+02 0.  0.
         23    2    1    2    0    0  0.20445768641E+02  0.44227756545E+01 -0.51000308263E+01  0.94345883697E+02  0.91856110610E+02 0.  0.
        -13    1    3    3    0    0  0.31618372914E+02 -0.45827800376E+00  0.82637830678E+02  0.88481312059E+02  0.00000000000E+00 0.  1.
         14    1    3    3    0    0 -0.64357640750E+02 -0.56224566451E+02  0.26769190254E+03  0.28100189053E+03  0.00000000000E+00 0. -1.
        -13    1    4    4    0    0  0.55702086048E+02  0.11318166243E+02  0.49129600386E+01  0.57052260723E+02  0.00000000000E+00 0.  1.
         13    1    4    4    0    0 -0.35256317407E+02 -0.68953905889E+01 -0.10012990865E+02  0.37293622975E+02  0.00000000000E+00 0. -1.
         21    1    1    2  503  502  0.23782331117E+01  0.19949237042E+02 -0.58988510367E+01  0.20938588655E+02  0.00000000000E+00 0.  1.
          1    1    1    2  501    0  0.99152660842E+01  0.32310831758E+02  0.67496290275E+02  0.75485439333E+02  0.00000000000E+00 0. -1.
<scales pt_clust_5="13000.00000" pt_clust_6="13000.00000" pt_clust_7="13000.00000" pt_clust_8="13000.00000" pt_clust_9="20.09050" pt_clust_10="13000.00000"></scales>
<clustering>
<clus scale="   20.090">  2  9  1 -1</clus>
<clus scale="   91.856">  7  8 -1 -1</clus>
<clus scale="   35.046">  7 10 -1 -1</clus>
<clus scale="   97.479">  5  6 -1 -1</clus>
<clus scale="  115.890">  1  5  2 -1</clus>
<clus scale="   20.090">  2  5  1 -1</clus>
</clustering>
</event>
<event>
10    4  0.2866397E-005  0.1487381E+03  0.7546771E-02  0.1229122E+00
         21   -1    0    0  501  502  0.00000000000E+00  0.00000000000E+00  0.20763753435E+03  0.20763753435E+03  0.00000000000E+00 0.  1.
          4   -1    0    0  503    0 -0.00000000000E+00 -0.00000000000E+00 -0.19287448154E+03  0.19287448154E+03  0.00000000000E+00 0. -1.
         24    2    1    2    0    0  0.14134968346E+02 -0.26846677713E+02 -0.10643699154E+03  0.13677320746E+03  0.80358793394E+02 0.  0.
         23    2    1    2    0    0  0.71954654394E+02  0.24976963311E+02  0.24419724336E+02  0.11948193930E+03  0.88759731285E+02 0.  0.
        -13    1    3    3    0    0 -0.27110870752E+02  0.10449895058E+01 -0.69999647802E+02  0.75073577299E+02  0.00000000000E+00 0.  1.
         14    1    3    3    0    0  0.41245839098E+02 -0.27891667219E+02 -0.36437343738E+02  0.61699630159E+02  0.00000000000E+00 0. -1.
        -13    1    4    4    0    0 -0.15435074956E+02  0.18686109106E+02 -0.87929247269E+01  0.25782314436E+02  0.00000000000E+00 0.  1.
         13    1    4    4    0    0  0.87389729349E+02  0.62908542049E+01  0.33212649063E+02  0.93699624867E+02  0.00000000000E+00 0. -1.
         21    1    1    2  503  502 -0.61217425946E+02  0.28236541828E+02  0.79089757204E+02  0.10392336228E+03  0.00000000000E+00 0. -1.
          3    1    1    2  501    0 -0.24872196793E+02 -0.26366827427E+02  0.17690562817E+02  0.40333506848E+02  0.00000000000E+00 0. -1.
<scales pt_clust_5="13000.00000" pt_clust_6="13000.00000" pt_clust_7="13000.00000" pt_clust_8="13000.00000" pt_clust_9="67.41569" pt_clust_10="13000.00000"></scales>
<clustering>
<clus scale="   67.416">  1  9  2 -1</clus>
<clus scale="   80.359">  5  6 -1 -1</clus>
<clus scale="   83.854">  2  5  1 -1</clus>
<clus scale="   88.760">  7  8 -1 -1</clus>
<clus scale="   46.559">  7 10 -1 -1</clus>
<clus scale="   67.416">  1  5  2 -1</clus>
</clustering>
</event>
<event>
10    4  0.2866397E-005  0.1621809E+03  0.7546771E-02  0.1199521E+00
         -1   -1    0    0    0  501 -0.00000000000E+00  0.00000000000E+00  0.64407168195E+03  0.64407168195E+03  0.00000000000E+00 0.  1.
         21   -1    0    0  503  502  0.00000000000E+00 -0.00000000000E+00 -0.10402058433E+03  0.10402058433E+03  0.00000000000E+00 0. -1.
         24    2    1    2    0    0  0.15584601312E+03 -0.48783852419E+02  0.28126340313E+03  0.33512764029E+03  0.80830620988E+02 0.  0.
         23    2    1    2    0    0 -0.25422713391E+02 -0.11814179990E+02  0.88051875990E+02  0.12808750421E+03  0.88698290080E+02 0.  0.
        -13    1    3    3    0    0  0.82869266036E+02  0.70492268235E+01  0.18062137078E+03  0.19884940642E+03  0.00000000000E+00 0.  1.
         14    1    3    3    0    0  0.72976747080E+02 -0.55833079242E+02  0.10064203235E+03  0.13627823387E+03  0.00000000000E+00 0. -1.
        -11    1    4    4    0    0  0.29288778786E+02 -0.13380685559E+02  0.56169760625E+02  0.64745017704E+02  0.00000000000E+00 0.  1.
         11    1    4    4    0    0 -0.54711492177E+02  0.15665055693E+01  0.31882115365E+02  0.63342486501E+02  0.00000000000E+00 0. -1.
         21    1    1    2  503  501 -0.11712003851E+03  0.81167206750E+02  0.34709597397E+02  0.14666279359E+03  0.00000000000E+00 0. -1.
         -2    1    1    2    0  502 -0.13303261218E+02 -0.20569174341E+02  0.13602622110E+03  0.13821432819E+03  0.00000000000E+00 0.  1.
<scales pt_clust_5="13000.00000" pt_clust_6="13000.00000" pt_clust_7="13000.00000" pt_clust_8="13000.00000" pt_clust_9="142.49638" pt_clust_10="13000.00000"></scales>
<clustering>
<clus scale="   80.831">  5  6 -1 -1</clus>
<clus scale="   88.698">  7  8 -1 -1</clus>
<clus scale="   24.496">  7 10 -1 -1</clus>
<clus scale="  142.496">  2  9  1 -1</clus>
<clus scale="  121.157">  1  5  2 -1</clus>
<clus scale="  142.496">  2  5  1 -1</clus>
</clustering>
</event>
<event>
10    4  0.2866397E-005  0.4099431E+03  0.7546771E-02  0.1098426E+00
         21   -1    0    0  503  502  0.00000000000E+00  0.00000000000E+00  0.95738838227E+03  0.95738838227E+03  0.00000000000E+00 0.  1.
          2   -1    0    0  502    0 -0.00000000000E+00 -0.00000000000E+00 -0.87356144082E+02  0.87356144082E+02  0.00000000000E+00 0. -1.
         24    2    1    2    0    0 -0.13033123912E+02 -0.26507823351E+02  0.30232567998E+02  0.89175374786E+02  0.78522049660E+02 0.  0.
         23    2    1    2    0    0 -0.14933736593E+03 -0.71397669414E+02  0.55836482604E+03  0.58923967138E+03  0.89626086078E+02 0.  0.
        -13    1    3    3    0    0  0.29133431091E+02 -0.26069915579E+02  0.35090957795E+01  0.39251892421E+02  0.00000000000E+00 0.  1.
         14    1    3    3    0    0 -0.42166555003E+02 -0.43790777245E+00  0.26723472218E+02  0.49923482365E+02  0.00000000000E+00 0. -1.
        -13    1    4    4    0    0 -0.97358281908E+02 -0.33783773644E+00  0.24192683316E+03  0.26078217308E+03  0.00000000000E+00 0.  1.
         13    1    4    4    0    0 -0.51979084022E+02 -0.71059831678E+02  0.31643799288E+03  0.32845749830E+03  0.00000000000E+00 0. -1.
         21    1    1    2  503  501 -0.84888933039E+01  0.43474289670E+02  0.10855692676E+03  0.11724624309E+03  0.00000000000E+00 0.  1.
          1    1    1    2  501    0  0.17085938315E+03  0.54431203095E+02  0.17287791738E+03  0.24908323709E+03  0.00000000000E+00 0. -1.
<scales pt_clust_5="13000.00000" pt_clust_6="13000.00000" pt_clust_7="13000.00000" pt_clust_8="13000.00000" pt_clust_9="44.29532" pt_clust_10="13000.00000"></scales>
<clustering>
<clus scale="   44.295">  1  9  2 -1</clus>
<clus scale="   78.522">  5  6 -1 -1</clus>
<clus scale="   83.071">  2  5  1 -1</clus>
<clus scale="   89.626">  7  8 -1 -1</clus>
<clus scale="  166.816">  7 10 -1 -1</clus>
<clus scale="   44.295">  1  5  2 -1</clus>
</clustering>
</event>
<event>
10    4  0.2866397E-005  0.4486691E+03  0.7546771E-02  0.1065451E+00
          2   -1    0    0  503    0 -0.00000000000E+00  0.00000000000E+00  0.10096566859E+04  0.10096566859E+04  0.00000000000E+00 0. -1.
         21   -1    0    0  501  502  0.00000000000E+00 -0.00000000000E+00 -0.11157876235E+03  0.11157876235E+03  0.00000000000E+00 0. -1.
         24    2    1    2    0    0 -0.20784439419E+02 -0.14225076369E+03  0.12496162451E+03  0.20614964803E+03  0.78835252848E+02 0.  0.
         23    2    1    2    0    0  0.17092096791E+02  0.20723627398E+03  0.16062867274E+03  0.27867681057E+03  0.92844931023E+02 0.  0.
        -11    1    3    3    0    0 -0.42997642512E+02 -0.56447042743E+02  0.79419621792E+02  0.10650137192E+03  0.00000000000E+00 0.  1.
         12    1    3    3    0    0  0.22213203093E+02 -0.85803720946E+02  0.45542002715E+02  0.99648276107E+02  0.00000000000E+00 0. -1.
        -13    1    4    4    0    0 -0.14797574830E+02  0.35562331366E+02  0.74748833783E+02  0.84089451092E+02  0.00000000000E+00 0.  1.
         13    1    4    4    0    0  0.31889671621E+02  0.17167394261E+03  0.85879838957E+02  0.19458735948E+03  0.00000000000E+00 0. -1.
         21    1    1    2  503  502 -0.26646189616E+02  0.36615830910E+02  0.68041953253E+02  0.81733994743E+02  0.00000000000E+00 0.  1.
          1    1    1    2  501    0  0.30338532244E+02 -0.10160134120E+03  0.54444567303E+03  0.55467499489E+03  0.00000000000E+00 0. -1.
<scales pt_clust_5="13000.00000" pt_clust_6="13000.00000" pt_clust_7="13000.00000" pt_clust_8="13000.00000" pt_clust_9="45.28510" pt_clust_10="13000.00000"></scales>
<clustering>
<clus scale="   45.285">  2  9  1 -1</clus>
<clus scale="   78.835">  5  6 -1 -1</clus>
<clus scale="   92.845">  7  8 -1 -1</clus>
<clus scale="  103.951">  7 10 -1 -1</clus>
<clus scale="  153.564">  1  5  2 -1</clus>
<clus scale="   45.285">  2  5  1 -1</clus>
</clustering>
</event>
<event>
10    4  0.2866397E-005  0.1926541E+03  0.7546771E-02  0.1175678E+00
         21   -1    0    0  503  502  0.00000000000E+00  0.00000000000E+00  0.34080333638E+03  0.34080333638E+03  0.00000000000E+00 0. -1.
          2   -1    0    0  502    0 -0.00000000000E+00 -0.00000000000E+00 -0.72516964409E+03  0.72516964409E+03  0.00000000000E+00 0. -1.
         24    2    1    2    0    0 -0.53890121542E+01  0.92915013063E+02 -0.18359667204E+03  0.22081135148E+03  0.79922924449E+02 0.  0.
         23    2    1    2    0    0 -0.49030759653E+02 -0.14906182406E+03 -0.31169325281E+03  0.36008632588E+03  0.88803352732E+02 0.  0.
        -13    1    3    3    0    0  0.33596781775E+02  0.41829759627E+02 -0.53810275122E+02  0.75986961018E+02  0.00000000000E+00 0.  1.
         14    1    3    3    0    0 -0.38985793929E+02  0.51085253436E+02 -0.12978639692E+03  0.14482439046E+03  0.00000000000E+00 0. -1.
        -11    1    4    4    0    0 -0.27013135212E+02  0.19921042021E+01 -0.57897322671E+02  0.63920090157E+02  0.00000000000E+00 0.  1.
         11    1    4    4    0    0 -0.22017624442E+02 -0.15105392826E+03 -0.25379593014E+03  0.29616623573E+03  0.00000000000E+00 0. -1.
         21    1    1    2  503  501  0.10686407229E+03  0.77391636068E+02  0.27851562443E+03  0.30818881929E+03  0.00000000000E+00 0. -1.
          1    1    1    2  501    0 -0.52444300487E+02 -0.21244825069E+02 -0.16759200730E+03  0.17688648381E+03  0.00000000000E+00 0. -1.
<scales pt_clust_5="13000.00000" pt_clust_6="13000.00000" pt_clust_7="13000.00000" pt_clust_8="13000.00000" pt_clust_9="133.38554" pt_clust_10="13000.00000"></scales>
<clustering>
<clus scale="   79.923">  5  6 -1 -1</clus>
<clus scale="   88.803">  7  8 -1 -1</clus>
<clus scale="   56.584">  7 10 -1 -1</clus>
<clus scale="  122.678">  2  5  1 -1</clus>
<clus scale="  133.386">  1  9  2 -1</clus>
<clus scale="  133.386">  1  5  2 -1</clus>
</clustering>
</event>
<event>
10    4  0.2866397E-005  0.1868343E+03  0.7546771E-02  0.1180412E+00
          2   -1    0    0  503    0 -0.00000000000E+00  0.00000000000E+00  0.12779478941E+04  0.12779478941E+04  0.00000000000E+00 0. -1.
         21   -1    0    0  501  502  0.00000000000E+00 -0.00000000000E+00 -0.36936079514E+02  0.36936079514E+02  0.00000000000E+00 0.  1.
         24    2    1    2    0    0 -0.57819294946E+02 -0.43848046559E+02  0.34389030655E+03  0.36110872170E+03  0.82905029350E+02 0.  0.
         23    2    1    2    0    0  0.83138481567E+02  0.25835910321E+02  0.50321954942E+03  0.51989957752E+03  0.97396891157E+02 0.  0.
        -11    1    3    3    0    0 -0.89131772076E+01 -0.56142640604E+02  0.22280385332E+03  0.22994129224E+03  0.00000000000E+00 0.  1.
         12    1    3    3    0    0 -0.48906117738E+02  0.12294594045E+02  0.12108645323E+03  0.13116742946E+03  0.00000000000E+00 0. -1.
        -13    1    4    4    0    0  0.38498468728E+02  0.57877206585E+02  0.19984963395E+03  0.21159342931E+03  0.00000000000E+00 0.  1.
         13    1    4    4    0    0  0.44640012839E+02 -0.32041296264E+02  0.30336991547E+03  0.30830614821E+03  0.00000000000E+00 0. -1.
         21    1    1    2  503  502 -0.90049992447E+01 -0.42459387859E+02  0.95347142775E+01  0.44438726412E+02  0.00000000000E+00 0.  1.
          1    1    1    2  501    0 -0.16314187377E+02  0.60471524097E+02  0.38436724435E+03  0.38943694799E+03  0.00000000000E+00 0. -1.
<scales pt_clust_5="13000.00000" pt_clust_6="13000.00000" pt_clust_7="13000.00000" pt_clust_8="13000.00000" pt_clust_9="43.40380" pt_clust_10="13000.00000"></scales>
<clustering>
<clus scale="   43.404">  2  9  1 -1</clus>
<clus scale="   82.905">  5  6 -1 -1</clus>
<clus scale="   97.397">  7  8 -1 -1</clus>
<clus scale="   57.663">  7 10 -1 -1</clus>
<clus scale="  120.881">  1  5  2 -1</clus>
<clus scale="   43.404">  2  5  1 -1</clus>
</clustering>
</event>
<event>
10    4  0.2866397E-005  0.2260814E+03  0.7546771E-02  0.1163998E+00
          4   -1    0    0  503    0 -0.00000000000E+00  0.00000000000E+00  0.80070565666E+03  0.80070565666E+03  0.00000000000E+00 0. -1.
         21   -1    0    0  501  502  0.00000000000E+00 -0.00000000000E+00 -0.42996804390E+02  0.42996804390E+02  0.00000000000E+00 0.  1.
         24    2    1    2    0    0 -0.46588510348E+02 -0.27793502053E+02  0.14250679677E+03  0.17156551378E+03  0.78635681098E+02 0.  0.
         23    2    1    2    0    0  0.76949934884E+02 -0.65014925391E+01  0.17286333739E+03  0.21032934911E+03  0.91614080805E+02 0.  0.
        -13    1    3    3    0    0 -0.47684644677E+02  0.16549882240E+02  0.86134695490E+02  0.99834411439E+02  0.00000000000E+00 0.  1.
         14    1    3    3    0    0  0.10961343294E+01 -0.44343384293E+02  0.56372101278E+02  0.71731102344E+02  0.00000000000E+00 0. -1.
        -13    1    4    4    0    0 -0.13053789254E+02 -0.23818897490E+02  0.28852495055E+02  0.39625847150E+02  0.00000000000E+00 0. -1.
         13    1    4    4    0    0  0.90003724138E+02  0.17317404951E+02  0.14401084233E+03  0.17070350196E+03  0.00000000000E+00 0.  1.
         21    1    1    2  503  502 -0.47686713979E+01 -0.19857423338E+02  0.58706679774E+01  0.21249052474E+02  0.00000000000E+00 0.  1.
          3    1    1    2  501    0 -0.25592753139E+02  0.54152417930E+02  0.43646805014E+03  0.44055854569E+03  0.00000000000E+00 0. -1.
<scales pt_clust_5="13000.00000" pt_clust_6="13000.00000" pt_clust_7="13000.00000" pt_clust_8="13000.00000" pt_clust_9="20.42199" pt_clust_10="13000.00000"></scales>
<clustering>
<clus scale="   20.422">  2  9  1 -1</clus>
<clus scale="   78.636">  5  6 -1 -1</clus>
<clus scale="   91.614">  7  8 -1 -1</clus>
<clus scale="   58.978">  7 10 -1 -1</clus>
<clus scale="   99.168">  1  5  2 -1</clus>
<clus scale="   20.422">  2  5  1 -1</clus>
</clustering>
</event>
<event>
10    4  0.2866397E-005  0.2100919E+03  0.7546771E-02  0.1155915E+00
          2   -1    0    0  502    0 -0.00000000000E+00  0.00000000000E+00  0.30235091900E+03  0.30235091900E+03  0.00000000000E+00 0. -1.
         21   -1    0    0  503  502  0.00000000000E+00 -0.00000000000E+00 -0.38252261835E+03  0.38252261835E+03  0.00000000000E+00 0.  1.
         24    2    1    2    0    0  0.53893064309E+02  0.10541494558E+03  0.14992961972E+03  0.20717283341E+03  0.80155591812E+02 0.  0.
         23    2    1    2    0    0 -0.10109473294E+02 -0.51046325603E+02  0.42336487979E+02  0.11199534777E+03  0.89680827936E+02 0.  0.
        -13    1    3    3    0    0  0.33091309558E+01  0.44906650756E+02  0.93609540431E+01  0.45991141434E+02  0.00000000000E+00 0.  1.
         14    1    3    3    0    0  0.50583933354E+02  0.60508294829E+02  0.14056866568E+03  0.16118169197E+03  0.00000000000E+00 0. -1.
        -11    1    4    4    0    0 -0.68178353625E+01 -0.73727183970E+02  0.13669273765E+02  0.75292958372E+02  0.00000000000E+00 0.  1.
         11    1    4    4    0    0 -0.32916379311E+01  0.22680858367E+02  0.28667214213E+02  0.36702389395E+02  0.00000000000E+00 0. -1.
         21    1    1    2  503  501  0.47955569703E+02  0.14340435515E+02 -0.24199122077E+03  0.24711360886E+03  0.00000000000E+00 0.  1.
          1    1    1    2  501    0 -0.91739160719E+02 -0.68709055496E+02 -0.30446586284E+02  0.11859174732E+03  0.00000000000E+00 0. -1.
<scales pt_clust_5="13000.00000" pt_clust_6="13000.00000" pt_clust_7="13000.00000" pt_clust_8="13000.00000" pt_clust_9="50.05382" pt_clust_10="13000.00000"></scales>
<clustering>
<clus scale="   50.054">  2  9  1 -1</clus>
<clus scale="   80.156">  5  6 -1 -1</clus>
<clus scale="   89.681">  7  8 -1 -1</clus>
<clus scale="   89.728">  7 10 -1 -1</clus>
<clus scale="  149.161">  1  5  2 -1</clus>
<clus scale="   50.054">  2  5  1 -1</clus>
</clustering>
</event>
<event>
10    4  0.2866397E-005  0.3225892E+03  0.7546771E-02  0.1095873E+00
         21   -1    0    0  503  502  0.00000000000E+00  0.00000000000E+00  0.47199008626E+03  0.47199008626E+03  0.00000000000E+00 0. -1.
         -1   -1    0    0    0  501 -0.00000000000E+00 -0.00000000000E+00 -0.13051729625E+04  0.13051729625E+04  0.00000000000E+00 0.  1.
         24    2    1    2    0    0  0.18240708275E+01  0.12063470907E+03 -0.13938820408E+03  0.20108924072E+03  0.80322792705E+02 0.  0.
         23    2    1    2    0    0  0.53571332521E+02 -0.25923352646E+03 -0.92105024639E+03  0.96271524556E+03  0.91734283395E+02 0.  0.
        -13    1    3    3    0    0 -0.32523738352E+02  0.52749081905E+02 -0.32744883808E+02  0.70089133350E+02  0.00000000000E+00 0.  1.
         14    1    3    3    0    0  0.34347809179E+02  0.67885627167E+02 -0.10664332027E+03  0.13100010737E+03  0.00000000000E+00 0. -1.
        -11    1    4    4    0    0  0.33068654745E+02 -0.71926629709E+02 -0.15771820388E+03  0.17647098295E+03  0.00000000000E+00 0.  1.
         11    1    4    4    0    0  0.20502677776E+02 -0.18730689675E+03 -0.76333204251E+03  0.78624426261E+03  0.00000000000E+00 0. -1.
         21    1    1    2  503  501 -0.52652139529E+02  0.75294121222E+02  0.40988137313E+03  0.42005260686E+03  0.00000000000E+00 0. -1.
         -2    1    1    2    0  502 -0.27432638199E+01  0.63304696163E+02 -0.18262579888E+03  0.19330595560E+03  0.00000000000E+00 0.  1.
<scales pt_clust_5="13000.00000" pt_clust_6="13000.00000" pt_clust_7="13000.00000" pt_clust_8="13000.00000" pt_clust_9="91.87738" pt_clust_10="13000.00000"></scales>
<clustering>
<clus scale="   80.323">  5  6 -1 -1</clus>
<clus scale="   91.734">  7  8 -1 -1</clus>
<clus scale="   63.364">  7 10 -1 -1</clus>
<clus scale="   91.877">  1  9  2 -1</clus>
<clus scale="  182.217">  2  5  1 -1</clus>
<clus scale="   91.877">  1  5  2 -1</clus>
</clustering>
</event>
<event>
10    4  0.2866397E-005  0.6432541E+03  0.7546771E-02  0.1021998E+00
          2   -1    0    0  503    0 -0.00000000000E+00  0.00000000000E+00  0.17741520097E+04  0.17741520097E+04  0.00000000000E+00 0. -1.
         21   -1    0    0  501  502  0.00000000000E+00 -0.00000000000E+00 -0.13471643558E+03  0.13471643558E+03  0.00000000000E+00 0. -1.
         24    2    1    2    0    0 -0.11777758769E+03  0.11679260285E+03  0.89234372005E+02  0.20380521862E+03  0.77857059721E+02 0.  0.
         23    2    1    2    0    0  0.18538300845E+03 -0.34685069571E+03  0.11323330034E+04  0.12020887391E+04  0.90371683066E+02 0.  0.
        -11    1    3    3    0    0 -0.25913150718E+02  0.57640148545E+02  0.73958056399E+00  0.63201464254E+02  0.00000000000E+00 0.  1.
         12    1    3    3    0    0 -0.91864436969E+02  0.59152454300E+02  0.88494791441E+02  0.14060375436E+03  0.00000000000E+00 0. -1.
        -11    1    4    4    0    0  0.16555258136E+03 -0.22411330817E+03  0.81198013241E+03  0.85845568757E+03  0.00000000000E+00 0. -1.
         11    1    4    4    0    0  0.19830427091E+02 -0.12273738755E+03  0.32035287103E+03  0.34363305155E+03  0.00000000000E+00 0.  1.
         21    1    1    2  503  502  0.24306356492E+02  0.21308948547E+02  0.70480854899E+01  0.33083920009E+02  0.00000000000E+00 0.  1.
          1    1    1    2  501    0 -0.91911777252E+02  0.20874914432E+03  0.41082011320E+03  0.46989056754E+03  0.00000000000E+00 0. -1.
<scales pt_clust_5="13000.00000" pt_clust_6="13000.00000" pt_clust_7="13000.00000" pt_clust_8="13000.00000" pt_clust_9="32.32445" pt_clust_10="13000.00000"></scales>
<clustering>
<clus scale="   32.324">  2  9  1 -1</clus>
<clus scale="   77.857">  5  6 -1 -1</clus>
<clus scale="   90.372">  7  8 -1 -1</clus>
<clus scale="  182.902">  1  5  2 -1</clus>
<clus scale="  275.479">  7 10 -1 -1</clus>
<clus scale="   32.324">  2  5  1 -1</clus>
</clustering>
</event>
<event>
10    4  0.2866397E-005  0.1294497E+03  0.7546771E-02  0.1254232E+00
         21   -1    0    0  501  502  0.00000000000E+00  0.00000000000E+00  0.13779525515E+03  0.13779525515E+03  0.00000000000E+00 0. -1.
          4   -1    0    0  503    0 -0.00000000000E+00 -0.00000000000E+00 -0.52524715122E+03  0.52524715122E+03  0.00000000000E+00 0. -1.
         24    2    1    2    0    0  0.13012830941E+02  0.14545836664E+02 -0.29828830218E+03  0.30814352220E+03  0.74803769448E+02 0.  0.
         23    2    1    2    0    0 -0.59703591053E+01  0.33897461171E+01 -0.11997973467E+03  0.15165063400E+03  0.92496716134E+02 0.  0.
        -13    1    3    3    0    0 -0.30058800258E+02  0.16284024542E+02 -0.12892420134E+03  0.13337972342E+03  0.00000000000E+00 0.  1.
         14    1    3    3    0    0  0.43071631199E+02 -0.17381878782E+01 -0.16936410084E+03  0.17476379878E+03  0.00000000000E+00 0. -1.
        -13    1    4    4    0    0  0.15272508371E+02 -0.35128989662E+02 -0.21816956793E+02  0.44082593280E+02  0.00000000000E+00 0. -1.
         13    1    4    4    0    0 -0.21242867477E+02  0.38518735779E+02 -0.98162777873E+02  0.10756804072E+03  0.00000000000E+00 0.  1.
         21    1    1    2  503  502 -0.37570624817E+02  0.21546453660E+01  0.10988057652E+03  0.11614618135E+03  0.00000000000E+00 0. -1.
          3    1    1    2  501    0  0.30528152981E+02 -0.20090228147E+02 -0.79064435751E+02  0.87102068816E+02  0.00000000000E+00 0. -1.
<scales pt_clust_5="13000.00000" pt_clust_6="13000.00000" pt_clust_7="13000.00000" pt_clust_8="13000.00000" pt_clust_9="37.63236" pt_clust_10="13000.00000"></scales>
<clustering>
<clus scale="   37.632">  1  9  2 -1</clus>
<clus scale="   74.804">  5  6 -1 -1</clus>
<clus scale="   76.489">  2  5  1 -1</clus>
<clus scale="   92.497">  7  8 -1 -1</clus>
<clus scale="   30.269">  7 10 -1 -1</clus>
<clus scale="   37.632">  1  5  2 -1</clus>
</clustering>
</event>
<event>
10    4  0.2866397E-005  0.3876608E+03  0.7546771E-02  0.1097650E+00
          2   -1    0    0  503    0 -0.00000000000E+00  0.00000000000E+00  0.47188437420E+03  0.47188437420E+03  0.00000000000E+00 0. -1.
         21   -1    0    0  501  502  0.00000000000E+00 -0.00000000000E+00 -0.41579651729E+03  0.41579651729E+03  0.00000000000E+00 0. -1.
         24    2    1    2    0    0 -0.38872174275E+01 -0.59017240421E+02  0.25872122668E+03  0.27746151357E+03  0.80932522854E+02 0.  0.
         23    2    1    2    0    0  0.79983615626E+02 -0.80453266036E+02 -0.55126589806E+02  0.15627192437E+03  0.92259778108E+02 0.  0.
        -11    1    3    3    0    0  0.27427951230E+02  0.58882201026E+00  0.39199951202E+02  0.47846372844E+02  0.00000000000E+00 0.  1.
         12    1    3    3    0    0 -0.31315168658E+02 -0.59606062432E+02  0.21952127547E+03  0.22961514073E+03  0.00000000000E+00 0. -1.
        -11    1    4    4    0    0  0.43070817983E+02 -0.79238710616E+02 -0.72253336397E+02  0.11556129647E+03  0.00000000000E+00 0.  1.
         11    1    4    4    0    0  0.36912797643E+02 -0.12145554207E+01  0.17126746590E+02  0.40710627893E+02  0.00000000000E+00 0. -1.
         21    1    1    2  503  502 -0.10214681490E+03 -0.11679571745E+03 -0.11747352705E+03  0.19461562364E+03  0.00000000000E+00 0. -1.
          1    1    1    2  501    0  0.26050416702E+02  0.25626622390E+03 -0.30033252907E+02  0.25933182991E+03  0.00000000000E+00 0. -1.
<scales pt_clust_5="13000.00000" pt_clust_6="13000.00000" pt_clust_7="13000.00000" pt_clust_8="13000.00000" pt_clust_9="164.19509" pt_clust_10="13000.00000"></scales>
<clustering>
<clus scale="   80.933">  5  6 -1 -1</clus>
<clus scale="   92.260">  7  8 -1 -1</clus>
<clus scale="  100.241">  1  5  2 -1</clus>
<clus scale="  164.195">  2  9  1 -1</clus>
<clus scale="  163.453">  7 10 -1 -1</clus>
<clus scale="  164.195">  2  5  1 -1</clus>
</clustering>
</event>
<event>
10    4  0.2866397E-005  0.4547131E+03  0.7546771E-02  0.1081499E+00
          2   -1    0    0  503    0 -0.00000000000E+00  0.00000000000E+00  0.74791438542E+03  0.74791438542E+03  0.00000000000E+00 0. -1.
         21   -1    0    0  501  502  0.00000000000E+00 -0.00000000000E+00 -0.27547331631E+03  0.27547331631E+03  0.00000000000E+00 0.  1.
         24    2    1    2    0    0  0.49341085424E+01 -0.55698993605E+02  0.18219683539E+03  0.20558212347E+03  0.77081770549E+02 0.  0.
         23    2    1    2    0    0  0.79035569628E+02  0.16475335730E+02  0.66210218369E+02  0.13723906324E+03  0.89065759470E+02 0.  0.
        -11    1    3    3    0    0  0.16952812400E+02 -0.70592881406E+02  0.16318368339E+03  0.17860477955E+03  0.00000000000E+00 0.  1.
         12    1    3    3    0    0 -0.12018703858E+02  0.14893887800E+02  0.19013151992E+02  0.26977343918E+02  0.00000000000E+00 0. -1.
        -11    1    4    4    0    0  0.84429142199E+02  0.41872485229E+02  0.51360703971E+02  0.10732896619E+03  0.00000000000E+00 0.  1.
         11    1    4    4    0    0 -0.53935725711E+01 -0.25397149499E+02  0.14849514398E+02  0.29910097051E+02  0.00000000000E+00 0. -1.
         21    1    1    2  503  502  0.87493157891E+02  0.30032265370E+03  0.33306934169E+02  0.31457606531E+03  0.00000000000E+00 0.  1.
          1    1    1    2  501    0 -0.17146283606E+03 -0.26109899582E+03  0.19072708119E+03  0.36599044970E+03  0.00000000000E+00 0. -1.
<scales pt_clust_5="13000.00000" pt_clust_6="13000.00000" pt_clust_7="13000.00000" pt_clust_8="13000.00000" pt_clust_9="296.52048" pt_clust_10="13000.00000"></scales>
<clustering>
<clus scale="   77.082">  5  6 -1 -1</clus>
<clus scale="   89.066">  7  8 -1 -1</clus>
<clus scale="   95.228">  1  5  2 -1</clus>
<clus scale="  296.520">  2  9  1 -1</clus>
<clus scale="  135.112">  7 10 -1 -1</clus>
<clus scale="  296.520">  2  5  1 -1</clus>
</clustering>
</event>
<event>
10    4  0.2866397E-005  0.1424813E+03  0.7546771E-02  0.1236928E+00
          2   -1    0    0  503    0 -0.00000000000E+00  0.00000000000E+00  0.77859356297E+03  0.77859356297E+03  0.00000000000E+00 0. -1.
         21   -1    0    0  501  502  0.00000000000E+00 -0.00000000000E+00 -0.85525629309E+02  0.85525629309E+02  0.00000000000E+00 0. -1.
         24    2    1    2    0    0 -0.97784342273E+01  0.10913172490E+02  0.68025995992E+03  0.68511490710E+03  0.80088124920E+02 0.  0.
         23    2    1    2    0    0 -0.15029762722E+02 -0.58397213964E+01  0.49211963225E+02  0.11024243918E+03  0.97322052784E+02 0.  0.
        -11    1    3    3    0    0  0.12412810014E+01 -0.32066508575E+02  0.17559698501E+03  0.17850519011E+03  0.00000000000E+00 0.  1.
         12    1    3    3    0    0 -0.11019715229E+02  0.42979681065E+02  0.50466297491E+03  0.50660971699E+03  0.00000000000E+00 0. -1.
        -13    1    4    4    0    0 -0.40402240282E+02  0.46825023779E+00 -0.13256008405E+02  0.42523899596E+02  0.00000000000E+00 0. -1.
         13    1    4    4    0    0  0.25372477559E+02 -0.63079716342E+01  0.62467971629E+02  0.67718539582E+02  0.00000000000E+00 0.  1.
         21    1    1    2  503  502  0.41037603690E+01 -0.27503631721E+02 -0.17596183114E+02  0.32907693131E+02  0.00000000000E+00 0. -1.
          1    1    1    2  501    0  0.20704436581E+02  0.22430180628E+02 -0.18807806372E+02  0.35854152865E+02  0.00000000000E+00 0. -1.
<scales pt_clust_5="13000.00000" pt_clust_6="13000.00000" pt_clust_7="13000.00000" pt_clust_8="13000.00000" pt_clust_9="27.80810" pt_clust_10="13000.00000"></scales>
<clustering>
<clus scale="   27.808">  2  9  1 -1</clus>
<clus scale="   80.088">  5  6 -1 -1</clus>
<clus scale="   81.257">  1  5  2 -1</clus>
<clus scale="   97.322">  7  8 -1 -1</clus>
<clus scale="   24.191">  7 10 -1 -1</clus>
<clus scale="   27.808">  2  5  1 -1</clus>
</clustering>
</event>
<event>
10    4  0.2866397E-005  0.4257113E+03  0.7546771E-02  0.1057730E+00
          2   -1    0    0  503    0 -0.00000000000E+00  0.00000000000E+00  0.11550452350E+04  0.11550452350E+04  0.00000000000E+00 0. -1.
         21   -1    0    0  501  502  0.00000000000E+00 -0.00000000000E+00 -0.11939452313E+03  0.11939452313E+03  0.00000000000E+00 0.  1.
         24    2    1    2    0    0  0.12953981039E+03 -0.14595311331E+03  0.31392285374E+03  0.37851116807E+03  0.81487867152E+02 0.  0.
         23    2    1    2    0    0  0.78019330604E+02  0.75880076496E+02  0.29719305763E+03  0.32936104872E+03  0.91160215852E+02 0.  0.
        -11    1    3    3    0    0  0.77818417106E+02 -0.13614474436E+03  0.21083191755E+03  0.26275691221E+03  0.00000000000E+00 0.  1.
         12    1    3    3    0    0  0.51721393285E+02 -0.98083689503E+01  0.10309093619E+03  0.11575425586E+03  0.00000000000E+00 0. -1.
        -13    1    4    4    0    0  0.57297123592E+02  0.86533150351E+02  0.16353287573E+03  0.19368517735E+03  0.00000000000E+00 0. -1.
         13    1    4    4    0    0  0.20722207012E+02 -0.10653073855E+02  0.13366018190E+03  0.13567587137E+03  0.00000000000E+00 0.  1.
         21    1    1    2  503  502  0.79620582294E+02  0.24585810701E+02  0.77178281846E+02  0.11357986794E+03  0.00000000000E+00 0.  1.
          1    1    1    2  501    0 -0.28717972329E+03  0.45487226111E+02  0.34735651870E+03  0.45298767344E+03  0.00000000000E+00 0. -1.
<scales pt_clust_5="13000.00000" pt_clust_6="13000.00000" pt_clust_7="13000.00000" pt_clust_8="13000.00000" pt_clust_9="83.33006" pt_clust_10="13000.00000"></scales>
<clustering>
<clus scale="   81.488">  5  6 -1 -1</clus>
<clus scale="   83.330">  2  9  1 -1</clus>
<clus scale="   91.160">  7  8 -1 -1</clus>
<clus scale="  222.987">  1  5  2 -1</clus>
<clus scale="  173.932">  7 10 -1 -1</clus>
<clus scale="   83.330">  2  5  1 -1</clus>
</clustering>
</event>
<event>
10    4  0.3366426E-005  0.2894412E+03  0.7546771E-02  0.1127081E+00
         -1   -1    0    0    0  501 -0.00000000000E+00  0.00000000000E+00  0.31354002681E+03  0.31354002681E+03  0.00000000000E+00 0.  1.
         21   -1    0    0  503  502  0.00000000000E+00 -0.00000000000E+00 -0.43883398087E+03  0.43883398087E+03  0.00000000000E+00 0. -1.
         24    2    1    2    0    0  0.32332313917E+02  0.18103298127E+02 -0.24048976236E+03  0.25596500024E+03  0.79433290383E+02 0.  0.
         23    2    1    2    0    0 -0.56613219378E+01 -0.16797139194E+02  0.26537795628E+03  0.28103204145E+03  0.90770888444E+02 0.  0.
        -13    1    3    3    0    0  0.19637010725E+02  0.38520760573E+02 -0.60418210954E+02  0.74295500538E+02  0.00000000000E+00 0.  1.
         14    1    3    3    0    0  0.12695303193E+02 -0.20417462445E+02 -0.18007155141E+03  0.18166949970E+03  0.00000000000E+00 0. -1.
        -11    1    4    4    0    0 -0.41676486536E+02  0.22035286974E+01  0.19762789793E+03  0.20198656170E+03  0.00000000000E+00 0.  1.
         11    1    4    4    0    0  0.36015164598E+02 -0.19000667891E+02  0.67750058355E+02  0.79045479747E+02  0.00000000000E+00 0. -1.
         21    1    1    2  503  501  0.38936577764E+02  0.45131134654E+02 -0.11092076756E+03  0.12592177365E+03  0.00000000000E+00 0. -1.
         -2    1    1    2    0  502 -0.65607569743E+02 -0.46437293588E+02 -0.39261380424E+02  0.89455192338E+02  0.00000000000E+00 0.  1.
<scales pt_clust_5="13000.00000" pt_clust_6="13000.00000" pt_clust_7="13000.00000" pt_clust_8="13000.00000" pt_clust_9="59.60601" pt_clust_10="13000.00000"></scales>
<clustering>
<clus scale="   59.606">  2  9  1 -1</clus>
<clus scale="   79.433">  5  6 -1 -1</clus>
<clus scale="   90.771">  7  8 -1 -1</clus>
<clus scale="   68.819">  7 10 -1 -1</clus>
<clus scale="  114.156">  1  5  2 -1</clus>
<clus scale="   59.606">  2  5  1 -1</clus>
</clustering>
</event>
<event>
10    4  0.2866397E-005  0.2928969E+03  0.7546771E-02  0.1106861E+00
         21   -1    0    0  503  502  0.00000000000E+00  0.00000000000E+00  0.10446810374E+03  0.10446810374E+03  0.00000000000E+00 0.  1.
          2   -1    0    0  502    0 -0.00000000000E+00 -0.00000000000E+00 -0.11562723362E+04  0.11562723362E+04  0.00000000000E+00 0. -1.
         24    2    1    2    0    0 -0.10302314961E+03 -0.10897702127E+03 -0.20944141750E+03  0.26983687276E+03  0.80352162489E+02 0.  0.
         23    2    1    2    0    0  0.33304774987E+02  0.17408363951E+03 -0.40990122657E+03  0.45576897134E+03  0.91060518972E+02 0.  0.
        -13    1    3    3    0    0 -0.88738311222E+02 -0.57166503849E+02 -0.17970783709E+03  0.20841641910E+03  0.00000000000E+00 0.  1.
         14    1    3    3    0    0 -0.14284838388E+02 -0.51810517426E+02 -0.29733580412E+02  0.61420453660E+02  0.00000000000E+00 0. -1.
        -11    1    4    4    0    0  0.46404481093E+02  0.79372471469E+02 -0.12444248373E+03  0.15472329123E+03  0.00000000000E+00 0.  1.
         11    1    4    4    0    0 -0.13099706105E+02  0.94711168043E+02 -0.28545874284E+03  0.30104568011E+03  0.00000000000E+00 0. -1.
         21    1    1    2  503  501  0.11180422227E+02 -0.44039804031E+02  0.38821443053E+02  0.59762953583E+02  0.00000000000E+00 0.  1.
          1    1    1    2  501    0  0.58537952395E+02 -0.21066814207E+02 -0.47128303143E+03  0.47537164224E+03  0.00000000000E+00 0. -1.
<scales pt_clust_5="13000.00000" pt_clust_6="13000.00000" pt_clust_7="13000.00000" pt_clust_8="13000.00000" pt_clust_9="45.43684" pt_clust_10="13000.00000"></scales>
<clustering>
<clus scale="   45.437">  1  9  2 -1</clus>
<clus scale="   80.352">  5  6 -1 -1</clus>
<clus scale="   91.061">  7  8 -1 -1</clus>
<clus scale="   63.171">  7 10 -1 -1</clus>
<clus scale="  183.186">  2  5  1 -1</clus>
<clus scale="   45.437">  1  5  2 -1</clus>
</clustering>
</event>
<event>
10    4  0.2866397E-005  0.4748727E+03  0.7546771E-02  0.1077248E+00
          2   -1    0    0  503    0 -0.00000000000E+00  0.00000000000E+00  0.13058073526E+04  0.13058073526E+04  0.00000000000E+00 0. -1.
         21   -1    0    0  501  502  0.00000000000E+00 -0.00000000000E+00 -0.18835595267E+03  0.18835595267E+03  0.00000000000E+00 0.  1.
         24    2    1    2    0    0  0.47955002440E+02 -0.13078286838E+02  0.24761284452E+03  0.26506178415E+03  0.80466793144E+02 0.  0.
         23    2    1    2    0    0 -0.23716528344E+03  0.41490430278E+02  0.56705601149E+03  0.62261161484E+03  0.90132542908E+02 0.  0.
        -11    1    3    3    0    0  0.58052274472E+02  0.81388946831E+01  0.10266616923E+03  0.11822288477E+03  0.00000000000E+00 0.  1.
         12    1    3    3    0    0 -0.10097272032E+02 -0.21217181521E+02  0.14494667529E+03  0.14683889938E+03  0.00000000000E+00 0. -1.
        -11    1    4    4    0    0 -0.20733295172E+03  0.21202821104E+02  0.53569501137E+03  0.57480923592E+03  0.00000000000E+00 0.  1.
         11    1    4    4    0    0 -0.29832331720E+02  0.20287609174E+02  0.31361000123E+02  0.47802378922E+02  0.00000000000E+00 0. -1.
         21    1    1    2  503  502 -0.28669566937E+02 -0.46670235989E+02 -0.11922543223E+03  0.13120502538E+03  0.00000000000E+00 0.  1.
          1    1    1    2  501    0  0.21787984794E+03  0.18258092549E+02  0.42200797610E+03  0.47528488086E+03  0.00000000000E+00 0. -1.
<scales pt_clust_5="13000.00000" pt_clust_6="13000.00000" pt_clust_7="13000.00000" pt_clust_8="13000.00000" pt_clust_9="54.77276" pt_clust_10="13000.00000"></scales>
<clustering>
<clus scale="   54.773">  2  9  1 -1</clus>
<clus scale="   80.467">  5  6 -1 -1</clus>
<clus scale="   90.133">  7  8 -1 -1</clus>
<clus scale="   93.764">  1  5  2 -1</clus>
<clus scale="  222.967">  7 10 -1 -1</clus>
<clus scale="   54.773">  2  5  1 -1</clus>
</clustering>
</event>
<event>
10    4  0.2866397E-005  0.4761203E+03  0.7546771E-02  0.1062678E+00
          2   -1    0    0  502    0 -0.00000000000E+00  0.00000000000E+00  0.31179695264E+04  0.31179695264E+04  0.00000000000E+00 0. -1.
         21   -1    0    0  503  502  0.00000000000E+00 -0.00000000000E+00 -0.66492789747E+02  0.66492789747E+02  0.00000000000E+00 0.  1.
         24    2    1    2    0    0 -0.97467371923E+02  0.58277674248E+02  0.10559517802E+04  0.10650867700E+04  0.80495277199E+02 0.  0.
         23    2    1    2    0    0 -0.92648148871E+02 -0.18539787308E+03  0.58426987875E+03  0.62646748471E+03  0.90189618835E+02 0.  0.
        -11    1    3    3    0    0 -0.30184478513E+02  0.42834614747E+02  0.21449699276E+03  0.22080504267E+03  0.00000000000E+00 0.  1.
         12    1    3    3    0    0 -0.67282893410E+02  0.15443059501E+02  0.84145478744E+03  0.84428172735E+03  0.00000000000E+00 0. -1.
        -11    1    4    4    0    0 -0.50197714675E+01 -0.75357088119E+02  0.12407350734E+03  0.14525193307E+03  0.00000000000E+00 0. -1.
         11    1    4    4    0    0 -0.87628377403E+02 -0.11004078496E+03  0.46019637141E+03  0.48121555164E+03  0.00000000000E+00 0.  1.
         21    1    1    2  503  501  0.21702402411E+02  0.27965818210E+02 -0.25051367329E+02  0.43366487794E+02  0.00000000000E+00 0.  1.
          1    1    1    2  501    0  0.16841311838E+03  0.99154380625E+02  0.14363064450E+04  0.14495415736E+04  0.00000000000E+00 0. -1.
<scales pt_clust_5="13000.00000" pt_clust_6="13000.00000" pt_clust_7="13000.00000" pt_clust_8="13000.00000" pt_clust_9="35.39889" pt_clust_10="13000.00000"></scales>
<clustering>
<clus scale="   35.399">  2  9  1 -1</clus>
<clus scale="   80.495">  5  6 -1 -1</clus>
<clus scale="   90.190">  7  8 -1 -1</clus>
<clus scale="  138.793">  1  5  2 -1</clus>
<clus scale="  182.723">  7 10 -1 -1</clus>
<clus scale="   35.399">  2  5  1 -1</clus>
</clustering>
</event>
<event>
10    4  0.2866397E-005  0.2201724E+03  0.7546771E-02  0.1145943E+00
         21   -1    0    0  503  502  0.00000000000E+00  0.00000000000E+00  0.17330243560E+03  0.17330243560E+03  0.00000000000E+00 0. -1.
          2   -1    0    0  502    0 -0.00000000000E+00 -0.00000000000E+00 -0.67187426586E+03  0.67187426586E+03  0.00000000000E+00 0. -1.
         24    2    1    2    0    0 -0.42210415756E+01  0.14266859527E+03 -0.20580765268E+03  0.26326949875E+03  0.81128871547E+02 0.  0.
         23    2    1    2    0    0 -0.79162871519E+02 -0.65409226141E+02 -0.26059505477E+03  0.29462267154E+03  0.91365250066E+02 0.  0.
        -13    1    3    3    0    0 -0.34678606744E+02  0.26957841781E+02 -0.65592690907E+02  0.78941320610E+02  0.00000000000E+00 0.  1.
         14    1    3    3    0    0  0.30457565168E+02  0.11571075349E+03 -0.14021496178E+03  0.18432817814E+03  0.00000000000E+00 0. -1.
        -11    1    4    4    0    0  0.77025933752E+00 -0.24938166060E+02 -0.73713943815E+01  0.26016204200E+02  0.00000000000E+00 0.  1.
         11    1    4    4    0    0 -0.79933130856E+02 -0.40471060082E+02 -0.25322366039E+03  0.26860646734E+03  0.00000000000E+00 0. -1.
         21    1    1    2  503  501  0.44052496689E+02 -0.23506844258E+01  0.11185936206E+03  0.12024418930E+03  0.00000000000E+00 0. -1.
          1    1    1    2  501    0  0.39331416406E+02 -0.74908684706E+02 -0.14402848486E+03  0.16704034187E+03  0.00000000000E+00 0. -1.
<scales pt_clust_5="13000.00000" pt_clust_6="13000.00000" pt_clust_7="13000.00000" pt_clust_8="13000.00000" pt_clust_9="44.11517" pt_clust_10="13000.00000"></scales>
<clustering>
<clus scale="   44.115">  1  9  2 -1</clus>
<clus scale="   81.129">  5  6 -1 -1</clus>
<clus scale="   91.365">  7  8 -1 -1</clus>
<clus scale="   89.466">  7 10 -1 -1</clus>
<clus scale="  164.076">  2  5  1 -1</clus>
<clus scale="   44.115">  1  5  2 -1</clus>
</clustering>
</event>
<event>
10    4  0.2866397E-005  0.3992348E+03  0.7546771E-02  0.1090581E+00
          2   -1    0    0  502    0 -0.00000000000E+00  0.00000000000E+00  0.27697162592E+04  0.27697162592E+04  0.00000000000E+00 0. -1.
         21   -1    0    0  503  502  0.00000000000E+00 -0.00000000000E+00 -0.29229039910E+02  0.29229039910E+02  0.00000000000E+00 0. -1.
         24    2    1    2    0    0 -0.62913614010E+02  0.28951640926E+02  0.51733520033E+03  0.52819503174E+03  0.80981242995E+02 0.  0.
         23    2    1    2    0    0 -0.86460541545E+02  0.11070679952E+03  0.67798220074E+03  0.69860928387E+03  0.93078710159E+02 0.  0.
        -13    1    3    3    0    0 -0.33762356261E+02 -0.25930832555E+02  0.16392335927E+03  0.16936107136E+03  0.00000000000E+00 0.  1.
         14    1    3    3    0    0 -0.29151257750E+02  0.54882473481E+02  0.35341184106E+03  0.35883396038E+03  0.00000000000E+00 0. -1.
        -13    1    4    4    0    0 -0.16011097923E+02  0.80708026203E+02  0.23333643908E+03  0.24741874333E+03  0.00000000000E+00 0.  1.
         13    1    4    4    0    0 -0.70449443621E+02  0.29998773317E+02  0.44464576166E+03  0.45119054054E+03  0.00000000000E+00 0. -1.
         21    1    1    2  503  501 -0.32308209246E+02 -0.96724104053E+01  0.49602988694E+02  0.59981933906E+02  0.00000000000E+00 0.  1.
          1    1    1    2  501    0  0.18168236480E+03 -0.12998603004E+03  0.14955668295E+04  0.15121590496E+04  0.00000000000E+00 0. -1.
<scales pt_clust_5="13000.00000" pt_clust_6="13000.00000" pt_clust_7="13000.00000" pt_clust_8="13000.00000" pt_clust_9="33.72500" pt_clust_10="13000.00000"></scales>
<clustering>
<clus scale="   33.725">  2  9  1 -1</clus>
<clus scale="   80.981">  5  6 -1 -1</clus>
<clus scale="   93.079">  7  8 -1 -1</clus>
<clus scale="  110.472">  1  5  2 -1</clus>
<clus scale="  170.335">  7 10 -1 -1</clus>
<clus scale="   33.725">  2  5  1 -1</clus>
</clustering>
</event>
<event>
10    4  0.2866397E-005  0.4749619E+03  0.7546771E-02  0.1045195E+00
         21   -1    0    0  503  502  0.00000000000E+00  0.00000000000E+00  0.40165010014E+02  0.40165010014E+02  0.00000000000E+00 0. -1.
          2   -1    0    0  502    0 -0.00000000000E+00 -0.00000000000E+00 -0.36180714848E+04  0.36180714848E+04  0.00000000000E+00 0. -1.
         24    2    1    2    0    0  0.19768326260E+03  0.74027201003E+02 -0.13579928750E+04  0.13766363109E+04  0.80151014548E+02 0.  0.
         23    2    1    2    0    0  0.10049024685E+03 -0.17631904144E+02 -0.30651506552E+03  0.33502477859E+03  0.88774676122E+02 0.  0.
        -11    1    3    3    0    0  0.42251247181E+02 -0.16751829753E+02 -0.24454267377E+03  0.24873059921E+03  0.00000000000E+00 0.  1.
         12    1    3    3    0    0  0.15543201542E+03  0.90779030756E+02 -0.11134502013E+04  0.11279057117E+04  0.00000000000E+00 0. -1.
        -11    1    4    4    0    0  0.48857841591E+02 -0.27846289441E+02 -0.57199219809E+02  0.80213809705E+02  0.00000000000E+00 0. -1.
         11    1    4    4    0    0  0.51632405256E+02  0.10214385297E+02 -0.24931584571E+03  0.25481096888E+03  0.00000000000E+00 0.  1.
         21    1    1    2  503  501 -0.86595226271E+00  0.44033018277E+02 -0.23235792628E+03  0.23649495233E+03  0.00000000000E+00 0.  1.
          1    1    1    2  501    0 -0.29730755718E+03 -0.10042831514E+03 -0.16810406080E+04  0.17100804530E+04  0.00000000000E+00 0. -1.
<scales pt_clust_5="13000.00000" pt_clust_6="13000.00000" pt_clust_7="13000.00000" pt_clust_8="13000.00000" pt_clust_9="44.04155" pt_clust_10="13000.00000"></scales>
<clustering>
<clus scale="   44.042">  1  9  2 -1</clus>
<clus scale="   80.151">  5  6 -1 -1</clus>
<clus scale="   88.775">  7  8 -1 -1</clus>
<clus scale="  229.370">  2  5  1 -1</clus>
<clus scale="  142.713">  7 10 -1 -1</clus>
<clus scale="   44.042">  1  5  2 -1</clus>
</clustering>
</event>
<event>
10    4  0.2866397E-005  0.2134517E+03  0.7546771E-02  0.1176356E+00
         -1   -1    0    0    0  501 -0.00000000000E+00  0.00000000000E+00  0.32298084115E+03  0.32298084115E+03  0.00000000000E+00 0.  1.
         21   -1    0    0  503  502  0.00000000000E+00 -0.00000000000E+00 -0.21198126938E+03  0.21198126938E+03  0.00000000000E+00 0.  1.
         24    2    1    2    0    0  0.19958500429E+01 -0.38482122386E+02 -0.27545177429E+02  0.92997566493E+02  0.80030952845E+02 0.  0.
         23    2    1    2    0    0 -0.69298426986E+02  0.25258665021E+02  0.90063549505E+02  0.14786362074E+03  0.91169815442E+02 0.  0.
        -11    1    3    3    0    0 -0.30342921729E+02  0.70833109387E+01 -0.18941014688E+02  0.36464067660E+02  0.00000000000E+00 0.  1.
         12    1    3    3    0    0  0.32338771772E+02 -0.45565433325E+02 -0.86041627409E+01  0.56533498833E+02  0.00000000000E+00 0. -1.
        -13    1    4    4    0    0 -0.72431498100E+02  0.50557184850E+02  0.83476195199E+02  0.12153446434E+03  0.00000000000E+00 0.  1.
         13    1    4    4    0    0  0.31330711135E+01 -0.25298519829E+02  0.65873543056E+01  0.26329156403E+02  0.00000000000E+00 0. -1.
         21    1    1    2  503  501  0.98273068993E+02  0.88155511485E+02 -0.70851291241E+02  0.14982955571E+03  0.00000000000E+00 0.  1.
         -2    1    1    2    0  502 -0.30970492050E+02 -0.74932054120E+02  0.11933249093E+03  0.14427136759E+03  0.00000000000E+00 0.  1.
<scales pt_clust_5="13000.00000" pt_clust_6="13000.00000" pt_clust_7="13000.00000" pt_clust_8="13000.00000" pt_clust_9="128.78963" pt_clust_10="13000.00000"></scales>
<clustering>
<clus scale="   80.031">  5  6 -1 -1</clus>
<clus scale="   88.825">  1  5  2 -1</clus>
<clus scale="   91.170">  7  8 -1 -1</clus>
<clus scale="   97.174">  7 10 -1 -1</clus>
<clus scale="  128.790">  2  9  1 -1</clus>
<clus scale="  128.790">  2  5  1 -1</clus>
</clustering>
</event>
<event>
10    4  0.2866397E-005  0.2912601E+03  0.7546771E-02  0.1126940E+00
          2   -1    0    0  503    0 -0.00000000000E+00  0.00000000000E+00  0.84116019423E+03  0.84116019423E+03  0.00000000000E+00 0. -1.
         21   -1    0    0  501  502  0.00000000000E+00 -0.00000000000E+00 -0.57063445481E+02  0.57063445481E+02  0.00000000000E+00 0. -1.
         24    2    1    2    0    0  0.29919162579E+02  0.64251536098E+02  0.21485434101E+03  0.24263873496E+03  0.87679824764E+02 0.  0.
         23    2    1    2    0    0  0.81558584094E+02  0.17922260845E+02  0.33279878694E+03  0.35547530717E+03  0.92922824694E+02 0.  0.
        -11    1    3    3    0    0  0.95228908962E+01  0.76134883498E+02  0.20127992747E+03  0.21540848437E+03  0.00000000000E+00 0.  1.
         12    1    3    3    0    0  0.20396271683E+02 -0.11883347400E+02  0.13574413534E+02  0.27230250582E+02  0.00000000000E+00 0. -1.
        -11    1    4    4    0    0  0.14150654100E+02  0.35088185060E+02  0.42241255623E+02  0.56707542874E+02  0.00000000000E+00 0.  1.
         11    1    4    4    0    0  0.67407929994E+02 -0.17165924215E+02  0.29055753131E+03  0.29876776430E+03  0.00000000000E+00 0. -1.
         21    1    1    2  503  502  0.26939791689E+02 -0.16751938346E+02  0.40082615187E+02  0.51117471131E+02  0.00000000000E+00 0.  1.
          1    1    1    2  501    0 -0.13841753836E+03 -0.65421858597E+02  0.19636100562E+03  0.24899212646E+03  0.00000000000E+00 0. -1.
<scales pt_clust_5="13000.00000" pt_clust_6="13000.00000" pt_clust_7="13000.00000" pt_clust_8="13000.00000" pt_clust_9="31.72349" pt_clust_10="13000.00000"></scales>
<clustering>
<clus scale="   31.723">  2  9  1 -1</clus>
<clus scale="   87.680">  5  6 -1 -1</clus>
<clus scale="   92.923">  7  8 -1 -1</clus>
<clus scale="  112.421">  1  5  2 -1</clus>
<clus scale="  122.691">  7 10 -1 -1</clus>
<clus scale="   31.723">  2  5  1 -1</clus>
</clustering>
</event>
<event>
10    4  0.2866397E-005  0.1697766E+03  0.7546771E-02  0.1210005E+00
         21   -1    0    0  501  502  0.00000000000E+00  0.00000000000E+00  0.72880903313E+02  0.72880903313E+02  0.00000000000E+00 0. -1.
          2   -1    0    0  503    0 -0.00000000000E+00 -0.00000000000E+00 -0.49456502373E+03  0.49456502373E+03  0.00000000000E+00 0. -1.
         24    2    1    2    0    0  0.37120725476E+02  0.25871062262E+02 -0.33328602897E+03  0.34391056421E+03  0.71747048352E+02 0.  0.
         23    2    1    2    0    0 -0.49983659444E+02 -0.40940700240E+02 -0.94924581938E+02  0.14712931475E+03  0.91988324552E+02 0.  0.
        -11    1    3    3    0    0 -0.16922539005E+02  0.12527119753E+02 -0.38183684998E+02  0.43603839919E+02  0.00000000000E+00 0.  1.
         12    1    3    3    0    0  0.54043264481E+02  0.13343942509E+02 -0.29510234397E+03  0.30030672429E+03  0.00000000000E+00 0. -1.
        -13    1    4    4    0    0 -0.40820602824E+02 -0.66918710972E+02 -0.45738763318E+02  0.90754999658E+02  0.00000000000E+00 0.  1.
         13    1    4    4    0    0 -0.91630566198E+01  0.25978010732E+02 -0.49185818621E+02  0.56374315088E+02  0.00000000000E+00 0. -1.
         21    1    1    2  503  502 -0.28164472672E+02  0.18293841907E+02 -0.42828732227E+01  0.33856242787E+02  0.00000000000E+00 0.  1.
          1    1    1    2  501    0  0.41027406639E+02 -0.32242039290E+01  0.10809363719E+02  0.42549805294E+02  0.00000000000E+00 0. -1.
<scales pt_clust_5="13000.00000" pt_clust_6="13000.00000" pt_clust_7="13000.00000" pt_clust_8="13000.00000" pt_clust_9="33.58425" pt_clust_10="13000.00000"></scales>
<clustering>
<clus scale="   33.584">  1  9  2 -1</clus>
<clus scale="   71.747">  5  6 -1 -1</clus>
<clus scale="   84.260">  2  5  1 -1</clus>
<clus scale="   91.988">  7  8 -1 -1</clus>
<clus scale="   33.702">  7 10 -1 -1</clus>
<clus scale="   33.584">  1  5  2 -1</clus>
</clustering>
</event>
<event>
10    4  0.2866397E-005  0.7274240E+03  0.7546771E-02  0.1013997E+00
         21   -1    0    0  503  502  0.00000000000E+00  0.00000000000E+00  0.31159662274E+03  0.31159662274E+03  0.00000000000E+00 0.  1.
          2   -1    0    0  502    0 -0.00000000000E+00 -0.00000000000E+00 -0.11974331352E+04  0.11974331352E+04  0.00000000000E+00 0. -1.
         24    2    1    2    0    0 -0.12956510873E+03 -0.48940075827E+02 -0.36636410060E+03  0.39978742170E+03  0.80156596252E+02 0.  0.
         23    2    1    2    0    0  0.30626427689E+03 -0.18478800188E+03 -0.13094581144E+03  0.39106018353E+03  0.88525977397E+02 0.  0.
        -11    1    3    3    0    0 -0.12448980435E+03 -0.20234234939E+02 -0.25244687697E+03  0.28219950627E+03  0.00000000000E+00 0.  1.
         12    1    3    3    0    0 -0.50753043852E+01 -0.28705840888E+02 -0.11391722363E+03  0.11758791543E+03  0.00000000000E+00 0. -1.
        -11    1    4    4    0    0  0.58664776720E+02 -0.75501293995E+02 -0.53443256964E+02  0.10953621838E+03  0.00000000000E+00 0.  1.
         11    1    4    4    0    0  0.24759950017E+03 -0.10928670789E+03 -0.77502554476E+02  0.28152396515E+03  0.00000000000E+00 0. -1.
         21    1    1    2  503  501 -0.20258278919E+02  0.89461017658E+01  0.12994899909E+03  0.13182250554E+03  0.00000000000E+00 0.  1.
          1    1    1    2  501    0 -0.15644088924E+03  0.22478197594E+03 -0.51847559946E+03  0.58635964712E+03  0.00000000000E+00 0. -1.
<scales pt_clust_5="13000.00000" pt_clust_6="13000.00000" pt_clust_7="13000.00000" pt_clust_8="13000.00000" pt_clust_9="22.14567" pt_clust_10="13000.00000"></scales>
<clustering>
<clus scale="   22.146">  1  9  2 -1</clus>
<clus scale="   80.157">  5  6 -1 -1</clus>
<clus scale="   88.526">  7  8 -1 -1</clus>
<clus scale="  161.295">  2  5  1 -1</clus>
<clus scale="  317.639">  7 10 -1 -1</clus>
<clus scale="   22.146">  1  5  2 -1</clus>
</clustering>
</event>
<event>
10    4  0.2866397E-005  0.2788745E+03  0.7546771E-02  0.1133123E+00
         21   -1    0    0  501  502  0.00000000000E+00  0.00000000000E+00  0.23369201719E+03  0.23369201719E+03  0.00000000000E+00 0. -1.
          2   -1    0    0  503    0 -0.00000000000E+00 -0.00000000000E+00 -0.19872465028E+03  0.19872465028E+03  0.00000000000E+00 0. -1.
         24    2    1    2    0    0 -0.68785531655E+02 -0.67762383196E+01  0.28133381615E+02  0.11220189289E+03  0.83787891938E+02 0.  0.
         23    2    1    2    0    0 -0.90959042187E+00  0.53374093116E+02 -0.11953996522E+03  0.15999222716E+03  0.91967865572E+02 0.  0.
        -13    1    3    3    0    0 -0.19511412039E+02 -0.42839193735E+02  0.70220716331E+01  0.47594129991E+02  0.00000000000E+00 0.  1.
         14    1    3    3    0    0 -0.49274119616E+02  0.36062955415E+02  0.21111309982E+02  0.64607762895E+02  0.00000000000E+00 0. -1.
        -11    1    4    4    0    0  0.22033166803E+02  0.32890602608E+02 -0.12283793670E+03  0.12905971824E+03  0.00000000000E+00 0. -1.
         11    1    4    4    0    0 -0.22942757225E+02  0.20483490508E+02  0.32979714826E+01  0.30932508925E+02  0.00000000000E+00 0.  1.
         21    1    1    2  503  502 -0.32850785305E+01 -0.20174806748E+02  0.32802142674E+02  0.38649645953E+02  0.00000000000E+00 0.  1.
          1    1    1    2  501    0  0.72980200607E+02 -0.26423048049E+02  0.93571807836E+02  0.12157290146E+03  0.00000000000E+00 0. -1.
<scales pt_clust_5="13000.00000" pt_clust_6="13000.00000" pt_clust_7="13000.00000" pt_clust_8="13000.00000" pt_clust_9="20.44051" pt_clust_10="13000.00000"></scales>
<clustering>
<clus scale="   20.441">  1  9  2 -1</clus>
<clus scale="   83.788">  5  6 -1 -1</clus>
<clus scale="   91.968">  7  8 -1 -1</clus>
<clus scale="   80.414">  7 10 -1 -1</clus>
<clus scale="  110.034">  2  5  1 -1</clus>
<clus scale="   20.441">  1  5  2 -1</clus>
</clustering>
</event>
<event>
10    4  0.2866397E-005  0.4291361E+03  0.7546771E-02  0.1059869E+00
          2   -1    0    0  503    0 -0.00000000000E+00  0.00000000000E+00  0.71357720175E+03  0.71357720175E+03  0.00000000000E+00 0. -1.
         21   -1    0    0  501  502  0.00000000000E+00 -0.00000000000E+00 -0.29525757533E+03  0.29525757533E+03  0.00000000000E+00 0. -1.
         24    2    1    2    0    0  0.17029790868E+03 -0.44070189687E+02  0.16325997282E+03  0.26079678311E+03  0.10206656669E+03 0.  0.
         23    2    1    2    0    0  0.45135024258E+02  0.16199709450E+03  0.10730961541E+03  0.21965179361E+03  0.91931103734E+02 0.  0.
        -11    1    3    3    0    0  0.88938869790E+02  0.22631844498E+02  0.10877818487E+03  0.14232011962E+03  0.00000000000E+00 0.  1.
         12    1    3    3    0    0  0.81359038893E+02 -0.66702034184E+02  0.54481787950E+02  0.11847666349E+03  0.00000000000E+00 0. -1.
        -13    1    4    4    0    0  0.71946904268E+02  0.10476143116E+03  0.83737192021E+02  0.15219471679E+03  0.00000000000E+00 0. -1.
         13    1    4    4    0    0 -0.26811880009E+02  0.57235663346E+02  0.23572423392E+02  0.67457076818E+02  0.00000000000E+00 0.  1.
         21    1    1    2  503  502 -0.60539419812E+01 -0.39386430920E+02 -0.15045751234E+03  0.15564512255E+03  0.00000000000E+00 0. -1.
          1    1    1    2  501    0 -0.20937899096E+03 -0.78540473897E+02  0.29820755052E+03  0.37274107780E+03  0.00000000000E+00 0. -1.
<scales pt_clust_5="13000.00000" pt_clust_6="13000.00000" pt_clust_7="13000.00000" pt_clust_8="13000.00000" pt_clust_9="39.84898" pt_clust_10="13000.00000"></scales>
<clustering>
<clus scale="   39.849">  2  9  1 -1</clus>
<clus scale="   91.931">  7  8 -1 -1</clus>
<clus scale="  102.067">  5  6 -1 -1</clus>
<clus scale="  205.015">  1  5  2 -1</clus>
<clus scale="  158.748">  7 10 -1 -1</clus>
<clus scale="   39.849">  2  5  1 -1</clus>
</clustering>
</event>
<event>
10    4  0.2866397E-005  0.2127069E+03  0.7546771E-02  0.1159916E+00
          2   -1    0    0  503    0 -0.00000000000E+00  0.00000000000E+00  0.49309960481E+03  0.49309960481E+03  0.00000000000E+00 0. -1.
         21   -1    0    0  501  502  0.00000000000E+00 -0.00000000000E+00 -0.18484990449E+03  0.18484990449E+03  0.00000000000E+00 0. -1.
         24    2    1    2    0    0 -0.17518446795E+02 -0.10055441612E+03  0.15938239068E+03  0.20561031448E+03  0.80341573197E+02 0.  0.
         23    2    1    2    0    0 -0.50925936574E+02  0.69806627469E+02  0.95342812273E+02  0.15943656616E+03  0.94145369093E+02 0.  0.
        -11    1    3    3    0    0 -0.39034172087E+02 -0.17824872375E+02  0.39146225028E+02  0.58084590036E+02  0.00000000000E+00 0.  1.
         12    1    3    3    0    0  0.21515725292E+02 -0.82729543743E+02  0.12023616565E+03  0.14752572445E+03  0.00000000000E+00 0. -1.
        -13    1    4    4    0    0 -0.71477524575E+02  0.77850060870E+02  0.80201507643E+02  0.13267234197E+03  0.00000000000E+00 0. -1.
         13    1    4    4    0    0  0.20551588001E+02 -0.80434334008E+01  0.15141304630E+02  0.26764224184E+02  0.00000000000E+00 0.  1.
         21    1    1    2  503  502  0.20296451186E+02 -0.60749742494E+01 -0.12375062829E+03  0.12555106230E+03  0.00000000000E+00 0. -1.
          1    1    1    2  501    0  0.48147932183E+02  0.36822762898E+02  0.17727512565E+03  0.18735156636E+03  0.00000000000E+00 0. -1.
<scales pt_clust_5="13000.00000" pt_clust_6="13000.00000" pt_clust_7="13000.00000" pt_clust_8="13000.00000" pt_clust_9="21.18611" pt_clust_10="13000.00000"></scales>
<clustering>
<clus scale="   21.186">  2  9  1 -1</clus>
<clus scale="   80.342">  5  6 -1 -1</clus>
<clus scale="   94.145">  7  8 -1 -1</clus>
<clus scale="   61.672">  7 10 -1 -1</clus>
<clus scale="  130.901">  1  5  2 -1</clus>
<clus scale="   21.186">  2  5  1 -1</clus>
</clustering>
</event>
<event>
10    4  0.2866397E-005  0.2908692E+03  0.7546771E-02  0.1119058E+00
         21   -1    0    0  501  502  0.00000000000E+00  0.00000000000E+00  0.15121140698E+03  0.15121140698E+03  0.00000000000E+00 0. -1.
          2   -1    0    0  503    0 -0.00000000000E+00 -0.00000000000E+00 -0.65679682243E+03  0.65679682243E+03  0.00000000000E+00 0. -1.
         24    2    1    2    0    0  0.69523506264E+02  0.35763979779E+02  0.41042096635E+02  0.11877055980E+03  0.79431807269E+02 0.  0.
         23    2    1    2    0    0 -0.18507000285E+03 -0.59726804609E+02 -0.33373608721E+03  0.39736560464E+03  0.93281566784E+02 0.  0.
        -13    1    3    3    0    0  0.57269392379E+02 -0.70063128216E+01 -0.79011588922E+00  0.57701785119E+02  0.00000000000E+00 0.  1.
         14    1    3    3    0    0  0.12254113885E+02  0.42770292601E+02  0.41832212524E+02  0.61068774680E+02  0.00000000000E+00 0. -1.
        -13    1    4    4    0    0 -0.12387439531E+02  0.21403697116E+02 -0.43411606972E+02  0.49961330330E+02  0.00000000000E+00 0.  1.
         13    1    4    4    0    0 -0.17268256332E+03 -0.81130501725E+02 -0.29032448024E+03  0.34740427431E+03  0.00000000000E+00 0. -1.
         21    1    1    2  503  502  0.47611192642E+02  0.15031976320E+02  0.16407268029E+02  0.52554585157E+02  0.00000000000E+00 0.  1.
          1    1    1    2  501    0  0.67935303945E+02  0.89308485094E+01 -0.22929869290E+03  0.23931747981E+03  0.00000000000E+00 0. -1.
<scales pt_clust_5="13000.00000" pt_clust_6="13000.00000" pt_clust_7="13000.00000" pt_clust_8="13000.00000" pt_clust_9="49.92781" pt_clust_10="13000.00000"></scales>
<clustering>
<clus scale="   49.928">  1  9  2 -1</clus>
<clus scale="   79.432">  5  6 -1 -1</clus>
<clus scale="   93.282">  7  8 -1 -1</clus>
<clus scale="   70.631">  7 10 -1 -1</clus>
<clus scale="  137.324">  2  5  1 -1</clus>
<clus scale="   49.928">  1  5  2 -1</clus>
</clustering>
</event>
<event>
10    4  0.2866397E-005  0.3293031E+03  0.7546771E-02  0.1111324E+00
         21   -1    0    0  501  502  0.00000000000E+00  0.00000000000E+00  0.21673148634E+03  0.21673148634E+03  0.00000000000E+00 0.  1.
          2   -1    0    0  503    0 -0.00000000000E+00 -0.00000000000E+00 -0.66098961116E+03  0.66098961116E+03  0.00000000000E+00 0. -1.
         24    2    1    2    0    0 -0.64465403970E+02 -0.62436654189E+02 -0.22972281076E+03  0.25957429338E+03  0.80945166038E+02 0.  0.
         23    2    1    2    0    0  0.61739637639E+02 -0.10325778530E+03 -0.81383336240E+02  0.17100705730E+03  0.90256374558E+02 0.  0.
        -11    1    3    3    0    0 -0.57865456270E+02 -0.50418408009E+02 -0.23313641819E+03  0.24544452811E+03  0.00000000000E+00 0.  1.
         12    1    3    3    0    0 -0.65999476995E+01 -0.12018246180E+02  0.34136074254E+01  0.14129765268E+02  0.00000000000E+00 0. -1.
        -13    1    4    4    0    0  0.37127428406E+02 -0.68282008886E+01 -0.57293408210E+02  0.68611987960E+02  0.00000000000E+00 0. -1.
         13    1    4    4    0    0  0.24612209232E+02 -0.96429584410E+02 -0.24089928030E+02  0.10239506934E+03  0.00000000000E+00 0.  1.
         21    1    1    2  503  502  0.34362248346E+02  0.24764215820E+02  0.13558489733E+03  0.14204680524E+03  0.00000000000E+00 0.  1.
          1    1    1    2  501    0 -0.31636482014E+02  0.14093022367E+03 -0.26873687514E+03  0.30509294157E+03  0.00000000000E+00 0. -1.
<scales pt_clust_5="13000.00000" pt_clust_6="13000.00000" pt_clust_7="13000.00000" pt_clust_8="13000.00000" pt_clust_9="42.35600" pt_clust_10="13000.00000"></scales>
<clustering>
<clus scale="   42.356">  1  9  2 -1</clus>
<clus scale="   80.945">  5  6 -1 -1</clus>
<clus scale="   90.256">  7  8 -1 -1</clus>
<clus scale="  115.026">  2  5  1 -1</clus>
<clus scale="  124.210">  7 10 -1 -1</clus>
<clus scale="   42.356">  1  5  2 -1</clus>
</clustering>
</event>
<event>
10    4  0.3010004E-005  0.5323389E+03  0.7546771E-02  0.1030238E+00
          2   -1    0    0  502    0 -0.00000000000E+00  0.00000000000E+00  0.18665371791E+04  0.18665371791E+04  0.00000000000E+00 0. -1.
         21   -1    0    0  503  502  0.00000000000E+00 -0.00000000000E+00 -0.98933605885E+02  0.98933605885E+02  0.00000000000E+00 0. -1.
         24    2    1    2    0    0  0.46607071682E+02 -0.24715824737E+03  0.54424401231E+03  0.60528837800E+03  0.83144796772E+02 0.  0.
         23    2    1    2    0    0  0.15246195509E+02 -0.14001093449E+03  0.41792270696E+03  0.45024751336E+03  0.90707916094E+02 0.  0.
        -11    1    3    3    0    0  0.35640174336E+02 -0.63542075342E+02  0.94062439172E+02  0.11897713994E+03  0.00000000000E+00 0.  1.
         12    1    3    3    0    0  0.10966897345E+02 -0.18361617203E+03  0.45018157314E+03  0.48631123806E+03  0.00000000000E+00 0. -1.
        -11    1    4    4    0    0 -0.17155462605E+02 -0.98213772184E+02  0.17293445564E+03  0.19961608375E+03  0.00000000000E+00 0.  1.
         11    1    4    4    0    0  0.32401658115E+02 -0.41797162304E+02  0.24498825131E+03  0.25063142961E+03  0.00000000000E+00 0. -1.
         21    1    1    2  503  501  0.43832367205E+02  0.49540982506E+02  0.88809224837E+02  0.11073691245E+03  0.00000000000E+00 0.  1.
          1    1    1    2  501    0 -0.10568563440E+03  0.33762819935E+03  0.71662762911E+03  0.79919798118E+03  0.00000000000E+00 0. -1.
<scales pt_clust_5="13000.00000" pt_clust_6="13000.00000" pt_clust_7="13000.00000" pt_clust_8="13000.00000" pt_clust_9="66.14821" pt_clust_10="13000.00000"></scales>
<clustering>
<clus scale="   66.148">  2  9  1 -1</clus>
<clus scale="   83.145">  5  6 -1 -1</clus>
<clus scale="   90.708">  7  8 -1 -1</clus>
<clus scale="  252.230">  1  5  2 -1</clus>
<clus scale="  214.157">  7 10 -1 -1</clus>
<clus scale="   66.148">  2  5  1 -1</clus>
</clustering>
</event>
<event>
10    4  0.2866397E-005  0.2926889E+03  0.7546771E-02  0.1121813E+00
         21   -1    0    0  503  502  0.00000000000E+00  0.00000000000E+00  0.21896395089E+03  0.21896395089E+03  0.00000000000E+00 0. -1.
         -1   -1    0    0    0  501 -0.00000000000E+00 -0.00000000000E+00 -0.10288461761E+04  0.10288461761E+04  0.00000000000E+00 0.  1.
         24    2    1    2    0    0  0.11802083814E+03  0.28799679214E+02 -0.31190105116E+03  0.34482623615E+03  0.82852445143E+02 0.  0.
         23    2    1    2    0    0 -0.15292920216E+03  0.10748753052E+01 -0.41300996574E+03  0.44999683436E+03  0.92365701980E+02 0.  0.
        -13    1    3    3    0    0  0.73773596638E+02  0.96668964648E+01 -0.85461643958E+02  0.11331233400E+03  0.00000000000E+00 0.  1.
         14    1    3    3    0    0  0.44247241499E+02  0.19132782750E+02 -0.22643940721E+03  0.23151390216E+03  0.00000000000E+00 0. -1.
        -11    1    4    4    0    0 -0.86213139429E+02 -0.32869330027E+02 -0.14615581935E+03  0.17284276611E+03  0.00000000000E+00 0. -1.
         11    1    4    4    0    0 -0.66716062736E+02  0.33944205332E+02 -0.26685414639E+03  0.27715406825E+03  0.00000000000E+00 0.  1.
         21    1    1    2  503  501 -0.65447847886E+02 -0.60951084137E+02  0.16175064265E+03  0.18482890966E+03  0.00000000000E+00 0. -1.
         -2    1    1    2    0  502  0.10035621191E+03  0.31076529618E+02 -0.24672185092E+03  0.26815814678E+03  0.00000000000E+00 0.  1.
<scales pt_clust_5="13000.00000" pt_clust_6="13000.00000" pt_clust_7="13000.00000" pt_clust_8="13000.00000" pt_clust_9="89.43408" pt_clust_10="13000.00000"></scales>
<clustering>
<clus scale="   82.852">  5  6 -1 -1</clus>
<clus scale="   89.434">  1  9  2 -1</clus>
<clus scale="   92.366">  7  8 -1 -1</clus>
<clus scale="   86.637">  7 10 -1 -1</clus>
<clus scale="  125.811">  2  5  1 -1</clus>
<clus scale="   89.434">  1  5  2 -1</clus>
</clustering>
</event>
<event>
10    4  0.2866397E-005  0.3569333E+03  0.7546771E-02  0.1083132E+00
          2   -1    0    0  502    0 -0.00000000000E+00  0.00000000000E+00  0.17630845950E+04  0.17630845950E+04  0.00000000000E+00 0. -1.
         21   -1    0    0  503  502  0.00000000000E+00 -0.00000000000E+00 -0.21243217964E+03  0.21243217964E+03  0.00000000000E+00 0.  1.
         24    2    1    2    0    0 -0.11462268463E+03 -0.10351693001E+03  0.22108828179E+03  0.28146641719E+03  0.80555577253E+02 0.  0.
         23    2    1    2    0    0  0.19744504344E+02 -0.91425400642E+01  0.12117823342E+03  0.15333309864E+03  0.91397173878E+02 0.  0.
        -11    1    3    3    0    0 -0.96161384682E+02 -0.84984702295E+02  0.22070645169E+03  0.25530520822E+03  0.00000000000E+00 0.  1.
         12    1    3    3    0    0 -0.18461299953E+02 -0.18532227717E+02  0.38183009845E+00  0.26161208962E+02  0.00000000000E+00 0. -1.
        -11    1    4    4    0    0  0.11637141764E+02  0.39137274046E+02  0.78070813163E+02  0.88103354965E+02  0.00000000000E+00 0. -1.
         11    1    4    4    0    0  0.81073625801E+01 -0.48279814110E+02  0.43107420257E+02  0.65229743674E+02  0.00000000000E+00 0.  1.
         21    1    1    2  503  501 -0.74306795648E+01 -0.31777016816E+02 -0.15880147774E+03  0.16212002692E+03  0.00000000000E+00 0.  1.
          1    1    1    2  501    0  0.10230885986E+03  0.14443648689E+03  0.13671873779E+04  0.13785972319E+04  0.00000000000E+00 0. -1.
<scales pt_clust_5="13000.00000" pt_clust_6="13000.00000" pt_clust_7="13000.00000" pt_clust_8="13000.00000" pt_clust_9="32.63424" pt_clust_10="13000.00000"></scales>
<clustering>
<clus scale="   32.634">  2  9  1 -1</clus>
<clus scale="   80.556">  5  6 -1 -1</clus>
<clus scale="   91.397">  7  8 -1 -1</clus>
<clus scale="  173.687">  7 10 -1 -1</clus>
<clus scale="  188.451">  1  5  2 -1</clus>
<clus scale="   32.634">  2  5  1 -1</clus>
</clustering>
</event>
<event>
10    4  0.2866397E-005  0.4990065E+03  0.7546771E-02  0.1030903E+00
          2   -1    0    0  503    0 -0.00000000000E+00  0.00000000000E+00  0.36163195584E+04  0.36163195584E+04  0.00000000000E+00 0. -1.
         21   -1    0    0  501  502  0.00000000000E+00 -0.00000000000E+00 -0.10360590454E+03  0.10360590454E+03  0.00000000000E+00 0. -1.
         24    2    1    2    0    0 -0.21309070418E+03 -0.19699390972E+03  0.17321732413E+04  0.17582100810E+04  0.81635178371E+02 0.  0.
         23    2    1    2    0    0  0.21657463193E+03 -0.70555187842E+02  0.57441792336E+03  0.62466570062E+03  0.91480495919E+02 0.  0.
        -13    1    3    3    0    0 -0.80879463547E+02 -0.67688837805E+02  0.41854765724E+03  0.43163110149E+03  0.00000000000E+00 0.  1.
         14    1    3    3    0    0 -0.13221124063E+03 -0.12930507192E+03  0.13136255841E+04  0.13265789795E+04  0.00000000000E+00 0. -1.
        -13    1    4    4    0    0  0.31145391165E+02  0.84241326426E+01  0.29686909186E+02  0.43844201197E+02  0.00000000000E+00 0.  1.
         13    1    4    4    0    0  0.18542924077E+03 -0.78979320484E+02  0.54473101417E+03  0.58082149943E+03  0.00000000000E+00 0. -1.
         21    1    1    2  503  502 -0.46396641297E+02  0.61009086505E+02 -0.30552429572E+02  0.82511865283E+02  0.00000000000E+00 0. -1.
          1    1    1    2  501    0  0.42912713541E+02  0.20654001106E+03  0.12366749187E+04  0.12545378160E+04  0.00000000000E+00 0. -1.
<scales pt_clust_5="13000.00000" pt_clust_6="13000.00000" pt_clust_7="13000.00000" pt_clust_8="13000.00000" pt_clust_9="76.64696" pt_clust_10="13000.00000"></scales>
<clustering>
<clus scale="   76.647">  2  9  1 -1</clus>
<clus scale="   81.635">  5  6 -1 -1</clus>
<clus scale="   91.480">  7  8 -1 -1</clus>
<clus scale="  220.767">  7 10 -1 -1</clus>
<clus scale="  300.248">  1  5  2 -1</clus>
<clus scale="   76.647">  2  5  1 -1</clus>
</clustering>
</event>
<event>
10    4  0.2866397E-005  0.1615388E+03  0.7546771E-02  0.1212318E+00
          2   -1    0    0  502    0 -0.00000000000E+00  0.00000000000E+00  0.82290024437E+03  0.82290024437E+03  0.00000000000E+00 0. -1.
         21   -1    0    0  503  502  0.00000000000E+00 -0.00000000000E+00 -0.10560394660E+03  0.10560394660E+03  0.00000000000E+00 0.  1.
         24    2    1    2    0    0  0.28233964103E+02 -0.53247369569E+02  0.45790600611E+03  0.46875564222E+03  0.80134278460E+02 0.  0.
         23    2    1    2    0    0 -0.57901433945E+02  0.11477747641E+02  0.17358412503E+03  0.20463112677E+03  0.90874280393E+02 0.  0.
        -13    1    3    3    0    0 -0.21748893670E+02 -0.90429484383E+01  0.48150602633E+02  0.53602890092E+02  0.00000000000E+00 0.  1.
         14    1    3    3    0    0  0.49982857773E+02 -0.44204421131E+02  0.40975540348E+03  0.41515275212E+03  0.00000000000E+00 0. -1.
        -11    1    4    4    0    0  0.16680534461E+02  0.19401996312E+02  0.83920754169E+02  0.87734660603E+02  0.00000000000E+00 0.  1.
         11    1    4    4    0    0 -0.74581968406E+02 -0.79242486714E+01  0.89663370862E+02  0.11689646617E+03  0.00000000000E+00 0. -1.
         21    1    1    2  503  501 -0.93397649302E+00  0.64164860597E+02 -0.69882812831E+02  0.94876810532E+02  0.00000000000E+00 0.  1.
          1    1    1    2  501    0  0.30601446335E+02 -0.22395238669E+02  0.15568897946E+03  0.16024061145E+03  0.00000000000E+00 0. -1.
<scales pt_clust_5="13000.00000" pt_clust_6="13000.00000" pt_clust_7="13000.00000" pt_clust_8="13000.00000" pt_clust_9="64.17166" pt_clust_10="13000.00000"></scales>
<clustering>
<clus scale="   64.172">  2  9  1 -1</clus>
<clus scale="   80.134">  5  6 -1 -1</clus>
<clus scale="   90.874">  7  8 -1 -1</clus>
<clus scale="   34.501">  7 10 -1 -1</clus>
<clus scale="   93.114">  1  5  2 -1</clus>
<clus scale="   64.172">  2  5  1 -1</clus>
</clustering>
</event>
<event>
10    4  0.2866397E-005  0.2165761E+03  0.7546771E-02  0.1147094E+00
         21   -1    0    0  501  502  0.00000000000E+00  0.00000000000E+00  0.36217916154E+03  0.36217916154E+03  0.00000000000E+00 0.  1.
          2   -1    0    0  503    0 -0.00000000000E+00 -0.00000000000E+00 -0.28806670879E+03  0.28806670879E+03  0.00000000000E+00 0. -1.
         24    2    1    2    0    0 -0.11550643397E+02  0.14206033879E+03 -0.13980865197E+02  0.16195014566E+03  0.75616320131E+02 0.  0.
         23    2    1    2    0    0 -0.38506795366E+00 -0.13147633967E+03 -0.50720468248E+02  0.16772577869E+03  0.90957103994E+02 0.  0.
        -11    1    3    3    0    0 -0.18071064052E+02  0.13078943767E+03 -0.35568961428E+02  0.13673913624E+03  0.00000000000E+00 0.  1.
         12    1    3    3    0    0  0.65204206557E+01  0.11270901118E+02  0.21588096230E+02  0.25211009428E+02  0.00000000000E+00 0. -1.
        -13    1    4    4    0    0  0.37194381439E+02 -0.10809321773E+03 -0.45972746714E+02  0.12321144091E+03  0.00000000000E+00 0.  1.
         13    1    4    4    0    0 -0.37579449393E+02 -0.23383121937E+02 -0.47477215337E+01  0.44514337780E+02  0.00000000000E+00 0. -1.
         21    1    1    2  503  502  0.41309944200E+02  0.13389129556E+02  0.22355484896E+03  0.22773350824E+03  0.00000000000E+00 0.  1.
          1    1    1    2  501    0 -0.29374232850E+02 -0.23973128676E+02 -0.84741062767E+02  0.92836437743E+02  0.00000000000E+00 0. -1.
<scales pt_clust_5="13000.00000" pt_clust_6="13000.00000" pt_clust_7="13000.00000" pt_clust_8="13000.00000" pt_clust_9="43.42557" pt_clust_10="13000.00000"></scales>
<clustering>
<clus scale="   43.426">  1  9  2 -1</clus>
<clus scale="   75.616">  5  6 -1 -1</clus>
<clus scale="   90.957">  7  8 -1 -1</clus>
<clus scale="   36.718">  7 10 -1 -1</clus>
<clus scale="  167.721">  2  5  1 -1</clus>
<clus scale="   43.426">  1  5  2 -1</clus>
</clustering>
</event>
<event>
10    4  0.2866397E-005  0.2703464E+03  0.7546771E-02  0.1116640E+00
         21   -1    0    0  501  502  0.00000000000E+00  0.00000000000E+00  0.43313949319E+02  0.43313949319E+02  0.00000000000E+00 0. -1.
          2   -1    0    0  503    0 -0.00000000000E+00 -0.00000000000E+00 -0.20525993750E+04  0.20525993750E+04  0.00000000000E+00 0. -1.
         24    2    1    2    0    0 -0.72715852299E+02  0.15024089150E+03 -0.12713742621E+04  0.12849199034E+04  0.82260094814E+02 0.  0.
         23    2    1    2    0    0  0.22077667757E+02  0.14840006162E+02 -0.31679362400E+03  0.33595020384E+03  0.10861256859E+03 0.  0.
        -13    1    3    3    0    0 -0.25719303905E+02  0.11661282253E+03 -0.65115516046E+03  0.66201440767E+03  0.00000000000E+00 0.  1.
         14    1    3    3    0    0 -0.46996548394E+02  0.33628068970E+02 -0.62021910160E+03  0.62290549570E+03  0.00000000000E+00 0. -1.
        -13    1    4    4    0    0  0.69669633570E+01  0.61314271177E+02 -0.15155260427E+03  0.16363425769E+03  0.00000000000E+00 0.  1.
         13    1    4    4    0    0  0.15110704400E+02 -0.46474265016E+02 -0.16524101973E+03  0.17231594615E+03  0.00000000000E+00 0. -1.
         21    1    1    2  503  502 -0.69543265628E+01 -0.26940259129E+02  0.31367891314E+00  0.27825143563E+02  0.00000000000E+00 0.  1.
          1    1    1    2  501    0  0.57592511104E+02 -0.13814063853E+03 -0.42143121855E+03  0.44721807356E+03  0.00000000000E+00 0. -1.
<scales pt_clust_5="13000.00000" pt_clust_6="13000.00000" pt_clust_7="13000.00000" pt_clust_8="13000.00000" pt_clust_9="27.82338" pt_clust_10="13000.00000"></scales>
<clustering>
<clus scale="   27.823">  1  9  2 -1</clus>
<clus scale="   82.260">  5  6 -1 -1</clus>
<clus scale="  108.613">  7  8 -1 -1</clus>
<clus scale="  159.620">  7 10 -1 -1</clus>
<clus scale="  181.735">  2  5  1 -1</clus>
<clus scale="   27.823">  1  5  2 -1</clus>
</clustering>
</event>
<event>
10    4  0.2866397E-005  0.4301536E+03  0.7546771E-02  0.1051339E+00
          2   -1    0    0  503    0 -0.00000000000E+00  0.00000000000E+00  0.81000006638E+03  0.81000006638E+03  0.00000000000E+00 0. -1.
         21   -1    0    0  501  502  0.00000000000E+00 -0.00000000000E+00 -0.18352303268E+03  0.18352303268E+03  0.00000000000E+00 0. -1.
         24    2    1    2    0    0  0.21395152994E+03  0.25987550586E+02  0.10241219744E+03  0.25212482769E+03  0.81412901950E+02 0.  0.
         23    2    1    2    0    0 -0.16447340156E+03 -0.43112152303E+02  0.30164106098E+02  0.19283117374E+03  0.85812765779E+02 0.  0.
        -13    1    3    3    0    0  0.46013312176E+02 -0.12957662705E+02  0.55926901353E+02  0.73572713795E+02  0.00000000000E+00 0.  1.
         14    1    3    3    0    0  0.16793821777E+03  0.38945213291E+02  0.46485296091E+02  0.17855211390E+03  0.00000000000E+00 0. -1.
        -13    1    4    4    0    0 -0.88146608045E+02  0.20266795183E+02  0.23212665741E+02  0.93377702625E+02  0.00000000000E+00 0.  1.
         13    1    4    4    0    0 -0.76326793515E+02 -0.63378947486E+02  0.69514403567E+01  0.99453471110E+02  0.00000000000E+00 0. -1.
         21    1    1    2  503  502  0.64012639575E+02  0.19736160553E+02  0.34500178265E+02  0.75348499382E+02  0.00000000000E+00 0. -1.
          1    1    1    2  501    0 -0.11349076796E+03 -0.26115588365E+01  0.45940055189E+03  0.47321859825E+03  0.00000000000E+00 0. -1.
<scales pt_clust_5="13000.00000" pt_clust_6="13000.00000" pt_clust_7="13000.00000" pt_clust_8="13000.00000" pt_clust_9="66.98607" pt_clust_10="13000.00000"></scales>
<clustering>
<clus scale="   66.986">  2  9  1 -1</clus>
<clus scale="   81.413">  5  6 -1 -1</clus>
<clus scale="   85.813">  7  8 -1 -1</clus>
<clus scale="  110.793">  7 10 -1 -1</clus>
<clus scale="  258.972">  1  5  2 -1</clus>
<clus scale="   66.986">  2  5  1 -1</clus>
</clustering>
</event>
<event>
10    4  0.2866397E-005  0.3082350E+03  0.7546771E-02  0.1093606E+00
         -1   -1    0    0    0  501 -0.00000000000E+00  0.00000000000E+00  0.53307253726E+03  0.53307253726E+03  0.00000000000E+00 0.  1.
         21   -1    0    0  503  502  0.00000000000E+00 -0.00000000000E+00 -0.17716248381E+03  0.17716248381E+03  0.00000000000E+00 0. -1.
         24    2    1    2    0    0  0.13190043534E+03  0.15664832782E+03  0.47123366140E+02  0.22911150566E+03  0.91296478213E+02 0.  0.
         23    2    1    2    0    0 -0.18998478730E+02  0.20171380731E+02  0.13018530456E+03  0.16206823778E+03  0.92466606835E+02 0.  0.
        -13    1    3    3    0    0  0.42288701652E+02  0.28155612092E+02  0.51573138046E+02  0.72393793571E+02  0.00000000000E+00 0.  1.
         14    1    3    3    0    0  0.89611733691E+02  0.12849271573E+03 -0.44497719058E+01  0.15671771208E+03  0.00000000000E+00 0. -1.
        -11    1    4    4    0    0  0.16757544415E+02 -0.22783872224E+02  0.10848250358E+02  0.30291990099E+02  0.00000000000E+00 0.  1.
         11    1    4    4    0    0 -0.35756023146E+02  0.42955252955E+02  0.11933705420E+03  0.13177624768E+03  0.00000000000E+00 0. -1.
         21    1    1    2  503  501 -0.20450321158E+02  0.10170715346E+02 -0.20500177759E+02  0.30690656140E+02  0.00000000000E+00 0.  1.
         -2    1    1    2    0  502 -0.92451635455E+02 -0.18699042390E+03  0.19910156051E+03  0.28836462149E+03  0.00000000000E+00 0.  1.
<scales pt_clust_5="13000.00000" pt_clust_6="13000.00000" pt_clust_7="13000.00000" pt_clust_8="13000.00000" pt_clust_9="22.83986" pt_clust_10="13000.00000"></scales>
<clustering>
<clus scale="   22.840">  2  9  1 -1</clus>
<clus scale="   91.296">  5  6 -1 -1</clus>
<clus scale="   92.467">  7  8 -1 -1</clus>
<clus scale="  208.690">  7 10 -1 -1</clus>
<clus scale="  221.661">  1  5  2 -1</clus>
<clus scale="   22.840">  2  5  1 -1</clus>
</clustering>
</event>
<event>
10    4  0.2866397E-005  0.3488520E+03  0.7546771E-02  0.1115564E+00
         21   -1    0    0  501  502  0.00000000000E+00  0.00000000000E+00  0.21966257683E+03  0.21966257683E+03  0.00000000000E+00 0. -1.
          2   -1    0    0  503    0 -0.00000000000E+00 -0.00000000000E+00 -0.74066582130E+03  0.74066582130E+03  0.00000000000E+00 0. -1.
         24    2    1    2    0    0 -0.62636606535E+01  0.22405157380E+02 -0.11027052378E+02  0.87602142883E+02  0.83733595597E+02 0.  0.
         23    2    1    2    0    0 -0.14051159698E+03  0.14587184289E+03 -0.46768750187E+03  0.51772878487E+03  0.91046097379E+02 0.  0.
        -11    1    3    3    0    0 -0.15863147544E+02 -0.29410340323E+02 -0.10055956866E+02  0.34895985964E+02  0.00000000000E+00 0.  1.
         12    1    3    3    0    0  0.95994868907E+01  0.51815497702E+02 -0.97109551213E+00  0.52706156919E+02  0.00000000000E+00 0. -1.
        -13    1    4    4    0    0 -0.35257490237E+02 -0.65107691140E+01 -0.95527762919E+02  0.10203447565E+03  0.00000000000E+00 0.  1.
         13    1    4    4    0    0 -0.10525410674E+03  0.15238261201E+03 -0.37215973895E+03  0.41569430923E+03  0.00000000000E+00 0. -1.
         21    1    1    2  503  502  0.94216408981E+02 -0.64729147218E+02  0.11323787606E+03  0.16090186697E+03  0.00000000000E+00 0. -1.
          1    1    1    2  501    0  0.52558848650E+02 -0.10354785306E+03 -0.15552656627E+03  0.19409560340E+03  0.00000000000E+00 0. -1.
<scales pt_clust_5="13000.00000" pt_clust_6="13000.00000" pt_clust_7="13000.00000" pt_clust_8="13000.00000" pt_clust_9="113.69505" pt_clust_10="13000.00000"></scales>
<clustering>
<clus scale="   83.734">  5  6 -1 -1</clus>
<clus scale="   86.905">  2  5  1 -1</clus>
<clus scale="   91.046">  7  8 -1 -1</clus>
<clus scale="  110.361">  7 10 -1 -1</clus>
<clus scale="  113.695">  1  9  2 -1</clus>
<clus scale="  113.695">  1  5  2 -1</clus>
</clustering>
</event>
<event>
10    4  0.2866397E-005  0.2286485E+03  0.7546771E-02  0.1149429E+00
         21   -1    0    0  501  502  0.00000000000E+00  0.00000000000E+00  0.11872322999E+03  0.11872322999E+03  0.00000000000E+00 0. -1.
          2   -1    0    0  503    0 -0.00000000000E+00 -0.00000000000E+00 -0.96063021914E+03  0.96063021914E+03  0.00000000000E+00 0. -1.
         24    2    1    2    0    0 -0.99481207889E+02 -0.35103434735E+02 -0.70878025397E+03  0.72123348385E+03  0.81728379148E+02 0.  0.
         23    2    1    2    0    0  0.21528113678E+02  0.63529388670E+02 -0.17433150857E+03  0.20790832141E+03  0.91295960077E+02 0.  0.
        -11    1    3    3    0    0 -0.10127262617E+02 -0.39928235796E+02 -0.16065512170E+03  0.16585202318E+03  0.00000000000E+00 0.  1.
         12    1    3    3    0    0 -0.89353945272E+02  0.48248010604E+01 -0.54812513226E+03  0.55538146067E+03  0.00000000000E+00 0. -1.
        -11    1    4    4    0    0 -0.14031976691E+02 -0.15824055397E+02 -0.13548204877E+02  0.25116746494E+02  0.00000000000E+00 0.  1.
         11    1    4    4    0    0  0.35560090369E+02  0.79353444067E+02 -0.16078330369E+03  0.18279157491E+03  0.00000000000E+00 0. -1.
         21    1    1    2  503  502 -0.13689945354E+02 -0.15032015504E+02  0.53076327131E+02  0.56837246552E+02  0.00000000000E+00 0. -1.
          1    1    1    2  501    0  0.91643039565E+02 -0.13393938431E+02 -0.11871553734E+02  0.93374397323E+02  0.00000000000E+00 0. -1.
<scales pt_clust_5="13000.00000" pt_clust_6="13000.00000" pt_clust_7="13000.00000" pt_clust_8="13000.00000" pt_clust_9="20.33165" pt_clust_10="13000.00000"></scales>
<clustering>
<clus scale="   20.332">  1  9  2 -1</clus>
<clus scale="   81.728">  5  6 -1 -1</clus>
<clus scale="   91.296">  7  8 -1 -1</clus>
<clus scale="   86.026">  7 10 -1 -1</clus>
<clus scale="  134.838">  2  5  1 -1</clus>
<clus scale="   20.332">  1  5  2 -1</clus>
</clustering>
</event>
<event>
10    4  0.2866397E-005  0.3734027E+03  0.7546771E-02  0.1110261E+00
          2   -1    0    0  502    0 -0.00000000000E+00  0.00000000000E+00  0.59349406091E+03  0.59349406091E+03  0.00000000000E+00 0. -1.
         21   -1    0    0  503  502  0.00000000000E+00 -0.00000000000E+00 -0.33548400694E+03  0.33548400694E+03  0.00000000000E+00 0. -1.
         24    2    1    2    0    0  0.11224674012E+02 -0.13096328762E+02  0.22299303232E+02  0.84067671335E+02  0.79199793594E+02 0.  0.
         23    2    1    2    0    0  0.86580424565E+01  0.76783228915E+02  0.24978509537E+03  0.27690205166E+03  0.91167573196E+02 0.  0.
        -11    1    3    3    0    0  0.20389986642E+02 -0.41504963600E+02  0.27449262128E+02  0.53776161541E+02  0.00000000000E+00 0.  1.
         12    1    3    3    0    0 -0.91653126301E+01  0.28408634838E+02 -0.51499588968E+01  0.30291509794E+02  0.00000000000E+00 0. -1.
        -13    1    4    4    0    0 -0.39605573537E+02  0.46245915146E+02  0.15069688958E+03  0.16253257721E+03  0.00000000000E+00 0.  1.
         13    1    4    4    0    0  0.48263615993E+02  0.30537313768E+02  0.99088205788E+02  0.11436947446E+03  0.00000000000E+00 0. -1.
         21    1    1    2  503  501  0.13047749065E+03  0.11364437013E+03 -0.20421454592E+03  0.26766209891E+03  0.00000000000E+00 0. -1.
          1    1    1    2  501    0 -0.15036020712E+03 -0.17733127029E+03  0.19014020129E+03  0.30034624594E+03  0.00000000000E+00 0. -1.
<scales pt_clust_5="13000.00000" pt_clust_6="13000.00000" pt_clust_7="13000.00000" pt_clust_8="13000.00000" pt_clust_9="173.02501" pt_clust_10="13000.00000"></scales>
<clustering>
<clus scale="   79.200">  5  6 -1 -1</clus>
<clus scale="   81.056">  1  5  2 -1</clus>
<clus scale="   91.168">  7  8 -1 -1</clus>
<clus scale="  173.025">  2  9  1 -1</clus>
<clus scale="  125.134">  7 10 -1 -1</clus>
<clus scale="  173.025">  2  5  1 -1</clus>
</clustering>
</event>
<event>
10    4  0.2866397E-005  0.1296340E+03  0.7546771E-02  0.1234933E+00
         21   -1    0    0  503  502  0.00000000000E+00  0.00000000000E+00  0.13753577039E+03  0.13753577039E+03  0.00000000000E+00 0.  1.
          2   -1    0    0  502    0 -0.00000000000E+00 -0.00000000000E+00 -0.72542417890E+03  0.72542417890E+03  0.00000000000E+00 0. -1.
         24    2    1    2    0    0 -0.57163302703E+02  0.35163741571E+02 -0.45943494692E+03  0.47121764327E+03  0.80383238160E+02 0.  0.
         23    2    1    2    0    0  0.86897463879E+02 -0.61402852590E+02 -0.17559175583E+03  0.22452516667E+03  0.90871371829E+02 0.  0.
        -11    1    3    3    0    0 -0.13978884837E+02  0.26884200758E+02 -0.43779984006E+02  0.53243370209E+02  0.00000000000E+00 0.  1.
         12    1    3    3    0    0 -0.43184417866E+02  0.82795408132E+01 -0.41565496292E+03  0.41797427306E+03  0.00000000000E+00 0. -1.
        -11    1    4    4    0    0  0.10549687131E+03 -0.53223703008E+02 -0.13705239242E+03  0.18095775940E+03  0.00000000000E+00 0.  1.
         11    1    4    4    0    0 -0.18599407428E+02 -0.81791495818E+01 -0.38539363410E+02  0.43567407275E+02  0.00000000000E+00 0. -1.
         21    1    1    2  503  501 -0.49200136138E+02  0.50669383568E+02  0.89860427310E+02  0.11429320287E+03  0.00000000000E+00 0.  1.
          1    1    1    2  501    0  0.19465974962E+02 -0.24430272550E+02 -0.42722133068E+02  0.52923936474E+02  0.00000000000E+00 0. -1.
<scales pt_clust_5="13000.00000" pt_clust_6="13000.00000" pt_clust_7="13000.00000" pt_clust_8="13000.00000" pt_clust_9="70.62606" pt_clust_10="13000.00000"></scales>
<clustering>
<clus scale="   70.626">  1  9  2 -1</clus>
<clus scale="   80.383">  5  6 -1 -1</clus>
<clus scale="   90.871">  7  8 -1 -1</clus>
<clus scale="   21.149">  7 10 -1 -1</clus>
<clus scale="  112.383">  2  5  1 -1</clus>
<clus scale="   70.626">  1  5  2 -1</clus>
</clustering>
</event>
<event>
10    4  0.2866397E-005  0.1658748E+03  0.7546771E-02  0.1205788E+00
         21   -1    0    0  501  502  0.00000000000E+00  0.00000000000E+00  0.14789820621E+03  0.14789820621E+03  0.00000000000E+00 0.  1.
         -1   -1    0    0    0  501 -0.00000000000E+00 -0.00000000000E+00 -0.38181398782E+03  0.38181398782E+03  0.00000000000E+00 0.  1.
         24    2    1    2    0    0  0.70245260849E+02 -0.41676517872E+02 -0.25632392091E+02  0.11883842688E+03  0.82427079078E+02 0.  0.
         23    2    1    2    0    0  0.25849074196E+02 -0.32965875465E+02 -0.13818011169E+03  0.17166893172E+03  0.92852330444E+02 0.  0.
        -13    1    3    3    0    0  0.25463539213E+02 -0.61848933297E+02 -0.16321852314E+02  0.68848276973E+02  0.00000000000E+00 0.  1.
         14    1    3    3    0    0  0.44781721636E+02  0.20172415425E+02 -0.93105397769E+01  0.49990149907E+02  0.00000000000E+00 0. -1.
        -13    1    4    4    0    0  0.54484178893E+02 -0.45109549812E+02 -0.97771117705E+02  0.12067555134E+03  0.00000000000E+00 0. -1.
         13    1    4    4    0    0 -0.28635104696E+02  0.12143674347E+02 -0.40408993984E+02  0.50993380378E+02  0.00000000000E+00 0.  1.
         21    1    1    2  503  502 -0.31446326492E+02  0.99348986079E+02  0.37937752623E+02  0.11089799619E+03  0.00000000000E+00 0.  1.
         -2    1    1    2    0  503 -0.64648008553E+02 -0.24706592742E+02 -0.10804103045E+03  0.12830683924E+03  0.00000000000E+00 0.  1.
<scales pt_clust_5="13000.00000" pt_clust_6="13000.00000" pt_clust_7="13000.00000" pt_clust_8="13000.00000" pt_clust_9="104.20697" pt_clust_10="13000.00000"></scales>
<clustering>
<clus scale="   82.427">  5  6 -1 -1</clus>
<clus scale="   92.852">  7  8 -1 -1</clus>
<clus scale="   69.208">  7 10 -1 -1</clus>
<clus scale="  104.207">  1  9  2 -1</clus>
<clus scale="   98.892">  2  5  1 -1</clus>
<clus scale="  104.207">  1  5  2 -1</clus>
</clustering>
</event>
<event>
10    4  0.2866397E-005  0.2465577E+03  0.7546771E-02  0.1125112E+00
          2   -1    0    0  503    0 -0.00000000000E+00  0.00000000000E+00  0.10542727854E+04  0.10542727854E+04  0.00000000000E+00 0. -1.
         21   -1    0    0  501  502  0.00000000000E+00 -0.00000000000E+00 -0.63875751688E+02  0.63875751688E+02  0.00000000000E+00 0. -1.
         24    2    1    2    0    0 -0.14134739953E+03  0.12251543832E+03  0.54834087988E+03  0.58473732045E+03  0.79062591589E+02 0.  0.
         23    2    1    2    0    0  0.42252783999E+02  0.87950769960E+01  0.20250089738E+03  0.22558217848E+03  0.89543590908E+02 0.  0.
        -13    1    3    3    0    0 -0.12147149442E+03  0.13269433728E+03  0.50284998736E+03  0.53406106476E+03  0.00000000000E+00 0.  1.
         14    1    3    3    0    0 -0.19875905109E+02 -0.10178898957E+02  0.45490892523E+02  0.50676255686E+02  0.00000000000E+00 0. -1.
        -13    1    4    4    0    0 -0.13343130667E+02 -0.22008554843E+02  0.11246390438E+03  0.11537133704E+03  0.00000000000E+00 0.  1.
         13    1    4    4    0    0  0.55595914666E+02  0.30803631839E+02  0.90036993003E+02  0.11021084144E+03  0.00000000000E+00 0. -1.
         21    1    1    2  503  502  0.96644783455E+01 -0.29148060680E+02 -0.19535016664E+01  0.30770566323E+02  0.00000000000E+00 0.  1.
          1    1    1    2  501    0  0.89430137185E+02 -0.10216245464E+03  0.24150875813E+03  0.27705847186E+03  0.00000000000E+00 0. -1.
<scales pt_clust_5="13000.00000" pt_clust_6="13000.00000" pt_clust_7="13000.00000" pt_clust_8="13000.00000" pt_clust_9="30.70849" pt_clust_10="13000.00000"></scales>
<clustering>
<clus scale="   30.708">  2  9  1 -1</clus>
<clus scale="   79.063">  5  6 -1 -1</clus>
<clus scale="   89.544">  7  8 -1 -1</clus>
<clus scale="  146.429">  7 10 -1 -1</clus>
<clus scale="  193.898">  1  5  2 -1</clus>
<clus scale="   30.708">  2  5  1 -1</clus>
</clustering>
</event>
<event>
10    4  0.2866397E-005  0.2068636E+03  0.7546771E-02  0.1176357E+00
          2   -1    0    0  503    0 -0.00000000000E+00  0.00000000000E+00  0.64924098054E+03  0.64924098054E+03  0.00000000000E+00 0. -1.
         21   -1    0    0  501  502  0.00000000000E+00 -0.00000000000E+00 -0.79477682025E+02  0.79477682025E+02  0.00000000000E+00 0. -1.
         24    2    1    2    0    0 -0.36693971826E+02  0.45705756402E+02  0.44795054982E+03  0.45884713422E+03  0.80284081594E+02 0.  0.
         23    2    1    2    0    0  0.58540510416E+02  0.43312007491E+02  0.11336398048E+03  0.16302259838E+03  0.91771750330E+02 0.  0.
        -11    1    3    3    0    0 -0.30629321402E+01  0.29746987762E+02  0.44090497778E+02  0.53275105148E+02  0.00000000000E+00 0.  1.
         12    1    3    3    0    0 -0.33631039685E+02  0.15958768640E+02  0.40386005204E+03  0.40557202907E+03  0.00000000000E+00 0. -1.
        -11    1    4    4    0    0  0.70164715822E+02 -0.20173426411E+01  0.72209351345E+02  0.10070425731E+03  0.00000000000E+00 0.  1.
         11    1    4    4    0    0 -0.11624205406E+02  0.45329350132E+02  0.41154629135E+02  0.62318341072E+02  0.00000000000E+00 0. -1.
         21    1    1    2  503  502  0.18231153138E+02 -0.31798698165E+02  0.31692640051E+01  0.36790982375E+02  0.00000000000E+00 0.  1.
          1    1    1    2  501    0 -0.40077691729E+02 -0.57219065728E+02  0.52795042117E+01  0.70057947599E+02  0.00000000000E+00 0. -1.
<scales pt_clust_5="13000.00000" pt_clust_6="13000.00000" pt_clust_7="13000.00000" pt_clust_8="13000.00000" pt_clust_9="36.65422" pt_clust_10="13000.00000"></scales>
<clustering>
<clus scale="   36.654">  2  9  1 -1</clus>
<clus scale="   80.284">  5  6 -1 -1</clus>
<clus scale="   91.772">  7  8 -1 -1</clus>
<clus scale="   79.779">  7 10 -1 -1</clus>
<clus scale="   97.581">  1  5  2 -1</clus>
<clus scale="   36.654">  2  5  1 -1</clus>
</clustering>
</event>
<event>
10    4  0.2866397E-005  0.2373442E+03  0.7546771E-02  0.1148623E+00
         21   -1    0    0  501  502  0.00000000000E+00  0.00000000000E+00  0.19546700697E+03  0.19546700697E+03  0.00000000000E+00 0.  1.
         -3   -1    0    0    0  501 -0.00000000000E+00 -0.00000000000E+00 -0.27699888096E+03  0.27699888096E+03  0.00000000000E+00 0.  1.
         24    2    1    2    0    0 -0.26235899058E+02  0.84574818302E+02 -0.10045459187E+03  0.15647697962E+03  0.80948735820E+02 0.  0.
         23    2    1    2    0    0  0.85832210377E+02 -0.13742631157E+03 -0.53685649731E+02  0.19339077656E+03  0.90910307559E+02 0.  0.
        -13    1    3    3    0    0  0.21955629997E+02  0.15685721710E+02 -0.20673995715E+01  0.27062255913E+02  0.00000000000E+00 0.  1.
         14    1    3    3    0    0 -0.48191529054E+02  0.68889096593E+02 -0.98387192303E+02  0.12941472370E+03  0.00000000000E+00 0. -1.
        -11    1    4    4    0    0  0.97586400962E+01 -0.10093635931E+03 -0.30320968406E+02  0.10584300078E+03  0.00000000000E+00 0.  1.
         11    1    4    4    0    0  0.76073570281E+02 -0.36489952256E+02 -0.23364681326E+02  0.87547775782E+02  0.00000000000E+00 0. -1.
         21    1    1    2  503  502 -0.29109778137E+02  0.92839294844E+01  0.60921415430E+02  0.68154158991E+02  0.00000000000E+00 0.  1.
         -4    1    1    2    0  503 -0.30486533183E+02  0.43567563783E+02  0.11686952191E+02  0.54443972770E+02  0.00000000000E+00 0.  1.
<scales pt_clust_5="13000.00000" pt_clust_6="13000.00000" pt_clust_7="13000.00000" pt_clust_8="13000.00000" pt_clust_9="30.55439" pt_clust_10="13000.00000"></scales>
<clustering>
<clus scale="   30.554">  1  9  2 -1</clus>
<clus scale="   80.949">  5  6 -1 -1</clus>
<clus scale="   90.910">  7  8 -1 -1</clus>
<clus scale="   59.495">  7 10 -1 -1</clus>
<clus scale="  122.880">  2  5  1 -1</clus>
<clus scale="   30.554">  1  5  2 -1</clus>
</clustering>
</event>
<event>
10    4  0.2866397E-005  0.1382525E+03  0.7546771E-02  0.1236845E+00
         21   -1    0    0  503  502  0.00000000000E+00  0.00000000000E+00  0.18751593372E+03  0.18751593372E+03  0.00000000000E+00 0. -1.
          2   -1    0    0  502    0 -0.00000000000E+00 -0.00000000000E+00 -0.21436062722E+03  0.21436062722E+03  0.00000000000E+00 0. -1.
         24    2    1    2    0    0  0.21285931036E+02  0.18093834323E+02 -0.56704275592E+02  0.10476390847E+03  0.83544143704E+02 0.  0.
         23    2    1    2    0    0 -0.16115014876E+02 -0.59094996046E+02 -0.55496810215E+02  0.12581344209E+03  0.94853645180E+02 0.  0.
        -11    1    3    3    0    0  0.31358241996E+02 -0.24281722145E+02 -0.44334749661E+02  0.59485388113E+02  0.00000000000E+00 0.  1.
         12    1    3    3    0    0 -0.10072310960E+02  0.42375556468E+02 -0.12369525931E+02  0.45278520358E+02  0.00000000000E+00 0. -1.
        -13    1    4    4    0    0 -0.27725242324E+02  0.19214090111E+02 -0.17511123221E+02  0.38006706740E+02  0.00000000000E+00 0.  1.
         13    1    4    4    0    0  0.11610227447E+02 -0.78309086158E+02 -0.37985686994E+02  0.87806735349E+02  0.00000000000E+00 0. -1.
         21    1    1    2  503  501 -0.19280819535E+02  0.24792445235E+02  0.12354755296E+03  0.12747710847E+03  0.00000000000E+00 0. -1.
          1    1    1    2  501    0  0.14109903375E+02  0.16208716488E+02 -0.38191160648E+02  0.43822101902E+02  0.00000000000E+00 0. -1.
<scales pt_clust_5="13000.00000" pt_clust_6="13000.00000" pt_clust_7="13000.00000" pt_clust_8="13000.00000" pt_clust_9="31.40725" pt_clust_10="13000.00000"></scales>
<clustering>
<clus scale="   31.407">  1  9  2 -1</clus>
<clus scale="   83.544">  5  6 -1 -1</clus>
<clus scale="   89.095">  2  5  1 -1</clus>
<clus scale="   94.854">  7  8 -1 -1</clus>
<clus scale="   31.933">  7 10 -1 -1</clus>
<clus scale="   31.407">  1  5  2 -1</clus>
</clustering>
</event>
<event>
10    4  0.2866397E-005  0.1632391E+03  0.7546771E-02  0.1209449E+00
          2   -1    0    0  503    0 -0.00000000000E+00  0.00000000000E+00  0.18587703642E+03  0.18587703642E+03  0.00000000000E+00 0. -1.
         21   -1    0    0  501  502  0.00000000000E+00 -0.00000000000E+00 -0.57898463681E+03  0.57898463681E+03  0.00000000000E+00 0. -1.
         24    2    1    2    0    0 -0.51562234587E+02 -0.26459709726E+01  0.15525509468E+03  0.18248469062E+03  0.80813691217E+02 0.  0.
         23    2    1    2    0    0 -0.40167413715E+01  0.12131541134E+02 -0.35727858834E+03  0.37008626143E+03  0.95668922373E+02 0.  0.
        -13    1    3    3    0    0 -0.19610330831E+02 -0.25147151139E+02  0.12127417843E+02  0.34117716062E+02  0.00000000000E+00 0.  1.
         14    1    3    3    0    0 -0.31951903756E+02  0.22501180167E+02  0.14312767684E+03  0.14836697456E+03  0.00000000000E+00 0. -1.
        -13    1    4    4    0    0 -0.47386454741E+02  0.14676045379E+02 -0.14058407888E+03  0.14907966205E+03  0.00000000000E+00 0. -1.
         13    1    4    4    0    0  0.43369713370E+02 -0.25445042451E+01 -0.21669450946E+03  0.22100659938E+03  0.00000000000E+00 0.  1.
         21    1    1    2  503  502 -0.30823405034E+01  0.21301692297E+02 -0.22406651476E+02  0.31069614547E+02  0.00000000000E+00 0.  1.
          1    1    1    2  501    0  0.58661316462E+02 -0.30787262459E+02 -0.16867745526E+03  0.18122110664E+03  0.00000000000E+00 0. -1.
<scales pt_clust_5="13000.00000" pt_clust_6="13000.00000" pt_clust_7="13000.00000" pt_clust_8="13000.00000" pt_clust_9="21.52354" pt_clust_10="13000.00000"></scales>
<clustering>
<clus scale="   21.524">  2  9  1 -1</clus>
<clus scale="   80.814">  5  6 -1 -1</clus>
<clus scale="   95.669">  7  8 -1 -1</clus>
<clus scale="   62.493">  7 10 -1 -1</clus>
<clus scale="   95.926">  1  5  2 -1</clus>
<clus scale="   21.524">  2  5  1 -1</clus>
</clustering>
</event>
<event>
10    4  0.2866397E-005  0.3797279E+03  0.7546771E-02  0.1065762E+00
          2   -1    0    0  503    0 -0.00000000000E+00  0.00000000000E+00  0.16899116274E+04  0.16899116274E+04  0.00000000000E+00 0. -1.
         21   -1    0    0  501  502  0.00000000000E+00 -0.00000000000E+00 -0.47503914708E+03  0.47503914708E+03  0.00000000000E+00 0. -1.
         24    2    1    2    0    0 -0.10937963134E+03  0.21377585921E+03  0.11111675059E+04  0.11391941021E+04  0.73525194964E+02 0.  0.
         23    2    1    2    0    0  0.69098785748E+02 -0.49708208273E+01  0.58589866169E+02  0.12612685246E+03  0.87611981154E+02 0.  0.
        -11    1    3    3    0    0 -0.31420743738E+02  0.10244934611E+03  0.63631217807E+03  0.64527228332E+03  0.00000000000E+00 0.  1.
         12    1    3    3    0    0 -0.77958887601E+02  0.11132651309E+03  0.47485532782E+03  0.49392181874E+03  0.00000000000E+00 0. -1.
        -11    1    4    4    0    0  0.47368715247E+02  0.15869967713E+02 -0.10244068640E+02  0.50995999859E+02  0.00000000000E+00 0. -1.
         11    1    4    4    0    0  0.21730070502E+02 -0.20840788540E+02  0.68833934809E+02  0.75130852599E+02  0.00000000000E+00 0.  1.
         21    1    1    2  503  502 -0.26605327319E+03  0.76035832523E+02 -0.26171052273E+03  0.38086505447E+03  0.00000000000E+00 0. -1.
          1    1    1    2  501    0  0.30633411878E+03 -0.28484087090E+03  0.30682563097E+03  0.51876476546E+03  0.00000000000E+00 0. -1.
<scales pt_clust_5="13000.00000" pt_clust_6="13000.00000" pt_clust_7="13000.00000" pt_clust_8="13000.00000" pt_clust_9="294.57982" pt_clust_10="13000.00000"></scales>
<clustering>
<clus scale="   73.525">  5  6 -1 -1</clus>
<clus scale="   87.612">  7  8 -1 -1</clus>
<clus scale="  251.137">  1  5  2 -1</clus>
<clus scale="  260.349">  7 10 -1 -1</clus>
<clus scale="  294.580">  2  9  1 -1</clus>
<clus scale="  294.580">  2  5  1 -1</clus>
</clustering>
</event>
<event>
10    4  0.2866397E-005  0.1968557E+03  0.7546771E-02  0.1165910E+00
          2   -1    0    0  503    0 -0.00000000000E+00  0.00000000000E+00  0.70810404694E+03  0.70810404694E+03  0.00000000000E+00 0. -1.
         21   -1    0    0  501  502  0.00000000000E+00 -0.00000000000E+00 -0.11385264867E+03  0.11385264867E+03  0.00000000000E+00 0. -1.
         24    2    1    2    0    0 -0.15903145738E+02 -0.14597279153E+03  0.46967704702E+03  0.49826149342E+03  0.78147433883E+02 0.  0.
         23    2    1    2    0    0  0.11410834585E+02 -0.14385367587E+02  0.82952940634E+02  0.12530692075E+03  0.92105852592E+02 0.  0.
        -11    1    3    3    0    0 -0.22186136943E+02 -0.44203611264E+02  0.69520259303E+02  0.85318523046E+02  0.00000000000E+00 0.  1.
         12    1    3    3    0    0  0.62829912044E+01 -0.10176918027E+03  0.40015678771E+03  0.41294297038E+03  0.00000000000E+00 0. -1.
        -11    1    4    4    0    0 -0.38005100907E+02  0.92025153234E+00  0.53952311440E+02  0.66000655054E+02  0.00000000000E+00 0.  1.
         11    1    4    4    0    0  0.49415935492E+02 -0.15305619120E+02  0.29000629194E+02  0.59306265697E+02  0.00000000000E+00 0. -1.
         21    1    1    2  503  502  0.17267297048E+02  0.90437503363E+02 -0.30633058350E+02  0.97033426332E+02  0.00000000000E+00 0. -1.
          1    1    1    2  501    0 -0.12774985895E+02  0.69920655758E+02  0.72254468976E+02  0.10135485510E+03  0.00000000000E+00 0. -1.
<scales pt_clust_5="13000.00000" pt_clust_6="13000.00000" pt_clust_7="13000.00000" pt_clust_8="13000.00000" pt_clust_9="92.07118" pt_clust_10="13000.00000"></scales>
<clustering>
<clus scale="   78.147">  5  6 -1 -1</clus>
<clus scale="   92.071">  2  9  1 -1</clus>
<clus scale="   92.106">  7  8 -1 -1</clus>
<clus scale="   96.540">  7 10 -1 -1</clus>
<clus scale="  143.732">  1  5  2 -1</clus>
<clus scale="   92.071">  2  5  1 -1</clus>
</clustering>
</event>
<event>
10    4  0.2866397E-005  0.2701460E+03  0.7546771E-02  0.1148941E+00
          2   -1    0    0  503    0 -0.00000000000E+00  0.00000000000E+00  0.14634461606E+04  0.14634461606E+04  0.00000000000E+00 0. -1.
         21   -1    0    0  501  502  0.00000000000E+00 -0.00000000000E+00 -0.59183045030E+02  0.59183045030E+02  0.00000000000E+00 0. -1.
         24    2    1    2    0    0  0.98488514494E+01  0.12185024677E+02  0.64161470780E+03  0.64692342319E+03  0.81209651497E+02 0.  0.
         23    2    1    2    0    0  0.88780561674E+02 -0.55677252103E+02  0.15223432953E+03  0.21480310290E+03  0.10946751754E+03 0.  0.
        -13    1    3    3    0    0  0.41141423514E+02  0.59832479110E+01  0.20665438509E+03  0.21079480748E+03  0.00000000000E+00 0.  1.
         14    1    3    3    0    0 -0.31292572065E+02  0.62017767662E+01  0.43496032271E+03  0.43612861570E+03  0.00000000000E+00 0. -1.
        -11    1    4    4    0    0 -0.20646107531E+02  0.66857975976E+01  0.75489457617E+01  0.22977124011E+02  0.00000000000E+00 0.  1.
         11    1    4    4    0    0  0.10942666921E+03 -0.62363049700E+02  0.14468538377E+03  0.19182597889E+03  0.00000000000E+00 0. -1.
         21    1    1    2  503  502 -0.53027742549E+02  0.13830745481E+03  0.36050886377E+03  0.38975317111E+03  0.00000000000E+00 0. -1.
          1    1    1    2  501    0 -0.45601670575E+02 -0.94815227384E+02  0.24990521447E+03  0.27114950843E+03  0.00000000000E+00 0. -1.
<scales pt_clust_5="13000.00000" pt_clust_6="13000.00000" pt_clust_7="13000.00000" pt_clust_8="13000.00000" pt_clust_9="151.84719" pt_clust_10="13000.00000"></scales>
<clustering>
<clus scale="   81.210">  5  6 -1 -1</clus>
<clus scale="   82.707">  1  5  2 -1</clus>
<clus scale="  109.468">  7  8 -1 -1</clus>
<clus scale="  100.368">  7 10 -1 -1</clus>
<clus scale="  151.847">  2  9  1 -1</clus>
<clus scale="  151.847">  2  5  1 -1</clus>
</clustering>
</event>
<event>
10    4  0.2866397E-005  0.2699456E+03  0.7546771E-02  0.1143394E+00
          4   -1    0    0  503    0 -0.00000000000E+00  0.00000000000E+00  0.22011581030E+03  0.22011581030E+03  0.00000000000E+00 0. -1.
         21   -1    0    0  501  502  0.00000000000E+00 -0.00000000000E+00 -0.19826982177E+03  0.19826982177E+03  0.00000000000E+00 0.  1.
         24    2    1    2    0    0 -0.55998627850E+02 -0.17717866634E+02 -0.29979613110E+02  0.10376155127E+03  0.80111879270E+02 0.  0.
         23    2    1    2    0    0 -0.80817295391E+02 -0.21923387222E+02 -0.37512530079E+02  0.12842598050E+03  0.89855285942E+02 0.  0.
        -13    1    3    3    0    0 -0.45126172133E+01  0.26668980381E+02  0.46922429812E+01  0.27452055895E+02  0.00000000000E+00 0.  1.
         14    1    3    3    0    0 -0.51486010636E+02 -0.44386847015E+02 -0.34671856091E+02  0.76309495373E+02  0.00000000000E+00 0. -1.
        -13    1    4    4    0    0  0.69453583664E+01  0.20767207155E+02  0.41891472297E+01  0.22294928804E+02  0.00000000000E+00 0. -1.
         13    1    4    4    0    0 -0.87762653758E+02 -0.42690594377E+02 -0.41701677309E+02  0.10613105169E+03  0.00000000000E+00 0.  1.
         21    1    1    2  503  502  0.15881973821E+02  0.37764623111E+02  0.12205616416E+02  0.42747876243E+02  0.00000000000E+00 0.  1.
          3    1    1    2  501    0  0.12093394942E+03  0.18766307457E+01  0.77132515304E+02  0.14345022406E+03  0.00000000000E+00 0. -1.
<scales pt_clust_5="13000.00000" pt_clust_6="13000.00000" pt_clust_7="13000.00000" pt_clust_8="13000.00000" pt_clust_9="40.96835" pt_clust_10="13000.00000"></scales>
<clustering>
<clus scale="   40.968">  2  9  1 -1</clus>
<clus scale="   80.112">  5  6 -1 -1</clus>
<clus scale="   89.855">  7  8 -1 -1</clus>
<clus scale="   94.619">  1  5  2 -1</clus>
<clus scale="   89.906">  7 10 -1 -1</clus>
<clus scale="   40.968">  2  5  1 -1</clus>
</clustering>
</event>
<event>
10    4  0.2866397E-005  0.1662549E+03  0.7546771E-02  0.1214179E+00
         21   -1    0    0  503  502  0.00000000000E+00  0.00000000000E+00  0.14749810089E+03  0.14749810089E+03  0.00000000000E+00 0. -1.
          2   -1    0    0  502    0 -0.00000000000E+00 -0.00000000000E+00 -0.18034852170E+03  0.18034852170E+03  0.00000000000E+00 0. -1.
         24    2    1    2    0    0 -0.12647828138E+02  0.12527754742E+01 -0.23629038404E+02  0.84826642343E+02  0.80471676958E+02 0.  0.
         23    2    1    2    0    0  0.19519484359E+02 -0.68600366580E+02 -0.45317568000E+02  0.13690673830E+03  0.10771607335E+03 0.  0.
        -13    1    3    3    0    0  0.10609428432E+02 -0.30799971526E+02  0.86853978310E+01  0.33714008263E+02  0.00000000000E+00 0.  1.
         14    1    3    3    0    0 -0.23257256570E+02  0.32052747001E+02 -0.32314436235E+02  0.51112634080E+02  0.00000000000E+00 0. -1.
        -13    1    4    4    0    0 -0.15407982913E+02 -0.46172415439E+02 -0.72475010600E+02  0.87303637074E+02  0.00000000000E+00 0. -1.
         13    1    4    4    0    0  0.34927467272E+02 -0.22427951141E+02  0.27157442600E+02  0.49603101224E+02  0.00000000000E+00 0.  1.
         21    1    1    2  503  501  0.30535042709E+01  0.29489746548E+02  0.55127563388E+02  0.62594067490E+02  0.00000000000E+00 0. -1.
          1    1    1    2  501    0 -0.99251604913E+01  0.37857844558E+02 -0.19031377789E+02  0.43519174463E+02  0.00000000000E+00 0. -1.
<scales pt_clust_5="13000.00000" pt_clust_6="13000.00000" pt_clust_7="13000.00000" pt_clust_8="13000.00000" pt_clust_9="29.64741" pt_clust_10="13000.00000"></scales>
<clustering>
<clus scale="   29.647">  1  9  2 -1</clus>
<clus scale="   80.472">  5  6 -1 -1</clus>
<clus scale="   82.103">  2  5  1 -1</clus>
<clus scale="  107.716">  7  8 -1 -1</clus>
<clus scale="   47.396">  7 10 -1 -1</clus>
<clus scale="   29.647">  1  5  2 -1</clus>
</clustering>
</event>
<event>
10    4  0.2866397E-005  0.1318182E+03  0.7546771E-02  0.1248091E+00
         21   -1    0    0  501  502  0.00000000000E+00  0.00000000000E+00  0.83005917780E+02  0.83005917780E+02  0.00000000000E+00 0.  1.
          2   -1    0    0  503    0 -0.00000000000E+00 -0.00000000000E+00 -0.37275722333E+03  0.37275722333E+03  0.00000000000E+00 0. -1.
         24    2    1    2    0    0 -0.63882229362E+01  0.32157201746E+02 -0.26602570932E+03  0.27877372821E+03  0.76617351197E+02 0.  0.
         23    2    1    2    0    0  0.29911865691E+02 -0.60981358327E+01 -0.84822855756E+01  0.95186525066E+02  0.89758667636E+02 0.  0.
        -11    1    3    3    0    0  0.48501346054E+00 -0.24504475772E+02 -0.55961503817E+02  0.61093325989E+02  0.00000000000E+00 0.  1.
         12    1    3    3    0    0 -0.68732363967E+01  0.56661677517E+02 -0.21006420550E+03  0.21768040222E+03  0.00000000000E+00 0. -1.
        -11    1    4    4    0    0 -0.11795157953E+02  0.26081535043E+02 -0.26998909824E+02  0.39348613102E+02  0.00000000000E+00 0. -1.
         11    1    4    4    0    0  0.41707023644E+02 -0.32179670876E+02  0.18516624249E+02  0.55837911964E+02  0.00000000000E+00 0.  1.
         21    1    1    2  503  502 -0.50084303302E+01 -0.34069660832E+02  0.20992338678E+02  0.40329944790E+02  0.00000000000E+00 0.  1.
          1    1    1    2  501    0 -0.18515212425E+02  0.80105949190E+01 -0.36235649327E+02  0.41472943038E+02  0.00000000000E+00 0. -1.
<scales pt_clust_5="13000.00000" pt_clust_6="13000.00000" pt_clust_7="13000.00000" pt_clust_8="13000.00000" pt_clust_9="34.43583" pt_clust_10="13000.00000"></scales>
<clustering>
<clus scale="   34.436">  1  9  2 -1</clus>
<clus scale="   76.617">  5  6 -1 -1</clus>
<clus scale="   81.876">  2  5  1 -1</clus>
<clus scale="   89.759">  7  8 -1 -1</clus>
<clus scale="   26.895">  7 10 -1 -1</clus>
<clus scale="   34.436">  1  5  2 -1</clus>
</clustering>
</event>
<event>
10    4  0.2866397E-005  0.5368702E+03  0.7546771E-02  0.1052318E+00
         21   -1    0    0  503  502  0.00000000000E+00  0.00000000000E+00  0.77894882119E+03  0.77894882119E+03  0.00000000000E+00 0. -1.
          2   -1    0    0  502    0 -0.00000000000E+00 -0.00000000000E+00 -0.17182786191E+03  0.17182786191E+03  0.00000000000E+00 0. -1.
         24    2    1    2    0    0  0.69333009901E+01 -0.10651398015E+03  0.11016140033E+03  0.17259021921E+03  0.79111004381E+02 0.  0.
         23    2    1    2    0    0  0.23779434215E+03 -0.14910216572E+02  0.82153897728E+02  0.26793796805E+03  0.90956187753E+02 0.  0.
        -11    1    3    3    0    0  0.23620096550E+02 -0.40977130689E+02  0.90579280457E+02  0.10218434444E+03  0.00000000000E+00 0.  1.
         12    1    3    3    0    0 -0.16686795560E+02 -0.65536849459E+02  0.19582119871E+02  0.70405874767E+02  0.00000000000E+00 0. -1.
        -13    1    4    4    0    0  0.11182471673E+02 -0.20565438724E+02  0.24819207638E+02  0.34117121953E+02  0.00000000000E+00 0.  1.
         13    1    4    4    0    0  0.22661187048E+03  0.56552221514E+01  0.57334690090E+02  0.23382084609E+03  0.00000000000E+00 0. -1.
         21    1    1    2  503  501 -0.16491062214E+02  0.18406859255E+02  0.12421869894E+03  0.12665327776E+03  0.00000000000E+00 0. -1.
          1    1    1    2  501    0 -0.22823658093E+03  0.10301733747E+03  0.29058696228E+03  0.38359521809E+03  0.00000000000E+00 0. -1.
<scales pt_clust_5="13000.00000" pt_clust_6="13000.00000" pt_clust_7="13000.00000" pt_clust_8="13000.00000" pt_clust_9="24.71371" pt_clust_10="13000.00000"></scales>
<clustering>
<clus scale="   24.714">  1  9  2 -1</clus>
<clus scale="   79.111">  5  6 -1 -1</clus>
<clus scale="   90.956">  7  8 -1 -1</clus>
<clus scale="  129.548">  2  5  1 -1</clus>
<clus scale="  247.227">  7 10 -1 -1</clus>
<clus scale="   24.714">  1  5  2 -1</clus>
</clustering>
</event>
<event>
10    4  0.2866397E-005  0.2634183E+03  0.7546771E-02  0.1112735E+00
          2   -1    0    0  502    0 -0.00000000000E+00  0.00000000000E+00  0.12399610692E+04  0.12399610692E+04  0.00000000000E+00 0. -1.
         21   -1    0    0  503  502  0.00000000000E+00 -0.00000000000E+00 -0.11460383647E+03  0.11460383647E+03  0.00000000000E+00 0. -1.
         24    2    1    2    0    0 -0.29085372197E+02 -0.19892449971E+03  0.43651477206E+03  0.48739510883E+03  0.81190704042E+02 0.  0.
         23    2    1    2    0    0 -0.59093107310E+02  0.14881010305E+02  0.15574288525E+03  0.19173464287E+03  0.93770396021E+02 0.  0.
        -11    1    3    3    0    0 -0.54107957818E+02 -0.89654630379E+02  0.21068606439E+03  0.23527482138E+03  0.00000000000E+00 0.  1.
         12    1    3    3    0    0  0.25022585621E+02 -0.10926986933E+03  0.22582870766E+03  0.25212028744E+03  0.00000000000E+00 0. -1.
        -11    1    4    4    0    0 -0.43462140459E+02  0.40169975359E+02  0.38082912552E+02  0.70376791644E+02  0.00000000000E+00 0. -1.
         11    1    4    4    0    0 -0.15630966851E+02 -0.25288965054E+02  0.11765997270E+03  0.12135785122E+03  0.00000000000E+00 0.  1.
         21    1    1    2  503  501  0.20315519431E+03  0.92946495013E+02  0.16074453275E+03  0.27522697673E+03  0.00000000000E+00 0. -1.
          1    1    1    2  501    0 -0.11497671480E+03  0.91096994396E+02  0.37235504272E+03  0.40020817730E+03  0.00000000000E+00 0. -1.
<scales pt_clust_5="13000.00000" pt_clust_6="13000.00000" pt_clust_7="13000.00000" pt_clust_8="13000.00000" pt_clust_9="198.52442" pt_clust_10="13000.00000"></scales>
<clustering>
<clus scale="   81.191">  5  6 -1 -1</clus>
<clus scale="   93.770">  7  8 -1 -1</clus>
<clus scale="  146.691">  7 10 -1 -1</clus>
<clus scale="  216.815">  1  5  2 -1</clus>
<clus scale="  198.524">  2  9  1 -1</clus>
<clus scale="  198.524">  2  5  1 -1</clus>
</clustering>
</event>
<event>
10    4  0.2866397E-005  0.3070567E+03  0.7546771E-02  0.1134069E+00
          4   -1    0    0  503    0 -0.00000000000E+00  0.00000000000E+00  0.43254867200E+03  0.43254867200E+03  0.00000000000E+00 0. -1.
         21   -1    0    0  501  502  0.00000000000E+00 -0.00000000000E+00 -0.12479475469E+03  0.12479475469E+03  0.00000000000E+00 0. -1.
         24    2    1    2    0    0  0.14887165812E+02 -0.87445194024E+01  0.35406123880E+02  0.87117281585E+02  0.77702849479E+02 0.  0.
         23    2    1    2    0    0  0.76134138500E+02 -0.68773934166E+02  0.24754350180E+03  0.28278122948E+03  0.90339235096E+02 0.  0.
        -13    1    3    3    0    0 -0.17087798007E+01  0.26340699360E+02  0.40114854545E+02  0.48020349086E+02  0.00000000000E+00 0.  1.
         14    1    3    3    0    0  0.16595945612E+02 -0.35085218763E+02 -0.47087306652E+01  0.39096932499E+02  0.00000000000E+00 0. -1.
        -11    1    4    4    0    0  0.23772109828E+02 -0.64601781172E+02  0.72275323827E+02  0.99810950154E+02  0.00000000000E+00 0.  1.
         11    1    4    4    0    0  0.52362028672E+02 -0.41721529936E+01  0.17526817797E+03  0.18297027932E+03  0.00000000000E+00 0. -1.
         21    1    1    2  503  502 -0.21124946278E+02 -0.37723729039E+02 -0.16803646142E+02  0.46386480913E+02  0.00000000000E+00 0. -1.
          3    1    1    2  501    0 -0.69896358034E+02  0.11524218261E+03  0.41607937774E+02  0.14105843471E+03  0.00000000000E+00 0. -1.
<scales pt_clust_5="13000.00000" pt_clust_6="13000.00000" pt_clust_7="13000.00000" pt_clust_8="13000.00000" pt_clust_9="43.23590" pt_clust_10="13000.00000"></scales>
<clustering>
<clus scale="   43.236">  2  9  1 -1</clus>
<clus scale="   77.703">  5  6 -1 -1</clus>
<clus scale="   80.550">  1  5  2 -1</clus>
<clus scale="   90.339">  7  8 -1 -1</clus>
<clus scale="  120.077">  7 10 -1 -1</clus>
<clus scale="   43.236">  2  5  1 -1</clus>
</clustering>
</event>
<event>
10    4  0.2866397E-005  0.3272918E+03  0.7546771E-02  0.1104977E+00
         21   -1    0    0  501  502  0.00000000000E+00  0.00000000000E+00  0.13118797612E+03  0.13118797612E+03  0.00000000000E+00 0. -1.
         -3   -1    0    0    0  501 -0.00000000000E+00 -0.00000000000E+00 -0.49551937130E+03  0.49551937130E+03  0.00000000000E+00 0.  1.
         24    2    1    2    0    0 -0.89990905897E+02 -0.60815587246E+02 -0.71199280336E+02  0.16132663220E+03  0.95708128921E+02 0.  0.
         23    2    1    2    0    0 -0.53323112989E+01  0.12040410667E+03 -0.37434310983E+02  0.15588256338E+03  0.91501166554E+02 0.  0.
        -11    1    3    3    0    0 -0.74502724058E+01 -0.34419174816E+02 -0.65639483968E+02  0.74489784599E+02  0.00000000000E+00 0.  1.
         12    1    3    3    0    0 -0.82540633491E+02 -0.26396412430E+02 -0.55597963675E+01  0.86836847605E+02  0.00000000000E+00 0. -1.
        -11    1    4    4    0    0 -0.31215164069E+02  0.17474779699E+02 -0.34513710621E+02  0.49708657336E+02  0.00000000000E+00 0.  1.
         11    1    4    4    0    0  0.25882852770E+02  0.10292932698E+03 -0.29206003626E+01  0.10617390605E+03  0.00000000000E+00 0. -1.
         21    1    1    2  503  502  0.15992652162E+02  0.20106341558E+02  0.44629453489E+01  0.26075808237E+02  0.00000000000E+00 0. -1.
         -4    1    1    2    0  503  0.79330565034E+02 -0.79694860987E+02 -0.26016074922E+03  0.28342234359E+03  0.00000000000E+00 0.  1.
<scales pt_clust_5="13000.00000" pt_clust_6="13000.00000" pt_clust_7="13000.00000" pt_clust_8="13000.00000" pt_clust_9="25.69105" pt_clust_10="13000.00000"></scales>
<clustering>
<clus scale="   25.691">  1  9  2 -1</clus>
<clus scale="   91.501">  7  8 -1 -1</clus>
<clus scale="   95.708">  5  6 -1 -1</clus>
<clus scale="  112.180">  7 10 -1 -1</clus>
<clus scale="  137.793">  2  5  1 -1</clus>
<clus scale="   25.691">  1  5  2 -1</clus>
</clustering>
</event>
<event>
10    4  0.2866397E-005  0.6157703E+03  0.7546771E-02  0.9959956E-01
         21   -1    0    0  501  502  0.00000000000E+00  0.00000000000E+00  0.41337816905E+03  0.41337816905E+03  0.00000000000E+00 0. -1.
          2   -1    0    0  503    0 -0.00000000000E+00 -0.00000000000E+00 -0.90119955353E+03  0.90119955353E+03  0.00000000000E+00 0. -1.
         24    2    1    2    0    0 -0.35496884787E+03 -0.26522637789E+03 -0.37182271047E+03  0.58393596885E+03  0.79882245889E+02 0.  0.
         23    2    1    2    0    0  0.37045728386E+03  0.82509642347E+02  0.62939726525E+02  0.39551974904E+03  0.91804261661E+02 0.  0.
        -13    1    3    3    0    0 -0.50992693977E+02 -0.67301613553E+02 -0.44976429716E+02  0.95669437418E+02  0.00000000000E+00 0.  1.
         14    1    3    3    0    0 -0.30397615389E+03 -0.19792476433E+03 -0.32684628075E+03  0.48826653143E+03  0.00000000000E+00 0. -1.
        -11    1    4    4    0    0  0.24895241237E+03  0.68864690562E+02  0.83651760636E+02  0.27150923794E+03  0.00000000000E+00 0. -1.
         11    1    4    4    0    0  0.12150487149E+03  0.13644951784E+02 -0.20712034110E+02  0.12401051110E+03  0.00000000000E+00 0.  1.
         21    1    1    2  503  502 -0.49052887291E+02 -0.36467744842E+02 -0.46939723755E+02  0.77067631542E+02  0.00000000000E+00 0.  1.
          1    1    1    2  501    0  0.33564451302E+02  0.21918448038E+03 -0.13199867678E+03  0.25805437315E+03  0.00000000000E+00 0. -1.
<scales pt_clust_5="13000.00000" pt_clust_6="13000.00000" pt_clust_7="13000.00000" pt_clust_8="13000.00000" pt_clust_9="61.12353" pt_clust_10="13000.00000"></scales>
<clustering>
<clus scale="   61.124">  1  9  2 -1</clus>
<clus scale="   79.882">  5  6 -1 -1</clus>
<clus scale="   91.804">  7  8 -1 -1</clus>
<clus scale="  214.968">  7 10 -1 -1</clus>
<clus scale="  466.280">  2  5  1 -1</clus>
<clus scale="   61.124">  1  5  2 -1</clus>
</clustering>
</event>
<event>
10    4  0.2866397E-005  0.3305495E+03  0.7546771E-02  0.1108615E+00
         21   -1    0    0  501  502  0.00000000000E+00  0.00000000000E+00  0.75581784650E+02  0.75581784650E+02  0.00000000000E+00 0.  1.
          2   -1    0    0  503    0 -0.00000000000E+00 -0.00000000000E+00 -0.77499152046E+03  0.77499152046E+03  0.00000000000E+00 0. -1.
         24    2    1    2    0    0 -0.10420124198E+03  0.25278585712E+02 -0.22766352616E+03  0.26094575871E+03  0.69029719120E+02 0.  0.
         23    2    1    2    0    0 -0.35497913336E+02  0.78696383084E+02 -0.60510291587E+02  0.13962974720E+03  0.91551888859E+02 0.  0.
        -13    1    3    3    0    0 -0.85445916774E+02  0.44458790671E+02 -0.20214912784E+03  0.22392377865E+03  0.00000000000E+00 0.  1.
         14    1    3    3    0    0 -0.18755325204E+02 -0.19180204959E+02 -0.25514398322E+02  0.37021980059E+02  0.00000000000E+00 0. -1.
        -11    1    4    4    0    0  0.28215567488E+02  0.54356530251E+01 -0.13001653100E+02  0.31538984698E+02  0.00000000000E+00 0. -1.
         11    1    4    4    0    0 -0.63713480824E+02  0.73260730059E+02 -0.47508638487E+02  0.10809076250E+03  0.00000000000E+00 0.  1.
         21    1    1    2  503  502  0.29013733032E+02 -0.31085643177E+01 -0.38529064523E+02  0.48331653081E+02  0.00000000000E+00 0. -1.
          1    1    1    2  501    0  0.11068542228E+03 -0.10086640448E+03 -0.37270685355E+03  0.40166614612E+03  0.00000000000E+00 0. -1.
<scales pt_clust_5="13000.00000" pt_clust_6="13000.00000" pt_clust_7="13000.00000" pt_clust_8="13000.00000" pt_clust_9="29.17979" pt_clust_10="13000.00000"></scales>
<clustering>
<clus scale="   29.180">  1  9  2 -1</clus>
<clus scale="   69.030">  5  6 -1 -1</clus>
<clus scale="   91.552">  7  8 -1 -1</clus>
<clus scale="  121.855">  2  5  1 -1</clus>
<clus scale="   92.268">  7 10 -1 -1</clus>
<clus scale="   29.180">  1  5  2 -1</clus>
</clustering>
</event>
<event>
10    4  0.2866397E-005  0.2197838E+03  0.7546771E-02  0.1142764E+00
          2   -1    0    0  502    0 -0.00000000000E+00  0.00000000000E+00  0.10365126752E+04  0.10365126752E+04  0.00000000000E+00 0. -1.
         21   -1    0    0  503  502  0.00000000000E+00 -0.00000000000E+00 -0.36511925297E+03  0.36511925297E+03  0.00000000000E+00 0. -1.
         24    2    1    2    0    0  0.15695896420E+03  0.54802858610E+01  0.89699572996E+03  0.91418095353E+03  0.80369933680E+02 0.  0.
         23    2    1    2    0    0 -0.94027009877E+02 -0.67676638981E+00 -0.33143266943E+02  0.13246348797E+03  0.87215611576E+02 0.  0.
        -13    1    3    3    0    0  0.56950635368E+02 -0.30051943220E+02  0.23206383070E+03  0.24083213175E+03  0.00000000000E+00 0.  1.
         14    1    3    3    0    0  0.10000832883E+03  0.35532229081E+02  0.66493189926E+03  0.67334882178E+03  0.00000000000E+00 0. -1.
        -11    1    4    4    0    0 -0.74361901043E+02 -0.34265037069E+02 -0.42762199530E+02  0.92370941322E+02  0.00000000000E+00 0. -1.
         11    1    4    4    0    0 -0.19665108833E+02  0.33588270680E+02  0.96189325863E+01  0.40092546649E+02  0.00000000000E+00 0.  1.
         21    1    1    2  503  501  0.22894601845E+02  0.25447385144E+02 -0.24668899338E+03  0.24905258814E+03  0.00000000000E+00 0. -1.
          1    1    1    2  501    0 -0.85826556171E+02 -0.30250904615E+02  0.54229952625E+02  0.10593489857E+03  0.00000000000E+00 0. -1.
<scales pt_clust_5="13000.00000" pt_clust_6="13000.00000" pt_clust_7="13000.00000" pt_clust_8="13000.00000" pt_clust_9="34.23057" pt_clust_10="13000.00000"></scales>
<clustering>
<clus scale="   34.231">  2  9  1 -1</clus>
<clus scale="   80.370">  5  6 -1 -1</clus>
<clus scale="   87.216">  7  8 -1 -1</clus>
<clus scale="   84.453">  7 10 -1 -1</clus>
<clus scale="  177.986">  1  5  2 -1</clus>
<clus scale="   34.231">  2  5  1 -1</clus>
</clustering>
</event>
<event>
10    4  0.2866397E-005  0.3099244E+03  0.7546771E-02  0.1109087E+00
         21   -1    0    0  503  502  0.00000000000E+00  0.00000000000E+00  0.18118054985E+03  0.18118054985E+03  0.00000000000E+00 0. -1.
          2   -1    0    0  502    0 -0.00000000000E+00 -0.00000000000E+00 -0.37361175975E+03  0.37361175975E+03  0.00000000000E+00 0. -1.
         24    2    1    2    0    0 -0.65251434151E+02 -0.10955106966E+03 -0.15761484291E+03  0.21802762511E+03  0.80214837042E+02 0.  0.
         23    2    1    2    0    0 -0.78116717279E+02 -0.30488163406E+02 -0.48704729989E+00  0.12893218582E+03  0.97936314501E+02 0.  0.
        -11    1    3    3    0    0 -0.65444957660E+02 -0.34847196091E+02 -0.95299277696E+02  0.12074486278E+03  0.00000000000E+00 0.  1.
         12    1    3    3    0    0  0.19352350929E+00 -0.74703873574E+02 -0.62315565216E+02  0.97282762330E+02  0.00000000000E+00 0. -1.
        -13    1    4    4    0    0 -0.56503087571E+01 -0.20229294027E+02 -0.40424810456E+02  0.45555632212E+02  0.00000000000E+00 0.  1.
         13    1    4    4    0    0 -0.72466408522E+02 -0.10258869379E+02  0.39937763156E+02  0.83376553604E+02  0.00000000000E+00 0. -1.
         21    1    1    2  503  501  0.22200278874E+02  0.20430122991E+02  0.10198818598E+02  0.31847420748E+02  0.00000000000E+00 0. -1.
          1    1    1    2  501    0  0.12116787256E+03  0.11960911008E+03 -0.44528138283E+02  0.17598507793E+03  0.00000000000E+00 0. -1.
<scales pt_clust_5="13000.00000" pt_clust_6="13000.00000" pt_clust_7="13000.00000" pt_clust_8="13000.00000" pt_clust_9="30.17022" pt_clust_10="13000.00000"></scales>
<clustering>
<clus scale="   30.170">  1  9  2 -1</clus>
<clus scale="   80.215">  5  6 -1 -1</clus>
<clus scale="   97.936">  7  8 -1 -1</clus>
<clus scale="  146.066">  2  5  1 -1</clus>
<clus scale="  106.571">  7 10 -1 -1</clus>
<clus scale="   30.170">  1  5  2 -1</clus>
</clustering>
</event>
<event>
10    4  0.2866397E-005  0.3312460E+03  0.7546771E-02  0.1123190E+00
         21   -1    0    0  501  502  0.00000000000E+00  0.00000000000E+00  0.16925674481E+03  0.16925674481E+03  0.00000000000E+00 0. -1.
          2   -1    0    0  503    0 -0.00000000000E+00 -0.00000000000E+00 -0.45911425810E+03  0.45911425810E+03  0.00000000000E+00 0. -1.
         24    2    1    2    0    0 -0.45703193611E+01 -0.19507612389E+02 -0.21025749552E+03  0.22628482064E+03  0.81210657371E+02 0.  0.
         23    2    1    2    0    0  0.92913141247E+02 -0.83348498549E+02  0.26406570076E+02  0.15646412110E+03  0.90575328990E+02 0.  0.
        -13    1    3    3    0    0 -0.99011463219E+01 -0.45559455530E+02 -0.18028772760E+03  0.18621858502E+03  0.00000000000E+00 0.  1.
         14    1    3    3    0    0  0.53308269608E+01  0.26051843141E+02 -0.29969767919E+02  0.40066235613E+02  0.00000000000E+00 0. -1.
        -13    1    4    4    0    0  0.19431383248E+02 -0.36408327925E+02 -0.31392527370E+02  0.51852056583E+02  0.00000000000E+00 0.  1.
         13    1    4    4    0    0  0.73481757999E+02 -0.46940170624E+02  0.57799097446E+02  0.10461206452E+03  0.00000000000E+00 0. -1.
         21    1    1    2  503  502 -0.20276087131E+02 -0.91977094181E+01  0.42220961479E+02  0.47731825401E+02  0.00000000000E+00 0. -1.
          1    1    1    2  501    0 -0.68066734754E+02  0.11205382036E+03 -0.14822754933E+03  0.19789023578E+03  0.00000000000E+00 0. -1.
<scales pt_clust_5="13000.00000" pt_clust_6="13000.00000" pt_clust_7="13000.00000" pt_clust_8="13000.00000" pt_clust_9="22.26472" pt_clust_10="13000.00000"></scales>
<clustering>
<clus scale="   22.265">  1  9  2 -1</clus>
<clus scale="   81.211">  5  6 -1 -1</clus>
<clus scale="   83.867">  2  5  1 -1</clus>
<clus scale="   90.575">  7  8 -1 -1</clus>
<clus scale="  122.312">  7 10 -1 -1</clus>
<clus scale="   22.265">  1  5  2 -1</clus>
</clustering>
</event>
<event>
10    4  0.2866397E-005  0.2096740E+03  0.7546771E-02  0.1170944E+00
         21   -1    0    0  503  502  0.00000000000E+00  0.00000000000E+00  0.23637738453E+03  0.23637738453E+03  0.00000000000E+00 0. -1.
         -1   -1    0    0    0  501 -0.00000000000E+00 -0.00000000000E+00 -0.78279136169E+03  0.78279136169E+03  0.00000000000E+00 0.  1.
         24    2    1    2    0    0 -0.23977452885E+02  0.93858341328E+02 -0.63624410666E+02  0.14067472094E+03  0.79730828379E+02 0.  0.
         23    2    1    2    0    0  0.75225820591E+02  0.24721653082E+02 -0.39822123263E+03  0.41625696893E+03  0.91758541023E+02 0.  0.
        -11    1    3    3    0    0  0.49699658854E-01  0.59696593676E+02 -0.76439173543E+02  0.96987798297E+02  0.00000000000E+00 0.  1.
         12    1    3    3    0    0 -0.24027152543E+02  0.34161747652E+02  0.12814762878E+02  0.43686922638E+02  0.00000000000E+00 0. -1.
        -13    1    4    4    0    0  0.42156328336E+02  0.59051777753E+02 -0.26550182495E+03  0.27523714779E+03  0.00000000000E+00 0.  1.
         13    1    4    4    0    0  0.33069492255E+02 -0.34330124671E+02 -0.13271940769E+03  0.14101982114E+03  0.00000000000E+00 0. -1.
         21    1    1    2  503  501 -0.96976346608E+01 -0.43999434423E+02  0.17931399155E+03  0.18488780899E+03  0.00000000000E+00 0. -1.
         -2    1    1    2    0  502 -0.41550733046E+02 -0.74580559987E+02 -0.26388232541E+03  0.27734924736E+03  0.00000000000E+00 0.  1.
<scales pt_clust_5="13000.00000" pt_clust_6="13000.00000" pt_clust_7="13000.00000" pt_clust_8="13000.00000" pt_clust_9="45.05546" pt_clust_10="13000.00000"></scales>
<clustering>
<clus scale="   45.055">  1  9  2 -1</clus>
<clus scale="   79.731">  5  6 -1 -1</clus>
<clus scale="   91.759">  7  8 -1 -1</clus>
<clus scale="   90.742">  7 10 -1 -1</clus>
<clus scale="  105.979">  2  5  1 -1</clus>
<clus scale="   45.055">  1  5  2 -1</clus>
</clustering>
</event>
<event>
10    4  0.2866397E-005  0.4014672E+03  0.7546771E-02  0.1086609E+00
          2   -1    0    0  502    0 -0.00000000000E+00  0.00000000000E+00  0.12410931844E+04  0.12410931844E+04  0.00000000000E+00 0. -1.
         21   -1    0    0  503  502  0.00000000000E+00 -0.00000000000E+00 -0.64373846943E+02  0.64373846943E+02  0.00000000000E+00 0. -1.
         24    2    1    2    0    0  0.86811344640E+02  0.12732920131E+02  0.34749231754E+03  0.36745676662E+03  0.81087778177E+02 0.  0.
         23    2    1    2    0    0  0.14013669434E+03 -0.70713019209E+01  0.33003606230E+03  0.37127006943E+03  0.96069587370E+02 0.  0.
        -11    1    3    3    0    0  0.54021376818E+02  0.44625631282E+02  0.16385652743E+03  0.17820975760E+03  0.00000000000E+00 0.  1.
         12    1    3    3    0    0  0.32789967822E+02 -0.31892711151E+02  0.18363579011E+03  0.18924700902E+03  0.00000000000E+00 0. -1.
        -13    1    4    4    0    0  0.41796282641E+02  0.11093245046E+02  0.24319461247E+02  0.49612755654E+02  0.00000000000E+00 0.  1.
         13    1    4    4    0    0  0.98340411702E+02 -0.18164546967E+02  0.30571660106E+03  0.32165731377E+03  0.00000000000E+00 0. -1.
         21    1    1    2  503  501  0.41417333594E+01  0.33521582067E+02  0.56435615797E+02  0.65771035798E+02  0.00000000000E+00 0. -1.
          1    1    1    2  501    0 -0.23108977234E+03 -0.39183200278E+02  0.44275534180E+03  0.50096915949E+03  0.00000000000E+00 0. -1.
<scales pt_clust_5="13000.00000" pt_clust_6="13000.00000" pt_clust_7="13000.00000" pt_clust_8="13000.00000" pt_clust_9="33.77648" pt_clust_10="13000.00000"></scales>
<clustering>
<clus scale="   33.776">  2  9  1 -1</clus>
<clus scale="   81.088">  5  6 -1 -1</clus>
<clus scale="   96.070">  7  8 -1 -1</clus>
<clus scale="  120.700">  1  5  2 -1</clus>
<clus scale="  181.275">  7 10 -1 -1</clus>
<clus scale="   33.776">  2  5  1 -1</clus>
</clustering>
</event>
<event>
10    4  0.2866397E-005  0.1674267E+03  0.7546771E-02  0.1210776E+00
          2   -1    0    0  503    0 -0.00000000000E+00  0.00000000000E+00  0.98952073636E+03  0.98952073636E+03  0.00000000000E+00 0. -1.
         21   -1    0    0  501  502  0.00000000000E+00 -0.00000000000E+00 -0.21155156038E+02  0.21155156038E+02  0.00000000000E+00 0.  1.
         24    2    1    2    0    0  0.32380495852E+02 -0.15508387743E+02  0.36480560310E+03  0.37490422567E+03  0.78619614420E+02 0.  0.
         23    2    1    2    0    0 -0.32084884312E+02 -0.20943022037E+02  0.29094724931E+03  0.30917044007E+03  0.97303695500E+02 0.  0.
        -11    1    3    3    0    0  0.13786188354E+02 -0.42447103888E+02  0.12209202999E+03  0.12999338215E+03  0.00000000000E+00 0.  1.
         12    1    3    3    0    0  0.18594307498E+02  0.26938716145E+02  0.24271357311E+03  0.24491084351E+03  0.00000000000E+00 0. -1.
        -13    1    4    4    0    0  0.32697447418E+02 -0.17811585742E+02  0.75658739499E+02  0.84324495355E+02  0.00000000000E+00 0.  1.
         13    1    4    4    0    0 -0.64782331730E+02 -0.31314362947E+01  0.21528850981E+03  0.22484594472E+03  0.00000000000E+00 0. -1.
         21    1    1    2  503  502 -0.13899273746E+02 -0.22439841528E+02  0.44323591915E+02  0.51587954977E+02  0.00000000000E+00 0.  1.
          1    1    1    2  501    0  0.13603662206E+02  0.58891251308E+02  0.26828913600E+03  0.27501327168E+03  0.00000000000E+00 0. -1.
<scales pt_clust_5="13000.00000" pt_clust_6="13000.00000" pt_clust_7="13000.00000" pt_clust_8="13000.00000" pt_clust_9="26.39576" pt_clust_10="13000.00000"></scales>
<clustering>
<clus scale="   26.396">  2  9  1 -1</clus>
<clus scale="   78.620">  5  6 -1 -1</clus>
<clus scale="   86.424">  1  5  2 -1</clus>
<clus scale="   97.304">  7  8 -1 -1</clus>
<clus scale="   50.939">  7 10 -1 -1</clus>
<clus scale="   26.396">  2  5  1 -1</clus>
</clustering>
</event>
<event>
10    4  0.2866397E-005  0.3898934E+03  0.7546771E-02  0.1090137E+00
          2   -1    0    0  502    0 -0.00000000000E+00  0.00000000000E+00  0.59800521918E+03  0.59800521918E+03  0.00000000000E+00 0. -1.
         21   -1    0    0  503  502  0.00000000000E+00 -0.00000000000E+00 -0.26337240942E+03  0.26337240942E+03  0.00000000000E+00 0. -1.
         24    2    1    2    0    0  0.81323775817E+02 -0.23188130557E+02  0.26840492096E+03  0.29254595044E+03  0.79941763907E+02 0.  0.
         23    2    1    2    0    0  0.99628919968E+02  0.17022080181E+02  0.13179288556E+03  0.18912929134E+03  0.90470167734E+02 0.  0.
        -13    1    3    3    0    0  0.83981898111E+02 -0.41826031831E+02  0.24598522036E+03  0.26327002257E+03  0.00000000000E+00 0.  1.
         14    1    3    3    0    0 -0.26581222940E+01  0.18637901274E+02  0.22419700593E+02  0.29275927871E+02  0.00000000000E+00 0. -1.
        -13    1    4    4    0    0  0.92471865839E+02 -0.21333566673E+02  0.78979730487E+02  0.12346645239E+03  0.00000000000E+00 0. -1.
         13    1    4    4    0    0  0.71570541297E+01  0.38355646854E+02  0.52813155078E+02  0.65662838948E+02  0.00000000000E+00 0.  1.
         21    1    1    2  503  501  0.68554537642E+02  0.22688662964E+02 -0.10410316535E+03  0.12669636575E+03  0.00000000000E+00 0. -1.
          1    1    1    2  501    0 -0.24950723343E+03 -0.16522612588E+02  0.38538168584E+02  0.25300602107E+03  0.00000000000E+00 0. -1.
<scales pt_clust_5="13000.00000" pt_clust_6="13000.00000" pt_clust_7="13000.00000" pt_clust_8="13000.00000" pt_clust_9="72.21150" pt_clust_10="13000.00000"></scales>
<clustering>
<clus scale="   72.211">  2  9  1 -1</clus>
<clus scale="   79.942">  5  6 -1 -1</clus>
<clus scale="   90.470">  7  8 -1 -1</clus>
<clus scale="  120.001">  1  5  2 -1</clus>
<clus scale="  169.575">  7 10 -1 -1</clus>
<clus scale="   72.211">  2  5  1 -1</clus>
</clustering>
</event>
<event>
10    4  0.2866397E-005  0.3327400E+03  0.7546771E-02  0.1127243E+00
          2   -1    0    0  503    0 -0.00000000000E+00  0.00000000000E+00  0.10424668658E+04  0.10424668658E+04  0.00000000000E+00 0. -1.
         21   -1    0    0  501  502  0.00000000000E+00 -0.00000000000E+00 -0.48124596761E+02  0.48124596761E+02  0.00000000000E+00 0. -1.
         24    2    1    2    0    0 -0.29655754844E+02 -0.23634832275E+02  0.25577062295E+03  0.26621365966E+03  0.63348495903E+02 0.  0.
         23    2    1    2    0    0 -0.10241605300E+02  0.13339854179E+03  0.14523304512E+03  0.21502770361E+03  0.85112951393E+02 0.  0.
        -11    1    3    3    0    0  0.17081373832E+02 -0.16940649702E+02  0.12215993852E+03  0.12450626299E+03  0.00000000000E+00 0.  1.
         12    1    3    3    0    0 -0.46737128676E+02 -0.66941825730E+01  0.13361068443E+03  0.14170739667E+03  0.00000000000E+00 0. -1.
        -13    1    4    4    0    0 -0.34166621247E+02  0.90363022365E+02  0.13283900459E+03  0.16425296028E+03  0.00000000000E+00 0.  1.
         13    1    4    4    0    0  0.23925015947E+02  0.43035519422E+02  0.12394040528E+02  0.50774743334E+02  0.00000000000E+00 0. -1.
         21    1    1    2  503  502  0.40154096410E+01 -0.29298768312E+02  0.44147494525E+02  0.53137017342E+02  0.00000000000E+00 0. -1.
          1    1    1    2  501    0  0.35881950503E+02 -0.80464941201E+02  0.54919110641E+03  0.55621308192E+03  0.00000000000E+00 0. -1.
<scales pt_clust_5="13000.00000" pt_clust_6="13000.00000" pt_clust_7="13000.00000" pt_clust_8="13000.00000" pt_clust_9="29.57265" pt_clust_10="13000.00000"></scales>
<clustering>
<clus scale="   29.573">  2  9  1 -1</clus>
<clus scale="   63.348">  5  6 -1 -1</clus>
<clus scale="   74.839">  1  5  2 -1</clus>
<clus scale="   85.113">  7  8 -1 -1</clus>
<clus scale="  104.530">  7 10 -1 -1</clus>
<clus scale="   29.573">  2  5  1 -1</clus>
</clustering>
</event>
<event>
10    4  0.2866397E-005  0.1655217E+03  0.7546771E-02  0.1210053E+00
         21   -1    0    0  501  502  0.00000000000E+00  0.00000000000E+00  0.21891424698E+03  0.21891424698E+03  0.00000000000E+00 0.  1.
          2   -1    0    0  503    0 -0.00000000000E+00 -0.00000000000E+00 -0.27373442944E+03  0.27373442944E+03  0.00000000000E+00 0. -1.
         24    2    1    2    0    0  0.32649328634E+02 -0.61920046016E+02  0.12258351340E+03  0.16212635719E+03  0.79738116237E+02 0.  0.
         23    2    1    2    0    0 -0.40631391458E+02 -0.11792036310E+02 -0.12560118807E+03  0.16096976499E+03  0.91354500199E+02 0.  0.
        -13    1    3    3    0    0  0.35102871786E+02  0.53886442042E+01  0.62416544445E+02  0.71812771249E+02  0.00000000000E+00 0.  1.
         14    1    3    3    0    0 -0.24535431522E+01 -0.67308690220E+02  0.60166968951E+02  0.90313585943E+02  0.00000000000E+00 0. -1.
        -13    1    4    4    0    0 -0.26760852228E+02  0.29736717163E+02 -0.16251454474E+02  0.43180149747E+02  0.00000000000E+00 0. -1.
         13    1    4    4    0    0 -0.13870539230E+02 -0.41528753473E+02 -0.10934973359E+03  0.11778961525E+03  0.00000000000E+00 0.  1.
         21    1    1    2  503  502 -0.29786748643E+02  0.22773699228E+02  0.42015767919E+02  0.56313555429E+02  0.00000000000E+00 0.  1.
          1    1    1    2  501    0  0.37768811468E+02  0.50938383097E+02 -0.93818275711E+02  0.11323899880E+03  0.00000000000E+00 0. -1.
<scales pt_clust_5="13000.00000" pt_clust_6="13000.00000" pt_clust_7="13000.00000" pt_clust_8="13000.00000" pt_clust_9="37.49522" pt_clust_10="13000.00000"></scales>
<clustering>
<clus scale="   37.495">  1  9  2 -1</clus>
<clus scale="   79.738">  5  6 -1 -1</clus>
<clus scale="   90.833">  2  5  1 -1</clus>
<clus scale="   91.355">  7  8 -1 -1</clus>
<clus scale="   52.256">  7 10 -1 -1</clus>
<clus scale="   37.495">  1  5  2 -1</clus>
</clustering>
</event>
<event>
10    4  0.2866397E-005  0.3944341E+03  0.7546771E-02  0.1100942E+00
         21   -1    0    0  501  502  0.00000000000E+00  0.00000000000E+00  0.28306599601E+03  0.28306599601E+03  0.00000000000E+00 0. -1.
          2   -1    0    0  503    0 -0.00000000000E+00 -0.00000000000E+00 -0.59489786042E+03  0.59489786042E+03  0.00000000000E+00 0. -1.
         24    2    1    2    0    0 -0.85369475510E+01 -0.25008137541E+02 -0.41456911047E+03  0.42364814076E+03  0.83137917909E+02 0.  0.
         23    2    1    2    0    0 -0.96657586977E+02 -0.11739122522E+03  0.91733585182E+01  0.17889373393E+03  0.93783946675E+02 0.  0.
        -11    1    3    3    0    0  0.21477085565E+02 -0.27227297366E+01 -0.28584053132E+02  0.35857029367E+02  0.00000000000E+00 0.  1.
         12    1    3    3    0    0 -0.30014033116E+02 -0.22285407805E+02 -0.38598505734E+03  0.38779111139E+03  0.00000000000E+00 0. -1.
        -13    1    4    4    0    0  0.16492382887E+02 -0.33707293882E+02  0.68208090845E+01  0.38140579318E+02  0.00000000000E+00 0.  1.
         13    1    4    4    0    0 -0.11314996986E+03 -0.83683931336E+02  0.23525494337E+01  0.14075315461E+03  0.00000000000E+00 0. -1.
         21    1    1    2  503  502 -0.37431790882E+02 -0.12702967351E+02 -0.97983438736E+01  0.40724831379E+02  0.00000000000E+00 0. -1.
          1    1    1    2  501    0  0.14262632541E+03  0.15510233011E+03  0.10336223142E+03  0.23469715036E+03  0.00000000000E+00 0. -1.
<scales pt_clust_5="13000.00000" pt_clust_6="13000.00000" pt_clust_7="13000.00000" pt_clust_8="13000.00000" pt_clust_9="39.52853" pt_clust_10="13000.00000"></scales>
<clustering>
<clus scale="   39.529">  1  9  2 -1</clus>
<clus scale="   83.138">  5  6 -1 -1</clus>
<clus scale="   87.363">  2  5  1 -1</clus>
<clus scale="   93.784">  7  8 -1 -1</clus>
<clus scale="  179.226">  7 10 -1 -1</clus>
<clus scale="   39.529">  1  5  2 -1</clus>
</clustering>
</event>
<event>
10    4  0.2866397E-005  0.1002197E+04  0.7546771E-02  0.9432721E-01
          2   -1    0    0  503    0 -0.00000000000E+00  0.00000000000E+00  0.43235104022E+04  0.43235104022E+04  0.00000000000E+00 0. -1.
         21   -1    0    0  501  502  0.00000000000E+00 -0.00000000000E+00 -0.16353619732E+03  0.16353619732E+03  0.00000000000E+00 0. -1.
         24    2    1    2    0    0  0.44976460783E+03 -0.43483684165E+03  0.16617201609E+04  0.17774391560E+04  0.81269791603E+02 0.  0.
         23    2    1    2    0    0  0.58274213641E+02  0.33774298280E+02  0.49832503796E+01  0.11497417013E+03  0.93046439007E+02 0.  0.
        -11    1    3    3    0    0  0.34449997936E+03 -0.29318382029E+03  0.11294316662E+04  0.12166564334E+04  0.00000000000E+00 0.  1.
         12    1    3    3    0    0  0.10526462846E+03 -0.14165302136E+03  0.53228849465E+03  0.56078272263E+03  0.00000000000E+00 0. -1.
        -13    1    4    4    0    0  0.19056574519E+02  0.47547607975E+02  0.36426071504E+02  0.62855284120E+02  0.00000000000E+00 0. -1.
         13    1    4    4    0    0  0.39217639121E+02 -0.13773309695E+02 -0.31442821124E+02  0.52118886005E+02  0.00000000000E+00 0.  1.
         21    1    1    2  503  502  0.28994705470E+02  0.12209200669E+02  0.29222187071E+02  0.42938255012E+02  0.00000000000E+00 0.  1.
          1    1    1    2  501    0 -0.53703352694E+03  0.38885334270E+03  0.24640486066E+04  0.25516950184E+04  0.00000000000E+00 0. -1.
<scales pt_clust_5="13000.00000" pt_clust_6="13000.00000" pt_clust_7="13000.00000" pt_clust_8="13000.00000" pt_clust_9="31.46041" pt_clust_10="13000.00000"></scales>
<clustering>
<clus scale="   31.460">  2  9  1 -1</clus>
<clus scale="   81.270">  5  6 -1 -1</clus>
<clus scale="   93.046">  7  8 -1 -1</clus>
<clus scale="  635.470">  1  5  2 -1</clus>
<clus scale="   86.622">  7 10 -1 -1</clus>
<clus scale="   31.460">  2  5  1 -1</clus>
</clustering>
</event>
<event>
10    4  0.2866397E-005  0.4284388E+03  0.7546771E-02  0.1077059E+00
         21   -1    0    0  501  502  0.00000000000E+00  0.00000000000E+00  0.60351093739E+02  0.60351093739E+02  0.00000000000E+00 0. -1.
          2   -1    0    0  503    0 -0.00000000000E+00 -0.00000000000E+00 -0.21378439509E+04  0.21378439509E+04  0.00000000000E+00 0. -1.
         24    2    1    2    0    0 -0.65725831066E+02  0.74092939054E+02 -0.95560361294E+03  0.96405761875E+03  0.80119777307E+02 0.  0.
         23    2    1    2    0    0 -0.15307683353E+03 -0.11425100528E+03 -0.67729882596E+03  0.71254668049E+03  0.11181799077E+03 0.  0.
        -13    1    3    3    0    0 -0.22584505738E+02 -0.96456019637E+00 -0.57387976937E+02  0.61679576626E+02  0.00000000000E+00 0.  1.
         14    1    3    3    0    0 -0.43141325328E+02  0.75057499251E+02 -0.89821563600E+03  0.90237804212E+03  0.00000000000E+00 0. -1.
        -11    1    4    4    0    0 -0.13338609017E+03 -0.47418329906E+02 -0.54424240692E+03  0.56235233133E+03  0.00000000000E+00 0. -1.
         11    1    4    4    0    0 -0.19690743362E+02 -0.66832675379E+02 -0.13305641904E+03  0.15019434916E+03  0.00000000000E+00 0.  1.
         21    1    1    2  503  502  0.13839922975E+02  0.28598091637E+02  0.13396899730E+00  0.31771248967E+02  0.00000000000E+00 0. -1.
          1    1    1    2  501    0  0.20496274162E+03  0.11559974593E+02 -0.44472438731E+03  0.48981949648E+03  0.00000000000E+00 0. -1.
<scales pt_clust_5="13000.00000" pt_clust_6="13000.00000" pt_clust_7="13000.00000" pt_clust_8="13000.00000" pt_clust_9="31.77097" pt_clust_10="13000.00000"></scales>
<clustering>
<clus scale="   31.771">  1  9  2 -1</clus>
<clus scale="   80.120">  5  6 -1 -1</clus>
<clus scale="  111.818">  7  8 -1 -1</clus>
<clus scale="  128.329">  2  5  1 -1</clus>
<clus scale="  193.038">  7 10 -1 -1</clus>
<clus scale="   31.771">  1  5  2 -1</clus>
</clustering>
</event>
<event>
10    4  0.2866397E-005  0.1643091E+03  0.7546771E-02  0.1201561E+00
          2   -1    0    0  503    0 -0.00000000000E+00  0.00000000000E+00  0.76571986269E+03  0.76571986269E+03  0.00000000000E+00 0. -1.
         21   -1    0    0  501  502  0.00000000000E+00 -0.00000000000E+00 -0.43611523660E+02  0.43611523660E+02  0.00000000000E+00 0.  1.
         24    2    1    2    0    0 -0.79979891708E+02 -0.18391320702E+02  0.30434040643E+03  0.32516820337E+03  0.79851447938E+02 0.  0.
         23    2    1    2    0    0  0.20407098002E+02  0.57293083458E+02  0.13834065323E+03  0.17540820217E+03  0.89055903751E+02 0.  0.
        -11    1    3    3    0    0 -0.70792018762E+02 -0.45942242641E+02  0.24444242813E+03  0.25860065787E+03  0.00000000000E+00 0.  1.
         12    1    3    3    0    0 -0.91878729453E+01  0.27550921939E+02  0.59897978306E+02  0.66567545501E+02  0.00000000000E+00 0. -1.
        -11    1    4    4    0    0  0.51931289515E+02  0.53917126428E+02  0.84183319384E+02  0.11265321396E+03  0.00000000000E+00 0.  1.
         11    1    4    4    0    0 -0.31524191514E+02  0.33759570298E+01  0.54157333845E+02  0.62754988213E+02  0.00000000000E+00 0. -1.
         21    1    1    2  503  502  0.35737284194E+02 -0.57902988759E+02  0.71867942270E+02  0.98969241256E+02  0.00000000000E+00 0. -1.
          1    1    1    2  501    0  0.23835509513E+02  0.19001226004E+02  0.20755933710E+03  0.20978573955E+03  0.00000000000E+00 0. -1.
<scales pt_clust_5="13000.00000" pt_clust_6="13000.00000" pt_clust_7="13000.00000" pt_clust_8="13000.00000" pt_clust_9="68.04344" pt_clust_10="13000.00000"></scales>
<clustering>
<clus scale="   68.043">  2  9  1 -1</clus>
<clus scale="   79.851">  5  6 -1 -1</clus>
<clus scale="   89.056">  7  8 -1 -1</clus>
<clus scale="   30.284">  7 10 -1 -1</clus>
<clus scale="  111.465">  1  5  2 -1</clus>
<clus scale="   68.043">  2  5  1 -1</clus>
</clustering>
</event>
<event>
10    4  0.2866397E-005  0.3841357E+03  0.7546771E-02  0.1080371E+00
         21   -1    0    0  501  502  0.00000000000E+00  0.00000000000E+00  0.31704811620E+03  0.31704811620E+03  0.00000000000E+00 0. -1.
          2   -1    0    0  503    0 -0.00000000000E+00 -0.00000000000E+00 -0.30914119034E+03  0.30914119034E+03  0.00000000000E+00 0. -1.
         24    2    1    2    0    0  0.84254067027E+02 -0.11885120059E+03 -0.59130271684E+02  0.17713810519E+03  0.81591443119E+02 0.  0.
         23    2    1    2    0    0  0.90891184700E+02  0.75546220572E+02  0.11075788990E+03  0.18516760674E+03  0.89729000411E+02 0.  0.
        -13    1    3    3    0    0  0.93977783945E+00 -0.66505456508E+02 -0.37642676671E+02  0.76425323256E+02  0.00000000000E+00 0.  1.
         14    1    3    3    0    0  0.83314289188E+02 -0.52345744079E+02 -0.21487595013E+02  0.10071278194E+03  0.00000000000E+00 0. -1.
        -11    1    4    4    0    0  0.49770464418E+02  0.87234178357E+02  0.53751547398E+02  0.11391281688E+03  0.00000000000E+00 0.  1.
         11    1    4    4    0    0  0.41120720282E+02 -0.11687957785E+02  0.57006342497E+02  0.71254789864E+02  0.00000000000E+00 0. -1.
         21    1    1    2  503  502 -0.19214047410E+02  0.11204113947E+02  0.66585573683E+02  0.70202210862E+02  0.00000000000E+00 0. -1.
          1    1    1    2  501    0 -0.15593120432E+03  0.32100866068E+02 -0.11030626604E+03  0.19368138374E+03  0.00000000000E+00 0. -1.
<scales pt_clust_5="13000.00000" pt_clust_6="13000.00000" pt_clust_7="13000.00000" pt_clust_8="13000.00000" pt_clust_9="22.24212" pt_clust_10="13000.00000"></scales>
<clustering>
<clus scale="   22.242">  1  9  2 -1</clus>
<clus scale="   81.591">  5  6 -1 -1</clus>
<clus scale="   89.729">  7  8 -1 -1</clus>
<clus scale="  162.739">  7 10 -1 -1</clus>
<clus scale="  162.816">  2  5  1 -1</clus>
<clus scale="   22.242">  1  5  2 -1</clus>
</clustering>
</event>
<event>
10    4  0.2866397E-005  0.2145464E+03  0.7546771E-02  0.1168251E+00
         21   -1    0    0  501  502  0.00000000000E+00  0.00000000000E+00  0.17905462652E+03  0.17905462652E+03  0.00000000000E+00 0. -1.
          2   -1    0    0  503    0 -0.00000000000E+00 -0.00000000000E+00 -0.38170568737E+03  0.38170568737E+03  0.00000000000E+00 0. -1.
         24    2    1    2    0    0  0.29598004633E+02  0.76268000632E+02 -0.31095031545E+02  0.12097776498E+03  0.83521666849E+02 0.  0.
         23    2    1    2    0    0  0.28221813011E+01 -0.96237192430E+02 -0.14118422619E+03  0.19437706852E+03  0.92627734108E+02 0.  0.
        -13    1    3    3    0    0  0.55078218398E+02  0.38266619061E+02 -0.33882837856E+02  0.75139809538E+02  0.00000000000E+00 0.  1.
         14    1    3    3    0    0 -0.25480213764E+02  0.38001381571E+02  0.27878063106E+01  0.45837955439E+02  0.00000000000E+00 0. -1.
        -11    1    4    4    0    0  0.28347578493E+02 -0.34597487597E+02 -0.80283359996E+01  0.45442552012E+02  0.00000000000E+00 0. -1.
         11    1    4    4    0    0 -0.25525397192E+02 -0.61639704833E+02 -0.13315589019E+03  0.14893451651E+03  0.00000000000E+00 0.  1.
         21    1    1    2  503  502  0.10204501846E+02 -0.41700223252E+02  0.92211939894E+02  0.10171569366E+03  0.00000000000E+00 0. -1.
          1    1    1    2  501    0 -0.42624687781E+02  0.61669415050E+02 -0.12258374301E+03  0.14368978673E+03  0.00000000000E+00 0. -1.
<scales pt_clust_5="13000.00000" pt_clust_6="13000.00000" pt_clust_7="13000.00000" pt_clust_8="13000.00000" pt_clust_9="42.93065" pt_clust_10="13000.00000"></scales>
<clustering>
<clus scale="   42.931">  1  9  2 -1</clus>
<clus scale="   83.522">  5  6 -1 -1</clus>
<clus scale="   92.628">  7  8 -1 -1</clus>
<clus scale="   69.839">  7 10 -1 -1</clus>
<clus scale="  105.212">  2  5  1 -1</clus>
<clus scale="   42.931">  1  5  2 -1</clus>
</clustering>
</event>
<event>
10    4  0.2866397E-005  0.3339052E+03  0.7546771E-02  0.1117989E+00
          2   -1    0    0  503    0 -0.00000000000E+00  0.00000000000E+00  0.18172420782E+03  0.18172420782E+03  0.00000000000E+00 0. -1.
         21   -1    0    0  501  502  0.00000000000E+00 -0.00000000000E+00 -0.40743672198E+03  0.40743672198E+03  0.00000000000E+00 0. -1.
         24    2    1    2    0    0 -0.25584455305E+02  0.50537573065E+02 -0.26282004610E+02  0.10174271519E+03  0.80325747329E+02 0.  0.
         23    2    1    2    0    0  0.50947441675E+02  0.12858830845E+03  0.64915931677E+01  0.16602074496E+03  0.91597773393E+02 0.  0.
        -11    1    3    3    0    0  0.25186616934E+02  0.21109003241E+01 -0.18135949963E+02  0.31108427376E+02  0.00000000000E+00 0.  1.
         12    1    3    3    0    0 -0.50771072239E+02  0.48426672741E+02 -0.81460546468E+01  0.70634287817E+02  0.00000000000E+00 0. -1.
        -11    1    4    4    0    0  0.77678539562E+02  0.97069328572E+02  0.98609772444E+00  0.12432772196E+03  0.00000000000E+00 0. -1.
         11    1    4    4    0    0 -0.26731097888E+02  0.31518979879E+02  0.55054954432E+01  0.41693023001E+02  0.00000000000E+00 0.  1.
         21    1    1    2  503  502  0.26252958415E+02 -0.29012976923E+02 -0.14693091921E+03  0.15205152310E+03  0.00000000000E+00 0. -1.
          1    1    1    2  501    0 -0.51615944785E+02 -0.15011290459E+03 -0.58991183503E+02  0.16934594655E+03  0.00000000000E+00 0. -1.
<scales pt_clust_5="13000.00000" pt_clust_6="13000.00000" pt_clust_7="13000.00000" pt_clust_8="13000.00000" pt_clust_9="39.12762" pt_clust_10="13000.00000"></scales>
<clustering>
<clus scale="   39.128">  2  9  1 -1</clus>
<clus scale="   80.326">  5  6 -1 -1</clus>
<clus scale="   91.598">  7  8 -1 -1</clus>
<clus scale="   93.242">  1  5  2 -1</clus>
<clus scale="  152.143">  7 10 -1 -1</clus>
<clus scale="   39.128">  2  5  1 -1</clus>
</clustering>
</event>
<event>
10    4  0.2866397E-005  0.3564657E+03  0.7546771E-02  0.1091399E+00
         21   -1    0    0  503  502  0.00000000000E+00  0.00000000000E+00  0.94620272694E+02  0.94620272694E+02  0.00000000000E+00 0. -1.
          2   -1    0    0  502    0 -0.00000000000E+00 -0.00000000000E+00 -0.13916500995E+04  0.13916500995E+04  0.00000000000E+00 0. -1.
         24    2    1    2    0    0  0.12507417086E+03  0.79947019867E+01 -0.61340903140E+03  0.63105754964E+03  0.79091893910E+02 0.  0.
         23    2    1    2    0    0 -0.16350262207E+03 -0.13903007463E+03 -0.32765079387E+03  0.40230741157E+03  0.91835404967E+02 0.  0.
        -11    1    3    3    0    0  0.13643526082E+02  0.31391141313E+02 -0.13173259446E+03  0.13610667141E+03  0.00000000000E+00 0.  1.
         12    1    3    3    0    0  0.11143064478E+03 -0.23396439326E+02 -0.48167643693E+03  0.49495087824E+03  0.00000000000E+00 0. -1.
        -11    1    4    4    0    0 -0.12589055970E+03 -0.13807300607E+03 -0.22205256447E+03  0.29020670119E+03  0.00000000000E+00 0. -1.
         11    1    4    4    0    0 -0.37612062375E+02 -0.95706855936E+00 -0.10559822940E+03  0.11210071038E+03  0.00000000000E+00 0.  1.
         21    1    1    2  503  501  0.23563549753E+02  0.29688307681E+02  0.33257578924E+02  0.50425222318E+02  0.00000000000E+00 0. -1.
          1    1    1    2  501    0  0.14864901457E+02  0.10134706496E+03 -0.38922758043E+03  0.40248018863E+03  0.00000000000E+00 0. -1.
<scales pt_clust_5="13000.00000" pt_clust_6="13000.00000" pt_clust_7="13000.00000" pt_clust_8="13000.00000" pt_clust_9="37.90299" pt_clust_10="13000.00000"></scales>
<clustering>
<clus scale="   37.903">  1  9  2 -1</clus>
<clus scale="   79.092">  5  6 -1 -1</clus>
<clus scale="   91.835">  7  8 -1 -1</clus>
<clus scale="  106.575">  7 10 -1 -1</clus>
<clus scale="  151.882">  2  5  1 -1</clus>
<clus scale="   37.903">  1  5  2 -1</clus>
</clustering>
</event>
<event>
10    4  0.2866397E-005  0.7407778E+03  0.7546771E-02  0.1016453E+00
         21   -1    0    0  501  502  0.00000000000E+00  0.00000000000E+00  0.13110070238E+03  0.13110070238E+03  0.00000000000E+00 0.  1.
          2   -1    0    0  503    0 -0.00000000000E+00 -0.00000000000E+00 -0.20822180355E+04  0.20822180355E+04  0.00000000000E+00 0. -1.
         24    2    1    2    0    0 -0.10888101223E+03 -0.38333758558E+02 -0.51065536186E+03  0.52915741316E+03  0.76903299302E+02 0.  0.
         23    2    1    2    0    0  0.21571501140E+03  0.35804714332E+03 -0.55440332691E+03  0.70072565163E+03  0.94459869663E+02 0.  0.
        -13    1    3    3    0    0 -0.92291493706E+02 -0.58410480151E+01 -0.44028818500E+03  0.44989501387E+03  0.00000000000E+00 0.  1.
         14    1    3    3    0    0 -0.16589518527E+02 -0.32492710543E+02 -0.70367176851E+02  0.79262399291E+02  0.00000000000E+00 0. -1.
        -13    1    4    4    0    0  0.33198381065E+02  0.12013258592E+03 -0.12106051513E+03  0.17375160152E+03  0.00000000000E+00 0.  1.
         13    1    4    4    0    0  0.18251663034E+03  0.23791455740E+03 -0.43334281178E+03  0.52697405011E+03  0.00000000000E+00 0. -1.
         21    1    1    2  503  502 -0.14433849835E+02 -0.72696715208E+02 -0.18100785525E+02  0.76294081420E+02  0.00000000000E+00 0.  1.
          1    1    1    2  501    0 -0.92400149334E+02 -0.24701666956E+03 -0.86795785880E+03  0.90714159164E+03  0.00000000000E+00 0. -1.
<scales pt_clust_5="13000.00000" pt_clust_6="13000.00000" pt_clust_7="13000.00000" pt_clust_8="13000.00000" pt_clust_9="74.11578" pt_clust_10="13000.00000"></scales>
<clustering>
<clus scale="   74.116">  1  9  2 -1</clus>
<clus scale="   76.903">  5  6 -1 -1</clus>
<clus scale="   94.460">  7  8 -1 -1</clus>
<clus scale="  141.684">  2  5  1 -1</clus>
<clus scale="  335.022">  7 10 -1 -1</clus>
<clus scale="   74.116">  1  5  2 -1</clus>
</clustering>
</event>
<event>
10    4  0.2866397E-005  0.2513428E+03  0.7546771E-02  0.1152523E+00
          2   -1    0    0  502    0 -0.00000000000E+00  0.00000000000E+00  0.63965323425E+03  0.63965323425E+03  0.00000000000E+00 0. -1.
         21   -1    0    0  503  502  0.00000000000E+00 -0.00000000000E+00 -0.88077186010E+02  0.88077186010E+02  0.00000000000E+00 0.  1.
         24    2    1    2    0    0  0.46682592119E+02 -0.63322021620E+02 -0.16317408422E+01  0.10559879911E+03  0.70423724452E+02 0.  0.
         23    2    1    2    0    0  0.45807807619E+02  0.30301898770E+02  0.90276138600E+02  0.13946872306E+03  0.91022981733E+02 0.  0.
        -11    1    3    3    0    0  0.23128419354E+02 -0.39030770792E+02 -0.35588850937E+02  0.57661869216E+02  0.00000000000E+00 0.  1.
         12    1    3    3    0    0  0.23554172765E+02 -0.24291250828E+02  0.33957110095E+02  0.47936929892E+02  0.00000000000E+00 0. -1.
        -11    1    4    4    0    0  0.72173365491E+02  0.98421743317E+01  0.64625151926E+02  0.97376965158E+02  0.00000000000E+00 0.  1.
         11    1    4    4    0    0 -0.26365557872E+02  0.20459724438E+02  0.25650986673E+02  0.42091757902E+02  0.00000000000E+00 0. -1.
         21    1    1    2  503  501 -0.21137793967E+02  0.14766417705E+02  0.17450992279E+02  0.31135037452E+02  0.00000000000E+00 0. -1.
          1    1    1    2  501    0 -0.71352605771E+02  0.18253705146E+02  0.44548065820E+03  0.45152786064E+03  0.00000000000E+00 0. -1.
<scales pt_clust_5="13000.00000" pt_clust_6="13000.00000" pt_clust_7="13000.00000" pt_clust_8="13000.00000" pt_clust_9="25.78475" pt_clust_10="13000.00000"></scales>
<clustering>
<clus scale="   25.785">  2  9  1 -1</clus>
<clus scale="   70.424">  5  6 -1 -1</clus>
<clus scale="   91.023">  7  8 -1 -1</clus>
<clus scale="   74.550">  7 10 -1 -1</clus>
<clus scale="   94.347">  1  5  2 -1</clus>
<clus scale="   25.785">  2  5  1 -1</clus>
</clustering>
</event>
<event>
10    4  0.2866397E-005  0.4754901E+03  0.7546771E-02  0.1080686E+00
          2   -1    0    0  503    0 -0.00000000000E+00  0.00000000000E+00  0.94649593821E+03  0.94649593821E+03  0.00000000000E+00 0. -1.
         21   -1    0    0  501  502  0.00000000000E+00 -0.00000000000E+00 -0.32229587884E+03  0.32229587884E+03  0.00000000000E+00 0. -1.
         24    2    1    2    0    0 -0.56953812723E+01  0.81410679057E+01  0.42661628393E+03  0.43502583106E+03  0.84541738919E+02 0.  0.
         23    2    1    2    0    0 -0.14642285933E+02  0.45771262236E+01  0.13674405405E+03  0.16521682320E+03  0.91445698244E+02 0.  0.
        -13    1    3    3    0    0 -0.21314805215E+02 -0.34015162358E+02  0.20651914313E+03  0.21038419301E+03  0.00000000000E+00 0.  1.
         14    1    3    3    0    0  0.15619423942E+02  0.42156230264E+02  0.22009714081E+03  0.22464163805E+03  0.00000000000E+00 0. -1.
        -13    1    4    4    0    0 -0.33859869016E+02 -0.31868871079E+02  0.45289966798E+02  0.64909912696E+02  0.00000000000E+00 0.  1.
         13    1    4    4    0    0  0.19217583083E+02  0.36445997303E+02  0.91454087252E+02  0.10030691050E+03  0.00000000000E+00 0. -1.
         21    1    1    2  503  502 -0.29551334137E+03 -0.13768886097E+03  0.24499280501E+02  0.32693511912E+03  0.00000000000E+00 0. -1.
          1    1    1    2  501    0  0.31585100858E+03  0.12497066684E+03  0.36340440878E+02  0.34161404367E+03  0.00000000000E+00 0. -1.
<scales pt_clust_5="13000.00000" pt_clust_6="13000.00000" pt_clust_7="13000.00000" pt_clust_8="13000.00000" pt_clust_9="326.62044" pt_clust_10="13000.00000"></scales>
<clustering>
<clus scale="   84.542">  5  6 -1 -1</clus>
<clus scale="   85.124">  1  5  2 -1</clus>
<clus scale="   91.446">  7  8 -1 -1</clus>
<clus scale="  326.620">  2  9  1 -1</clus>
<clus scale="   44.756">  7 10 -1 -1</clus>
<clus scale="  326.620">  2  5  1 -1</clus>
</clustering>
</event>
<event>
10    4  0.2866397E-005  0.3291250E+03  0.7546771E-02  0.1078058E+00
         21   -1    0    0  501  502  0.00000000000E+00  0.00000000000E+00  0.11198694499E+03  0.11198694499E+03  0.00000000000E+00 0.  1.
          2   -1    0    0  503    0 -0.00000000000E+00 -0.00000000000E+00 -0.11929656733E+04  0.11929656733E+04  0.00000000000E+00 0. -1.
         24    2    1    2    0    0  0.16548164725E+03  0.23026478349E+03 -0.34343887931E+03  0.45269455269E+03  0.81092836466E+02 0.  0.
         23    2    1    2    0    0 -0.86170696068E+02 -0.18424288856E+03 -0.38429478595E+03  0.44105551070E+03  0.74004392860E+02 0.  0.
        -11    1    3    3    0    0  0.15995906246E+03  0.17134014361E+03 -0.25592431518E+03  0.34704697316E+03  0.00000000000E+00 0.  1.
         12    1    3    3    0    0  0.55225847874E+01  0.58924639888E+02 -0.87514564123E+02  0.10564757954E+03  0.00000000000E+00 0. -1.
        -11    1    4    4    0    0 -0.68885351397E+02 -0.10627006526E+03 -0.16728683243E+03  0.20981754624E+03  0.00000000000E+00 0.  1.
         11    1    4    4    0    0 -0.17285344670E+02 -0.77972823306E+02 -0.21700795352E+03  0.23123796446E+03  0.00000000000E+00 0. -1.
         21    1    1    2  503  502  0.21823596633E+01 -0.42549055090E+02  0.58098397980E+01  0.42999290939E+02  0.00000000000E+00 0.  1.
          1    1    1    2  501    0 -0.81493310847E+02 -0.34728398392E+01 -0.35905490287E+03  0.36820326398E+03  0.00000000000E+00 0. -1.
<scales pt_clust_5="13000.00000" pt_clust_6="13000.00000" pt_clust_7="13000.00000" pt_clust_8="13000.00000" pt_clust_9="42.60499" pt_clust_10="13000.00000"></scales>
<clustering>
<clus scale="   42.605">  1  9  2 -1</clus>
<clus scale="   74.004">  7  8 -1 -1</clus>
<clus scale="   81.093">  5  6 -1 -1</clus>
<clus scale="   81.578">  7 10 -1 -1</clus>
<clus scale="  275.530">  2  5  1 -1</clus>
<clus scale="   42.605">  1  5  2 -1</clus>
</clustering>
</event>
<event>
10    4  0.2866397E-005  0.2491348E+03  0.7546771E-02  0.1140871E+00
          2   -1    0    0  502    0 -0.00000000000E+00  0.00000000000E+00  0.23308110632E+03  0.23308110632E+03  0.00000000000E+00 0. -1.
         21   -1    0    0  503  502  0.00000000000E+00 -0.00000000000E+00 -0.26052323091E+03  0.26052323091E+03  0.00000000000E+00 0. -1.
         24    2    1    2    0    0  0.69975728196E+02  0.56466209433E+02 -0.44283399966E+01  0.12046956536E+03  0.80051674809E+02 0.  0.
         23    2    1    2    0    0 -0.51047391802E+02  0.36976503966E+02 -0.23320802971E+02  0.11403183843E+03  0.92121128245E+02 0.  0.
        -13    1    3    3    0    0  0.39977636739E+02 -0.13065679943E+02  0.10351712050E+02  0.43313755021E+02  0.00000000000E+00 0.  1.
         14    1    3    3    0    0  0.29998091457E+02  0.69531889376E+02 -0.14780052047E+02  0.77155810344E+02  0.00000000000E+00 0. -1.
        -13    1    4    4    0    0 -0.54356154945E+02 -0.53249170325E+01 -0.40768084298E+02  0.68154112269E+02  0.00000000000E+00 0. -1.
         13    1    4    4    0    0  0.33087631430E+01  0.42301420998E+02  0.17447281327E+02  0.45877726161E+02  0.00000000000E+00 0.  1.
         21    1    1    2  503  501  0.20915675816E+02  0.13230466420E+02 -0.10264791023E+03  0.10558931864E+03  0.00000000000E+00 0. -1.
          1    1    1    2  501    0 -0.39844012209E+02 -0.10667317982E+03  0.10295492861E+03  0.15351361479E+03  0.00000000000E+00 0. -1.
<scales pt_clust_5="13000.00000" pt_clust_6="13000.00000" pt_clust_7="13000.00000" pt_clust_8="13000.00000" pt_clust_9="24.74895" pt_clust_10="13000.00000"></scales>
<clustering>
<clus scale="   24.749">  2  9  1 -1</clus>
<clus scale="   80.052">  5  6 -1 -1</clus>
<clus scale="   92.121">  7  8 -1 -1</clus>
<clus scale="  110.712">  7 10 -1 -1</clus>
<clus scale="  127.892">  1  5  2 -1</clus>
<clus scale="   24.749">  2  5  1 -1</clus>
</clustering>
</event>
<event>
10    4  0.2866397E-005  0.2030361E+03  0.7546771E-02  0.1166445E+00
         21   -1    0    0  503  502  0.00000000000E+00  0.00000000000E+00  0.10864409359E+03  0.10864409359E+03  0.00000000000E+00 0. -1.
          2   -1    0    0  502    0 -0.00000000000E+00 -0.00000000000E+00 -0.48388495591E+03  0.48388495591E+03  0.00000000000E+00 0. -1.
         24    2    1    2    0    0 -0.98814195742E+02  0.75510224241E+01 -0.10556708209E+03  0.16547072402E+03  0.80092998871E+02 0.  0.
         23    2    1    2    0    0  0.39582238216E+02 -0.35619787362E+02 -0.12879626656E+03  0.16683940557E+03  0.91713609336E+02 0.  0.
        -11    1    3    3    0    0 -0.95048757420E+02  0.33465273879E+02 -0.89301987541E+02  0.13464410801E+03  0.00000000000E+00 0.  1.
         12    1    3    3    0    0 -0.37654383226E+01 -0.25914251455E+02 -0.16265094550E+02  0.30826616015E+02  0.00000000000E+00 0. -1.
        -11    1    4    4    0    0 -0.17206477348E+01 -0.20493715739E+02 -0.12029443885E+03  0.12203976824E+03  0.00000000000E+00 0. -1.
         11    1    4    4    0    0  0.41302885951E+02 -0.15126071623E+02 -0.85018277095E+01  0.44799637331E+02  0.00000000000E+00 0.  1.
         21    1    1    2  503  501 -0.32489236869E+01 -0.48470484766E+02  0.34044808072E+02  0.59321095364E+02  0.00000000000E+00 0. -1.
          1    1    1    2  501    0  0.62480881213E+02  0.76539249703E+02 -0.17492232174E+03  0.20089782454E+03  0.00000000000E+00 0. -1.
<scales pt_clust_5="13000.00000" pt_clust_6="13000.00000" pt_clust_7="13000.00000" pt_clust_8="13000.00000" pt_clust_9="48.57925" pt_clust_10="13000.00000"></scales>
<clustering>
<clus scale="   48.579">  1  9  2 -1</clus>
<clus scale="   80.093">  5  6 -1 -1</clus>
<clus scale="   91.714">  7  8 -1 -1</clus>
<clus scale="   90.694">  7 10 -1 -1</clus>
<clus scale="  129.399">  2  5  1 -1</clus>
<clus scale="   48.579">  1  5  2 -1</clus>
</clustering>
</event>
<event>
10    4  0.2866397E-005  0.2961932E+03  0.7546771E-02  0.1132680E+00
         21   -1    0    0  501  502  0.00000000000E+00  0.00000000000E+00  0.18424717828E+03  0.18424717828E+03  0.00000000000E+00 0.  1.
          2   -1    0    0  503    0 -0.00000000000E+00 -0.00000000000E+00 -0.68264395624E+03  0.68264395624E+03  0.00000000000E+00 0. -1.
         24    2    1    2    0    0 -0.31023743140E+01 -0.48962825152E+02 -0.22558988930E+03  0.24394547166E+03  0.78813780612E+02 0.  0.
         23    2    1    2    0    0  0.55415974381E+02 -0.18900264184E+03 -0.20464234312E+03  0.29841824236E+03  0.91553426670E+02 0.  0.
        -13    1    3    3    0    0 -0.35562562049E+02 -0.27573033386E+02 -0.67345686337E+02  0.80996354596E+02  0.00000000000E+00 0.  1.
         14    1    3    3    0    0  0.32460187735E+02 -0.21389791766E+02 -0.15824420297E+03  0.16294911706E+03  0.00000000000E+00 0. -1.
        -13    1    4    4    0    0  0.56389052578E+02 -0.14947580065E+03 -0.20369066650E+03  0.25886797379E+03  0.00000000000E+00 0. -1.
         13    1    4    4    0    0 -0.97307819748E+00 -0.39526841188E+02 -0.95167661228E+00  0.39550268569E+02  0.00000000000E+00 0.  1.
         21    1    1    2  503  502 -0.10694381619E+03  0.23562220520E+03 -0.36437775691E+02  0.26130923233E+03  0.00000000000E+00 0.  1.
          1    1    1    2  501    0  0.54630216126E+02  0.23432617917E+01 -0.31726769857E+02  0.63218188169E+02  0.00000000000E+00 0. -1.
<scales pt_clust_5="13000.00000" pt_clust_6="13000.00000" pt_clust_7="13000.00000" pt_clust_8="13000.00000" pt_clust_9="244.48257" pt_clust_10="13000.00000"></scales>
<clustering>
<clus scale="   78.814">  5  6 -1 -1</clus>
<clus scale="   91.553">  7  8 -1 -1</clus>
<clus scale="   54.680">  7 10 -1 -1</clus>
<clus scale="   92.836">  2  5  1 -1</clus>
<clus scale="  244.483">  1  9  2 -1</clus>
<clus scale="  244.483">  1  5  2 -1</clus>
</clustering>
</event>
<event>
10    4  0.2866397E-005  0.8533586E+03  0.7546771E-02  0.9842328E-01
         -3   -1    0    0    0  501 -0.00000000000E+00  0.00000000000E+00  0.50444521531E+03  0.50444521531E+03  0.00000000000E+00 0.  1.
         21   -1    0    0  503  502  0.00000000000E+00 -0.00000000000E+00 -0.82047178902E+03  0.82047178902E+03  0.00000000000E+00 0.  1.
         24    2    1    2    0    0 -0.45159004345E+02  0.22202019913E+03 -0.13878686425E+03  0.27791854859E+03  0.81514547590E+02 0.  0.
         23    2    1    2    0    0  0.10925724187E+03  0.28818807617E+03 -0.77685941233E+01  0.32156327092E+03  0.91395153045E+02 0.  0.
        -13    1    3    3    0    0 -0.67250933068E+02  0.19128343007E+03 -0.11307558349E+03  0.23215969977E+03  0.00000000000E+00 0.  1.
         14    1    3    3    0    0  0.22091928724E+02  0.30736769067E+02 -0.25711280759E+02  0.45758848824E+02  0.00000000000E+00 0. -1.
        -11    1    4    4    0    0  0.96975431303E+02  0.24084524138E+03 -0.40409928192E+02  0.26276153993E+03  0.00000000000E+00 0.  1.
         11    1    4    4    0    0  0.12281810566E+02  0.47342834793E+02  0.32641334069E+02  0.58801730985E+02  0.00000000000E+00 0. -1.
         21    1    1    2  503  501 -0.70844358292E+02  0.33141370210E+02 -0.16435895686E+03  0.18201961493E+03  0.00000000000E+00 0.  1.
         -4    1    1    2    0  502  0.67461207676E+01 -0.54334964552E+03 -0.51121584721E+01  0.54341556988E+03  0.00000000000E+00 0.  1.
<scales pt_clust_5="13000.00000" pt_clust_6="13000.00000" pt_clust_7="13000.00000" pt_clust_8="13000.00000" pt_clust_9="78.21300" pt_clust_10="13000.00000"></scales>
<clustering>
<clus scale="   78.213">  2  9  1 -1</clus>
<clus scale="   81.515">  5  6 -1 -1</clus>
<clus scale="   91.395">  7  8 -1 -1</clus>
<clus scale="  255.749">  1  5  2 -1</clus>
<clus scale="  392.107">  7 10 -1 -1</clus>
<clus scale="   78.213">  2  5  1 -1</clus>
</clustering>
</event>
<event>
10    4  0.2866397E-005  0.1765332E+03  0.7546771E-02  0.1198824E+00
          2   -1    0    0  502    0 -0.00000000000E+00  0.00000000000E+00  0.42620551516E+03  0.42620551516E+03  0.00000000000E+00 0. -1.
         21   -1    0    0  503  502  0.00000000000E+00 -0.00000000000E+00 -0.29377241375E+03  0.29377241375E+03  0.00000000000E+00 0.  1.
         24    2    1    2    0    0  0.20900223476E+02 -0.45923519852E+02  0.23968282235E+03  0.25850515479E+03  0.82651501523E+02 0.  0.
         23    2    1    2    0    0 -0.73443430839E+02 -0.44796588064E+02  0.12225356132E+03  0.17489457192E+03  0.90782741732E+02 0.  0.
        -11    1    3    3    0    0  0.18008745682E+02  0.22235736767E+02  0.71354396105E+02  0.76877778025E+02  0.00000000000E+00 0.  1.
         12    1    3    3    0    0  0.28914777946E+01 -0.68159256619E+02  0.16832842625E+03  0.18162737676E+03  0.00000000000E+00 0. -1.
        -11    1    4    4    0    0 -0.18869302604E+02  0.27029874595E+02  0.47063154464E+02  0.57459596322E+02  0.00000000000E+00 0.  1.
         11    1    4    4    0    0 -0.54574128235E+02 -0.71826462659E+02  0.75190406857E+02  0.11743497560E+03  0.00000000000E+00 0. -1.
         21    1    1    2  503  501  0.43969909183E+02  0.45770512113E+02 -0.23222048155E+03  0.24073770944E+03  0.00000000000E+00 0.  1.
          1    1    1    2  501    0  0.85732981803E+01  0.44949595804E+02  0.27171992884E+01  0.45840492762E+02  0.00000000000E+00 0. -1.
<scales pt_clust_5="13000.00000" pt_clust_6="13000.00000" pt_clust_7="13000.00000" pt_clust_8="13000.00000" pt_clust_9="63.46883" pt_clust_10="13000.00000"></scales>
<clustering>
<clus scale="   63.469">  2  9  1 -1</clus>
<clus scale="   82.652">  5  6 -1 -1</clus>
<clus scale="   90.783">  7  8 -1 -1</clus>
<clus scale="   67.058">  7 10 -1 -1</clus>
<clus scale="   95.379">  1  5  2 -1</clus>
<clus scale="   63.469">  2  5  1 -1</clus>
</clustering>
</event>
<event>
10    4  0.2866397E-005  0.2207238E+03  0.7546771E-02  0.1172425E+00
         -1   -1    0    0    0  501 -0.00000000000E+00  0.00000000000E+00  0.30177917283E+03  0.30177917283E+03  0.00000000000E+00 0.  1.
         21   -1    0    0  503  502  0.00000000000E+00 -0.00000000000E+00 -0.11364393441E+03  0.11364393441E+03  0.00000000000E+00 0. -1.
         24    2    1    2    0    0 -0.32086849112E+02 -0.29270353760E+02  0.98366608189E+02  0.13443185395E+03  0.80682180530E+02 0.  0.
         23    2    1    2    0    0  0.16466858626E+02 -0.79162718911E+02  0.25366520263E+02  0.13072306905E+03  0.99534752390E+02 0.  0.
        -13    1    3    3    0    0 -0.38259075431E+02 -0.26785435017E+02  0.11084947852E+03  0.12028642180E+03  0.00000000000E+00 0.  1.
         14    1    3    3    0    0  0.61722263185E+01 -0.24849187428E+01 -0.12482870333E+02  0.14145432147E+02  0.00000000000E+00 0. -1.
        -11    1    4    4    0    0 -0.19195528887E+02  0.14578680520E+02  0.18139856229E+02  0.30167211322E+02  0.00000000000E+00 0.  1.
         11    1    4    4    0    0  0.35662387513E+02 -0.93741399431E+02  0.72266640340E+01  0.10055585773E+03  0.00000000000E+00 0. -1.
         21    1    1    2  503  501  0.41094940665E+02  0.24872421476E+02  0.17563236191E+02  0.51145857739E+02  0.00000000000E+00 0. -1.
         -2    1    1    2    0  502 -0.25474950179E+02  0.83560651195E+02  0.46838873770E+02  0.99122326500E+02  0.00000000000E+00 0.  1.
<scales pt_clust_5="13000.00000" pt_clust_6="13000.00000" pt_clust_7="13000.00000" pt_clust_8="13000.00000" pt_clust_9="48.03573" pt_clust_10="13000.00000"></scales>
<clustering>
<clus scale="   48.036">  2  9  1 -1</clus>
<clus scale="   80.682">  5  6 -1 -1</clus>
<clus scale="   87.828">  1  5  2 -1</clus>
<clus scale="   99.535">  7  8 -1 -1</clus>
<clus scale="   82.727">  7 10 -1 -1</clus>
<clus scale="   48.036">  2  5  1 -1</clus>
</clustering>
</event>
<event>
10    4  0.2866397E-005  0.3704386E+03  0.7546771E-02  0.1061233E+00
         21   -1    0    0  503  502  0.00000000000E+00  0.00000000000E+00  0.22498426091E+03  0.22498426091E+03  0.00000000000E+00 0. -1.
          2   -1    0    0  502    0 -0.00000000000E+00 -0.00000000000E+00 -0.10439923992E+04  0.10439923992E+04  0.00000000000E+00 0. -1.
         24    2    1    2    0    0 -0.28351274354E+03  0.44777272542E+02 -0.51174793924E+02  0.30288242832E+03  0.82063548312E+02 0.  0.
         23    2    1    2    0    0  0.22909329504E+02 -0.22048057838E+02 -0.23447406801E+03  0.25409296301E+03  0.92596927850E+02 0.  0.
        -13    1    3    3    0    0 -0.56513133191E+02 -0.23354647734E+02 -0.16668349955E+02  0.63379868129E+02  0.00000000000E+00 0.  1.
         14    1    3    3    0    0 -0.22699961035E+03  0.68131920276E+02 -0.34506443969E+02  0.23950256019E+03  0.00000000000E+00 0. -1.
        -13    1    4    4    0    0  0.14151316577E+02 -0.51337445445E+02 -0.76634196693E+02  0.93319843380E+02  0.00000000000E+00 0.  1.
         13    1    4    4    0    0  0.87580129265E+01  0.29289387607E+02 -0.15783987132E+03  0.16077311963E+03  0.00000000000E+00 0. -1.
         21    1    1    2  503  501 -0.13874347208E+02 -0.18643591899E+02  0.56664905777E+02  0.61245347383E+02  0.00000000000E+00 0. -1.
          1    1    1    2  501    0  0.27447776125E+03 -0.40856228053E+01 -0.59002418209E+03  0.65075592136E+03  0.00000000000E+00 0. -1.
<scales pt_clust_5="13000.00000" pt_clust_6="13000.00000" pt_clust_7="13000.00000" pt_clust_8="13000.00000" pt_clust_9="23.23964" pt_clust_10="13000.00000"></scales>
<clustering>
<clus scale="   23.240">  1  9  2 -1</clus>
<clus scale="   82.064">  5  6 -1 -1</clus>
<clus scale="   92.597">  7  8 -1 -1</clus>
<clus scale="  272.044">  7 10 -1 -1</clus>
<clus scale="  306.802">  2  5  1 -1</clus>
<clus scale="   23.240">  1  5  2 -1</clus>
</clustering>
</event>
<event>
10    4  0.2866397E-005  0.2075301E+03  0.7546771E-02  0.1152762E+00
         21   -1    0    0  501  502  0.00000000000E+00  0.00000000000E+00  0.46145973942E+03  0.46145973942E+03  0.00000000000E+00 0. -1.
          2   -1    0    0  503    0 -0.00000000000E+00 -0.00000000000E+00 -0.24293804045E+03  0.24293804045E+03  0.00000000000E+00 0. -1.
         24    2    1    2    0    0 -0.14414145254E+03 -0.17394306227E+03  0.35541273101E+02  0.25358940658E+03  0.10959679643E+03 0.  0.
         23    2    1    2    0    0 -0.52305814287E+01 -0.29000461119E+01 -0.45028495970E+02  0.10451060574E+03  0.94122962204E+02 0.  0.
        -11    1    3    3    0    0  0.99905863521E+01 -0.49163377389E+02  0.22113907848E+02  0.54825855327E+02  0.00000000000E+00 0.  1.
         12    1    3    3    0    0 -0.15413203889E+03 -0.12477968488E+03  0.13427365253E+02  0.19876355126E+03  0.00000000000E+00 0. -1.
        -13    1    4    4    0    0 -0.41929981167E+02 -0.54937590548E+01 -0.52041882202E+02  0.67057156310E+02  0.00000000000E+00 0.  1.
         13    1    4    4    0    0  0.36699399739E+02  0.25937129428E+01  0.70133862326E+01  0.37453449433E+02  0.00000000000E+00 0. -1.
         21    1    1    2  503  502  0.10220763850E+03  0.11295298412E+03  0.21844099873E+03  0.26631043524E+03  0.00000000000E+00 0.  1.
          1    1    1    2  501    0  0.47164395464E+02  0.63890124259E+02  0.95679231027E+01  0.79987332308E+02  0.00000000000E+00 0. -1.
<scales pt_clust_5="13000.00000" pt_clust_6="13000.00000" pt_clust_7="13000.00000" pt_clust_8="13000.00000" pt_clust_9="152.33115" pt_clust_10="13000.00000"></scales>
<clustering>
<clus scale="   94.123">  7  8 -1 -1</clus>
<clus scale="   79.413">  7 10 -1 -1</clus>
<clus scale="  109.597">  5  6 -1 -1</clus>
<clus scale="  152.331">  1  9  2 -1</clus>
<clus scale="  166.663">  2  5  1 -1</clus>
<clus scale="  152.331">  1  5  2 -1</clus>
</clustering>
</event>
<event>
10    4  0.2866397E-005  0.2655930E+03  0.7546771E-02  0.1131331E+00
          2   -1    0    0  503    0 -0.00000000000E+00  0.00000000000E+00  0.72233933387E+03  0.72233933387E+03  0.00000000000E+00 0. -1.
         21   -1    0    0  501  502  0.00000000000E+00 -0.00000000000E+00 -0.17460753080E+03  0.17460753080E+03  0.00000000000E+00 0. -1.
         24    2    1    2    0    0  0.30896476881E+02 -0.87290320154E+02  0.19026645946E+03  0.22648614489E+03  0.80749340281E+02 0.  0.
         23    2    1    2    0    0  0.47034158949E+02  0.13185763817E+03  0.27897729230E+03  0.32494018992E+03  0.90328005375E+02 0.  0.
        -13    1    3    3    0    0 -0.18441033712E+02 -0.16009575619E+02  0.93188471095E+02  0.96335192847E+02  0.00000000000E+00 0.  1.
         14    1    3    3    0    0  0.49337510593E+02 -0.71280744535E+02  0.97077988368E+02  0.13015095205E+03  0.00000000000E+00 0. -1.
        -13    1    4    4    0    0  0.34887660204E+02  0.40917928433E+01  0.36903255015E+02  0.50948423272E+02  0.00000000000E+00 0.  1.
         13    1    4    4    0    0  0.12146498744E+02  0.12776584533E+03  0.24207403728E+03  0.27399176665E+03  0.00000000000E+00 0. -1.
         21    1    1    2  503  502  0.32837572288E+02 -0.31022427155E+02 -0.11422271271E+03  0.12283128771E+03  0.00000000000E+00 0. -1.
          1    1    1    2  501    0 -0.11076820812E+03 -0.13544890866E+02  0.19271076403E+03  0.22268924215E+03  0.00000000000E+00 0. -1.
<scales pt_clust_5="13000.00000" pt_clust_6="13000.00000" pt_clust_7="13000.00000" pt_clust_8="13000.00000" pt_clust_9="45.17408" pt_clust_10="13000.00000"></scales>
<clustering>
<clus scale="   45.174">  2  9  1 -1</clus>
<clus scale="   80.749">  5  6 -1 -1</clus>
<clus scale="   90.328">  7  8 -1 -1</clus>
<clus scale="  104.303">  7 10 -1 -1</clus>
<clus scale="  133.085">  1  5  2 -1</clus>
<clus scale="   45.174">  2  5  1 -1</clus>
</clustering>
</event>
<event>
10    4  0.2866397E-005  0.2738326E+03  0.7546771E-02  0.1147331E+00
          2   -1    0    0  503    0 -0.00000000000E+00  0.00000000000E+00  0.86010562590E+03  0.86010562590E+03  0.00000000000E+00 0. -1.
         21   -1    0    0  501  502  0.00000000000E+00 -0.00000000000E+00 -0.13800442031E+03  0.13800442031E+03  0.00000000000E+00 0.  1.
         24    2    1    2    0    0 -0.17391483504E+02  0.46602456119E+01  0.16914789706E+03  0.18819903841E+03  0.80521335007E+02 0.  0.
         23    2    1    2    0    0  0.55398434356E+02  0.11969278621E+03  0.34626544317E+03  0.38179400421E+03  0.92041050183E+02 0.  0.
        -13    1    3    3    0    0 -0.34674573894E+02  0.33107403623E+02  0.11562436579E+03  0.12516956585E+03  0.00000000000E+00 0.  1.
         14    1    3    3    0    0  0.17283090390E+02 -0.28447158011E+02  0.53523531271E+02  0.63029472567E+02  0.00000000000E+00 0. -1.
        -11    1    4    4    0    0  0.56421612620E+02  0.25511358625E+02  0.94426766157E+02  0.11291874050E+03  0.00000000000E+00 0.  1.
         11    1    4    4    0    0 -0.10231782646E+01  0.94181427586E+02  0.25183867701E+03  0.26887526371E+03  0.00000000000E+00 0. -1.
         21    1    1    2  503  502 -0.11873830963E+03 -0.35546092764E+02 -0.58483596868E+02  0.13704977923E+03  0.00000000000E+00 0.  1.
          1    1    1    2  501    0  0.80731358778E+02 -0.88806939059E+02  0.26517146222E+03  0.29106722435E+03  0.00000000000E+00 0. -1.
<scales pt_clust_5="13000.00000" pt_clust_6="13000.00000" pt_clust_7="13000.00000" pt_clust_8="13000.00000" pt_clust_9="124.82940" pt_clust_10="13000.00000"></scales>
<clustering>
<clus scale="   80.521">  5  6 -1 -1</clus>
<clus scale="   82.510">  1  5  2 -1</clus>
<clus scale="   92.041">  7  8 -1 -1</clus>
<clus scale="  113.905">  7 10 -1 -1</clus>
<clus scale="  124.829">  2  9  1 -1</clus>
<clus scale="  124.829">  2  5  1 -1</clus>
</clustering>
</event>
<event>
10    4  0.2866397E-005  0.5873602E+03  0.7546771E-02  0.1039262E+00
          2   -1    0    0  503    0 -0.00000000000E+00  0.00000000000E+00  0.17954144744E+04  0.17954144744E+04  0.00000000000E+00 0. -1.
         21   -1    0    0  501  502  0.00000000000E+00 -0.00000000000E+00 -0.25468185360E+03  0.25468185360E+03  0.00000000000E+00 0. -1.
         24    2    1    2    0    0  0.68715479525E+02  0.69947183355E+02  0.22968425139E+02  0.13010549043E+03  0.82373930952E+02 0.  0.
         23    2    1    2    0    0 -0.32435497923E+02  0.25166109213E+03  0.68115086980E+03  0.73251696401E+03  0.90715094178E+02 0.  0.
        -13    1    3    3    0    0  0.50106685909E+02  0.85238807659E+02  0.32679334511E+02  0.10413584017E+03  0.00000000000E+00 0.  1.
         14    1    3    3    0    0  0.18608793616E+02 -0.15291624304E+02 -0.97109093718E+01  0.25969650258E+02  0.00000000000E+00 0. -1.
        -11    1    4    4    0    0 -0.17541382642E+02  0.10578173997E+03  0.17213467621E+03  0.20279995900E+03  0.00000000000E+00 0.  1.
         11    1    4    4    0    0 -0.14894115280E+02  0.14587935215E+03  0.50901619360E+03  0.52971700501E+03  0.00000000000E+00 0. -1.
         21    1    1    2  503  502  0.62903550972E+02 -0.16462726892E+02 -0.14276532127E+03  0.15687515756E+03  0.00000000000E+00 0. -1.
          1    1    1    2  501    0 -0.99183532575E+02 -0.30514554859E+03  0.97937864709E+03  0.10305987160E+04  0.00000000000E+00 0. -1.
<scales pt_clust_5="13000.00000" pt_clust_6="13000.00000" pt_clust_7="13000.00000" pt_clust_8="13000.00000" pt_clust_9="65.02214" pt_clust_10="13000.00000"></scales>
<clustering>
<clus scale="   65.022">  2  9  1 -1</clus>
<clus scale="   82.374">  5  6 -1 -1</clus>
<clus scale="   90.715">  7  8 -1 -1</clus>
<clus scale="  144.024">  1  5  2 -1</clus>
<clus scale="  273.613">  7 10 -1 -1</clus>
<clus scale="   65.022">  2  5  1 -1</clus>
</clustering>
</event>
<event>
10    4  0.2866397E-005  0.2602971E+03  0.7546771E-02  0.1139634E+00
          2   -1    0    0  502    0 -0.00000000000E+00  0.00000000000E+00  0.16235184384E+04  0.16235184384E+04  0.00000000000E+00 0. -1.
         21   -1    0    0  503  502  0.00000000000E+00 -0.00000000000E+00 -0.27768214903E+02  0.27768214903E+02  0.00000000000E+00 0. -1.
         24    2    1    2    0    0 -0.70649930506E+02  0.44770754016E+02  0.73034618689E+03  0.73948217944E+03  0.80202917090E+02 0.  0.
         23    2    1    2    0    0  0.44578199849E+02  0.91478471535E+02  0.35132342908E+03  0.37683123531E+03  0.90653744707E+02 0.  0.
        -11    1    3    3    0    0 -0.33506104704E+02  0.18357521763E+02  0.93463259009E+02  0.10097048303E+03  0.00000000000E+00 0.  1.
         12    1    3    3    0    0 -0.37143825802E+02  0.26413232253E+02  0.63688292788E+03  0.63851169642E+03  0.00000000000E+00 0. -1.
        -13    1    4    4    0    0  0.55934804802E+02  0.13871101617E+02  0.13826242558E+03  0.14979188287E+03  0.00000000000E+00 0.  1.
         13    1    4    4    0    0 -0.11356604953E+02  0.77607369919E+02  0.21306100350E+03  0.22703935244E+03  0.00000000000E+00 0. -1.
         21    1    1    2  503  501 -0.10332604132E+02 -0.22515654784E+02  0.50364824324E+02  0.56127826857E+02  0.00000000000E+00 0.  1.
          1    1    1    2  501    0  0.36404334788E+02 -0.11373357077E+03  0.46371578325E+03  0.47884541174E+03  0.00000000000E+00 0. -1.
<scales pt_clust_5="13000.00000" pt_clust_6="13000.00000" pt_clust_7="13000.00000" pt_clust_8="13000.00000" pt_clust_9="24.77332" pt_clust_10="13000.00000"></scales>
<clustering>
<clus scale="   24.773">  2  9  1 -1</clus>
<clus scale="   80.203">  5  6 -1 -1</clus>
<clus scale="   90.654">  7  8 -1 -1</clus>
<clus scale="  115.529">  1  5  2 -1</clus>
<clus scale="   96.685">  7 10 -1 -1</clus>
<clus scale="   24.773">  2  5  1 -1</clus>
</clustering>
</event>
<event>
10    4  0.2866397E-005  0.1870750E+03  0.7546771E-02  0.1181253E+00
          2   -1    0    0  502    0 -0.00000000000E+00  0.00000000000E+00  0.56507753852E+03  0.56507753852E+03  0.00000000000E+00 0. -1.
         21   -1    0    0  503  502  0.00000000000E+00 -0.00000000000E+00 -0.19117483976E+03  0.19117483976E+03  0.00000000000E+00 0. -1.
         24    2    1    2    0    0  0.27491245301E+02 -0.82130455410E+02  0.16930117748E+03  0.20645822847E+03  0.80379917481E+02 0.  0.
         23    2    1    2    0    0 -0.47976226560E+02 -0.58042709514E+02  0.26570047397E+03  0.29002705014E+03  0.88590482019E+02 0.  0.
        -11    1    3    3    0    0 -0.10385375668E+02 -0.56160692355E+02  0.14194305861E+03  0.15300232443E+03  0.00000000000E+00 0.  1.
         12    1    3    3    0    0  0.37876620969E+02 -0.25969763055E+02  0.27358118875E+02  0.53455904048E+02  0.00000000000E+00 0. -1.
        -11    1    4    4    0    0 -0.16362836585E+02 -0.52919084711E+02  0.24658581531E+03  0.25273056059E+03  0.00000000000E+00 0.  1.
         11    1    4    4    0    0 -0.31613389975E+02 -0.51236248030E+01  0.19114658662E+02  0.37296489548E+02  0.00000000000E+00 0. -1.
         21    1    1    2  503  501 -0.43548926358E+01  0.14742892938E+03 -0.12339923293E+03  0.19230607113E+03  0.00000000000E+00 0. -1.
          1    1    1    2  501    0  0.24839873895E+02 -0.72557644569E+01  0.62300280235E+02  0.67461028530E+02  0.00000000000E+00 0. -1.
<scales pt_clust_5="13000.00000" pt_clust_6="13000.00000" pt_clust_7="13000.00000" pt_clust_8="13000.00000" pt_clust_9="139.93924" pt_clust_10="13000.00000"></scales>
<clustering>
<clus scale="   80.380">  5  6 -1 -1</clus>
<clus scale="   88.590">  7  8 -1 -1</clus>
<clus scale="   25.878">  7 10 -1 -1</clus>
<clus scale="  118.161">  1  5  2 -1</clus>
<clus scale="  139.939">  2  9  1 -1</clus>
<clus scale="  139.939">  2  5  1 -1</clus>
</clustering>
</event>
<event>
10    4  0.2866397E-005  0.1471497E+03  0.7546771E-02  0.1221386E+00
         21   -1    0    0  501  502  0.00000000000E+00  0.00000000000E+00  0.25165078925E+03  0.25165078925E+03  0.00000000000E+00 0.  1.
          2   -1    0    0  503    0 -0.00000000000E+00 -0.00000000000E+00 -0.11786237363E+03  0.11786237363E+03  0.00000000000E+00 0. -1.
         24    2    1    2    0    0  0.10236353872E+02 -0.42302590627E+02  0.38082097914E+02  0.10042196315E+03  0.82097700253E+02 0.  0.
         23    2    1    2    0    0 -0.14002739902E+02  0.33690133502E+02  0.15645517210E+02  0.10030323398E+03  0.92113271127E+02 0.  0.
        -13    1    3    3    0    0  0.44732598075E+02 -0.20229052861E+02  0.32999115094E+02  0.59153710849E+02  0.00000000000E+00 0.  1.
         14    1    3    3    0    0 -0.34496244203E+02 -0.22073537765E+02  0.50829828203E+01  0.41268252300E+02  0.00000000000E+00 0. -1.
        -13    1    4    4    0    0 -0.41137754827E+02 -0.13434600344E+02  0.15368444566E+02  0.45923767778E+02  0.00000000000E+00 0.  1.
         13    1    4    4    0    0  0.27135014924E+02  0.47124733846E+02  0.27707264454E+00  0.54379466201E+02  0.00000000000E+00 0. -1.
         21    1    1    2  503  502 -0.17394801763E+02 -0.36509173708E+02  0.10539032029E+03  0.11288320736E+03  0.00000000000E+00 0.  1.
          1    1    1    2  501    0  0.21161187793E+02  0.45121630833E+02 -0.25329519797E+02  0.55904758393E+02  0.00000000000E+00 0. -1.
<scales pt_clust_5="13000.00000" pt_clust_6="13000.00000" pt_clust_7="13000.00000" pt_clust_8="13000.00000" pt_clust_9="40.44130" pt_clust_10="13000.00000"></scales>
<clustering>
<clus scale="   40.441">  1  9  2 -1</clus>
<clus scale="   82.098">  5  6 -1 -1</clus>
<clus scale="   92.113">  7  8 -1 -1</clus>
<clus scale="   45.499">  7 10 -1 -1</clus>
<clus scale="  101.727">  2  5  1 -1</clus>
<clus scale="   40.441">  1  5  2 -1</clus>
</clustering>
</event>
<event>
10    4  0.2866397E-005  0.9206145E+03  0.7546771E-02  0.9526677E-01
         21   -1    0    0  503  502  0.00000000000E+00  0.00000000000E+00  0.59657447192E+03  0.59657447192E+03  0.00000000000E+00 0. -1.
          2   -1    0    0  502    0 -0.00000000000E+00 -0.00000000000E+00 -0.11993447938E+04  0.11993447938E+04  0.00000000000E+00 0. -1.
         24    2    1    2    0    0 -0.28733539254E+03 -0.49786141727E+03 -0.18713313282E+03  0.60994021809E+03  0.81121154013E+02 0.  0.
         23    2    1    2    0    0  0.45261271742E+02  0.31803600721E+03  0.11578753139E+03  0.35326766790E+03  0.90530702845E+02 0.  0.
        -11    1    3    3    0    0 -0.69073896796E+02 -0.60921472539E+02 -0.29045541654E+02  0.96572628239E+02  0.00000000000E+00 0.  1.
         12    1    3    3    0    0 -0.21826149575E+03 -0.43693994473E+03 -0.15808759117E+03  0.51336758985E+03  0.00000000000E+00 0. -1.
        -13    1    4    4    0    0  0.34901182261E+02  0.28374662361E+03  0.68557164290E+02  0.29399034628E+03  0.00000000000E+00 0. -1.
         13    1    4    4    0    0  0.10360089482E+02  0.34289383603E+02  0.47230367101E+02  0.59277321620E+02  0.00000000000E+00 0.  1.
         21    1    1    2  503  501  0.16244153025E+02 -0.32219297809E+02  0.11250156562E+03  0.11814634114E+03  0.00000000000E+00 0. -1.
          1    1    1    2  501    0  0.22582996777E+03  0.21204470787E+03 -0.64392628608E+03  0.71456503860E+03  0.00000000000E+00 0. -1.
<scales pt_clust_5="13000.00000" pt_clust_6="13000.00000" pt_clust_7="13000.00000" pt_clust_8="13000.00000" pt_clust_9="36.08262" pt_clust_10="13000.00000"></scales>
<clustering>
<clus scale="   36.083">  1  9  2 -1</clus>
<clus scale="   81.121">  5  6 -1 -1</clus>
<clus scale="   90.531">  7  8 -1 -1</clus>
<clus scale="  309.039">  7 10 -1 -1</clus>
<clus scale="  589.281">  2  5  1 -1</clus>
<clus scale="   36.083">  1  5  2 -1</clus>
</clustering>
</event>
<event>
10    4  0.2866397E-005  0.6803794E+03  0.7546771E-02  0.1016587E+00
         -1   -1    0    0    0  501 -0.00000000000E+00  0.00000000000E+00  0.47780760052E+03  0.47780760052E+03  0.00000000000E+00 0.  1.
         21   -1    0    0  503  502  0.00000000000E+00 -0.00000000000E+00 -0.59829605741E+03  0.59829605741E+03  0.00000000000E+00 0.  1.
         24    2    1    2    0    0  0.85062143944E+02  0.13877031985E+03  0.21990357569E+03  0.28477932142E+03  0.79050043024E+02 0.  0.
         23    2    1    2    0    0  0.13489886947E+03  0.19791647822E+03 -0.88496577753E+02  0.27094094251E+03  0.90601946569E+02 0.  0.
        -11    1    3    3    0    0  0.36641484480E+02  0.10238411486E+03  0.18576475794E+03  0.21525252763E+03  0.00000000000E+00 0.  1.
         12    1    3    3    0    0  0.48420659464E+02  0.36386204992E+02  0.34138817752E+02  0.69526793786E+02  0.00000000000E+00 0. -1.
        -13    1    4    4    0    0  0.12803484865E+03  0.17135040067E+03 -0.10566182880E+03  0.23857557366E+03  0.00000000000E+00 0.  1.
         13    1    4    4    0    0  0.68640208193E+01  0.26566077542E+02  0.17165251046E+02  0.32365368857E+02  0.00000000000E+00 0. -1.
         21    1    1    2  503  501  0.17160504639E+02  0.17076929151E+02  0.24479435019E+01  0.24333040420E+02  0.00000000000E+00 0. -1.
         -2    1    1    2    0  502 -0.23712151805E+03 -0.35376372722E+03 -0.25434339833E+03  0.49605035358E+03  0.00000000000E+00 0.  1.
<scales pt_clust_5="13000.00000" pt_clust_6="13000.00000" pt_clust_7="13000.00000" pt_clust_8="13000.00000" pt_clust_9="24.20961" pt_clust_10="13000.00000"></scales>
<clustering>
<clus scale="   24.210">  2  9  1 -1</clus>
<clus scale="   79.050">  5  6 -1 -1</clus>
<clus scale="   90.602">  7  8 -1 -1</clus>
<clus scale="  182.117">  1  5  2 -1</clus>
<clus scale="  323.110">  7 10 -1 -1</clus>
<clus scale="   24.210">  2  5  1 -1</clus>
</clustering>
</event>
<event>
10    4  0.2866397E-005  0.4034456E+03  0.7546771E-02  0.1049260E+00
          2   -1    0    0  502    0 -0.00000000000E+00  0.00000000000E+00  0.27107696286E+04  0.27107696286E+04  0.00000000000E+00 0. -1.
         21   -1    0    0  503  502  0.00000000000E+00 -0.00000000000E+00 -0.26102390848E+03  0.26102390848E+03  0.00000000000E+00 0. -1.
         24    2    1    2    0    0  0.31597476464E+03  0.44732360090E+02  0.23704375468E+04  0.23933039119E+04  0.84192727497E+02 0.  0.
         23    2    1    2    0    0 -0.14811753731E+03 -0.12961072724E+03  0.48349473593E+02  0.22245084116E+03  0.91700379841E+02 0.  0.
        -11    1    3    3    0    0  0.32929279482E+02 -0.19727659770E+02  0.21408619206E+03  0.21750038078E+03  0.00000000000E+00 0.  1.
         12    1    3    3    0    0  0.28304548516E+03  0.64460019860E+02  0.21563513548E+04  0.21758035311E+04  0.00000000000E+00 0. -1.
        -11    1    4    4    0    0 -0.12742566597E+03 -0.10048366235E+03 -0.67322345508E-01  0.16227837588E+03  0.00000000000E+00 0. -1.
         11    1    4    4    0    0 -0.20691871336E+02 -0.29127064890E+02  0.48416795939E+02  0.60172465277E+02  0.00000000000E+00 0.  1.
         21    1    1    2  503  501  0.39164618360E+02  0.32169811009E+02 -0.95265169633E+02  0.10790837139E+03  0.00000000000E+00 0. -1.
          1    1    1    2  501    0 -0.20702184569E+03  0.52708556138E+02  0.12622386935E+03  0.24813041264E+03  0.00000000000E+00 0. -1.
<scales pt_clust_5="13000.00000" pt_clust_6="13000.00000" pt_clust_7="13000.00000" pt_clust_8="13000.00000" pt_clust_9="50.68298" pt_clust_10="13000.00000"></scales>
<clustering>
<clus scale="   50.683">  2  9  1 -1</clus>
<clus scale="   84.193">  5  6 -1 -1</clus>
<clus scale="   91.700">  7  8 -1 -1</clus>
<clus scale="  202.753">  7 10 -1 -1</clus>
<clus scale="  333.052">  1  5  2 -1</clus>
<clus scale="   50.683">  2  5  1 -1</clus>
</clustering>
</event>
<event>
10    4  0.2866397E-005  0.2501429E+03  0.7546771E-02  0.1140304E+00
         21   -1    0    0  501  502  0.00000000000E+00  0.00000000000E+00  0.72647828708E+03  0.72647828708E+03  0.00000000000E+00 0.  1.
         -3   -1    0    0    0  501 -0.00000000000E+00 -0.00000000000E+00 -0.90568639695E+02  0.90568639695E+02  0.00000000000E+00 0.  1.
         24    2    1    2    0    0 -0.57512756528E+02 -0.64122250028E+02  0.65570106884E+02  0.13474033139E+03  0.80225543779E+02 0.  0.
         23    2    1    2    0    0  0.59007961837E+02  0.48485697500E+02  0.34706148094E+03  0.36724141267E+03  0.92637903741E+02 0.  0.
        -11    1    3    3    0    0 -0.76238290596E+02 -0.55240952351E+02  0.64232720516E+02  0.11397228678E+03  0.00000000000E+00 0.  1.
         12    1    3    3    0    0  0.18725534068E+02 -0.88812976774E+01  0.13373863679E+01  0.20768044609E+02  0.00000000000E+00 0. -1.
        -13    1    4    4    0    0  0.78464358807E+02  0.18608755452E+02  0.19420705682E+03  0.21028390881E+03  0.00000000000E+00 0.  1.
         13    1    4    4    0    0 -0.19456396970E+02  0.29876942048E+02  0.15285442411E+03  0.15695750387E+03  0.00000000000E+00 0. -1.
         21    1    1    2  503  502 -0.82733172340E+01 -0.86639236731E+02  0.18712715575E+03  0.20637678537E+03  0.00000000000E+00 0. -1.
         -4    1    1    2    0  503  0.67781119249E+01  0.10227578926E+03  0.36150903811E+02  0.10868839734E+03  0.00000000000E+00 0.  1.
<scales pt_clust_5="13000.00000" pt_clust_6="13000.00000" pt_clust_7="13000.00000" pt_clust_8="13000.00000" pt_clust_9="87.03336" pt_clust_10="13000.00000"></scales>
<clustering>
<clus scale="   80.226">  5  6 -1 -1</clus>
<clus scale="   87.033">  1  9  2 -1</clus>
<clus scale="   92.638">  7  8 -1 -1</clus>
<clus scale="   90.607">  7 10 -1 -1</clus>
<clus scale="  128.090">  2  5  1 -1</clus>
<clus scale="   87.033">  1  5  2 -1</clus>
</clustering>
</event>
<event>
10    4  0.2866397E-005  0.2416023E+03  0.7546771E-02  0.1149895E+00
         21   -1    0    0  503  502  0.00000000000E+00  0.00000000000E+00  0.16516891027E+03  0.16516891027E+03  0.00000000000E+00 0.  1.
          2   -1    0    0  502    0 -0.00000000000E+00 -0.00000000000E+00 -0.58332624146E+03  0.58332624146E+03  0.00000000000E+00 0. -1.
         24    2    1    2    0    0 -0.20287575190E+02 -0.42273179301E+02 -0.10664801239E+02  0.94789970847E+02  0.81687166632E+02 0.  0.
         23    2    1    2    0    0  0.90765210950E+02 -0.20315319835E+02 -0.22987835606E+03  0.26401469013E+03  0.90601668203E+02 0.  0.
        -13    1    3    3    0    0 -0.15814331238E+02 -0.66352963260E+02 -0.34379726894E+00  0.68212366931E+02  0.00000000000E+00 0.  1.
         14    1    3    3    0    0 -0.44732439516E+01  0.24079783958E+02 -0.10321003970E+02  0.26577603915E+02  0.00000000000E+00 0. -1.
        -11    1    4    4    0    0  0.15633545083E+02  0.32714466934E+02 -0.85055453129E+02  0.92461203678E+02  0.00000000000E+00 0. -1.
         11    1    4    4    0    0  0.75131665868E+02 -0.53029786769E+02 -0.14482290294E+03  0.17155348646E+03  0.00000000000E+00 0.  1.
         21    1    1    2  503  501 -0.25344151389E+02 -0.47006072188E+02  0.85673473808E+02  0.10095464797E+03  0.00000000000E+00 0.  1.
          1    1    1    2  501    0 -0.45133484372E+02  0.10959457132E+03 -0.26328764769E+03  0.28873584277E+03  0.00000000000E+00 0. -1.
<scales pt_clust_5="13000.00000" pt_clust_6="13000.00000" pt_clust_7="13000.00000" pt_clust_8="13000.00000" pt_clust_9="53.40315" pt_clust_10="13000.00000"></scales>
<clustering>
<clus scale="   53.403">  1  9  2 -1</clus>
<clus scale="   81.687">  5  6 -1 -1</clus>
<clus scale="   90.602">  7  8 -1 -1</clus>
<clus scale="  112.774">  7 10 -1 -1</clus>
<clus scale="  113.036">  2  5  1 -1</clus>
<clus scale="   53.403">  1  5  2 -1</clus>
</clustering>
</event>
<event>
10    4  0.2866397E-005  0.3061727E+03  0.7546771E-02  0.1095414E+00
         21   -1    0    0  503  502  0.00000000000E+00  0.00000000000E+00  0.14680232191E+03  0.14680232191E+03  0.00000000000E+00 0.  1.
          2   -1    0    0  502    0 -0.00000000000E+00 -0.00000000000E+00 -0.13794050758E+04  0.13794050758E+04  0.00000000000E+00 0. -1.
         24    2    1    2    0    0 -0.53171323580E+02 -0.18853999982E+03 -0.89076736936E+03  0.91535824408E+03  0.77715426437E+02 0.  0.
         23    2    1    2    0    0  0.61873120782E+02  0.72612833967E+02 -0.53970974581E+02  0.14217675739E+03  0.90556377543E+02 0.  0.
        -11    1    3    3    0    0 -0.38158316887E+02 -0.53224662959E+02 -0.17710358437E+03  0.18882426087E+03  0.00000000000E+00 0.  1.
         12    1    3    3    0    0 -0.15013006693E+02 -0.13531533686E+03 -0.71366378499E+03  0.72653398322E+03  0.00000000000E+00 0. -1.
        -13    1    4    4    0    0  0.30236241506E+02  0.90332856729E+02 -0.38150034716E+02  0.10261423125E+03  0.00000000000E+00 0. -1.
         13    1    4    4    0    0  0.31636879275E+02 -0.17720022762E+02 -0.15820939866E+02  0.39562526148E+02  0.00000000000E+00 0.  1.
         21    1    1    2  503  501 -0.57017724767E+02 -0.13957951618E+02  0.66185830865E+02  0.88466997000E+02  0.00000000000E+00 0.  1.
          1    1    1    2  501    0  0.48315927565E+02  0.12988511747E+03 -0.35405024086E+03  0.38020539928E+03  0.00000000000E+00 0. -1.
<scales pt_clust_5="13000.00000" pt_clust_6="13000.00000" pt_clust_7="13000.00000" pt_clust_8="13000.00000" pt_clust_9="58.70132" pt_clust_10="13000.00000"></scales>
<clustering>
<clus scale="   58.701">  1  9  2 -1</clus>
<clus scale="   77.715">  5  6 -1 -1</clus>
<clus scale="   90.556">  7  8 -1 -1</clus>
<clus scale="  132.692">  7 10 -1 -1</clus>
<clus scale="  215.700">  2  5  1 -1</clus>
<clus scale="   58.701">  1  5  2 -1</clus>
</clustering>
</event>
<event>
10    4  0.2866397E-005  0.6607336E+03  0.7546771E-02  0.1032725E+00
          2   -1    0    0  503    0 -0.00000000000E+00  0.00000000000E+00  0.91615555754E+03  0.91615555754E+03  0.00000000000E+00 0. -1.
         21   -1    0    0  501  502  0.00000000000E+00 -0.00000000000E+00 -0.10304640879E+04  0.10304640879E+04  0.00000000000E+00 0. -1.
         24    2    1    2    0    0  0.78826065025E+02 -0.47462378024E+02 -0.72340532606E+02  0.14230990373E+03  0.80948935675E+02 0.  0.
         23    2    1    2    0    0  0.29263858150E+02 -0.15055535767E+03  0.61068002073E+03  0.63620901464E+03  0.91151157241E+02 0.  0.
        -11    1    3    3    0    0  0.83282354412E+02 -0.56085891406E+02 -0.39218111491E+02  0.10779442490E+03  0.00000000000E+00 0.  1.
         12    1    3    3    0    0 -0.44562893867E+01  0.86235133824E+01 -0.33122421115E+02  0.34515478827E+02  0.00000000000E+00 0. -1.
        -13    1    4    4    0    0  0.57217460137E+02 -0.13022942743E+03  0.52194173952E+03  0.54097756050E+03  0.00000000000E+00 0.  1.
         13    1    4    4    0    0 -0.27953601987E+02 -0.20325930237E+02  0.88738281219E+02  0.95231454140E+02  0.00000000000E+00 0. -1.
         21    1    1    2  503  502  0.18485674187E+03  0.89868174958E+01 -0.77639547545E+03  0.79814955503E+03  0.00000000000E+00 0. -1.
          1    1    1    2  501    0 -0.29294666504E+03  0.18903091820E+03  0.12374745696E+03  0.36995117205E+03  0.00000000000E+00 0. -1.
<scales pt_clust_5="13000.00000" pt_clust_6="13000.00000" pt_clust_7="13000.00000" pt_clust_8="13000.00000" pt_clust_9="186.01956" pt_clust_10="13000.00000"></scales>
<clustering>
<clus scale="   80.949">  5  6 -1 -1</clus>
<clus scale="   91.151">  7  8 -1 -1</clus>
<clus scale="  122.552">  1  5  2 -1</clus>
<clus scale="  186.020">  2  9  1 -1</clus>
<clus scale="  247.126">  7 10 -1 -1</clus>
<clus scale="  186.020">  2  5  1 -1</clus>
</clustering>
</event>
<event>
10    4  0.2866397E-005  0.4796758E+03  0.7546771E-02  0.1027632E+00
         21   -1    0    0  503  502  0.00000000000E+00  0.00000000000E+00  0.73948972046E+02  0.73948972046E+02  0.00000000000E+00 0. -1.
          2   -1    0    0  502    0 -0.00000000000E+00 -0.00000000000E+00 -0.32503455104E+04  0.32503455104E+04  0.00000000000E+00 0. -1.
         24    2    1    2    0    0  0.11659883995E+03 -0.38136803077E+03 -0.14192530841E+04  0.14767674090E+04  0.86751363049E+02 0.  0.
         23    2    1    2    0    0 -0.13610276215E+03  0.91459884220E+02 -0.40328452725E+03  0.44489265643E+03  0.91663479859E+02 0.  0.
        -11    1    3    3    0    0  0.26761273734E+01 -0.90906651604E+02 -0.23163422002E+03  0.24884853395E+03  0.00000000000E+00 0.  1.
         12    1    3    3    0    0  0.11392271258E+03 -0.29046137916E+03 -0.11876188641E+04  0.12279188750E+04  0.00000000000E+00 0. -1.
        -13    1    4    4    0    0 -0.11402452026E+03  0.31537006553E+02 -0.31032527325E+03  0.33211135063E+03  0.00000000000E+00 0. -1.
         13    1    4    4    0    0 -0.22078241895E+02  0.59922877667E+02 -0.92959253999E+02  0.11278130580E+03  0.00000000000E+00 0.  1.
         21    1    1    2  503  501 -0.76041199244E+01  0.75660172823E+02 -0.79139307264E+02  0.10975114735E+03  0.00000000000E+00 0. -1.
          1    1    1    2  501    0  0.27108042124E+02  0.21424797372E+03 -0.12747196197E+04  0.12928832697E+04  0.00000000000E+00 0. -1.
<scales pt_clust_5="13000.00000" pt_clust_6="13000.00000" pt_clust_7="13000.00000" pt_clust_8="13000.00000" pt_clust_9="76.04133" pt_clust_10="13000.00000"></scales>
<clustering>
<clus scale="   76.041">  1  9  2 -1</clus>
<clus scale="   86.751">  5  6 -1 -1</clus>
<clus scale="   91.663">  7  8 -1 -1</clus>
<clus scale="  227.448">  7 10 -1 -1</clus>
<clus scale="  372.538">  2  5  1 -1</clus>
<clus scale="   76.041">  1  5  2 -1</clus>
</clustering>
</event>
<event>
10    4  0.2866397E-005  0.3652005E+03  0.7546771E-02  0.1094433E+00
          2   -1    0    0  503    0 -0.00000000000E+00  0.00000000000E+00  0.10018708183E+04  0.10018708183E+04  0.00000000000E+00 0. -1.
         21   -1    0    0  501  502  0.00000000000E+00 -0.00000000000E+00 -0.21992877911E+03  0.21992877911E+03  0.00000000000E+00 0. -1.
         24    2    1    2    0    0 -0.71093724599E+02  0.73946421070E+02  0.31596199923E+03  0.34181830767E+03  0.80531854770E+02 0.  0.
         23    2    1    2    0    0 -0.46449277109E+02  0.10381597338E+01  0.36444608537E+03  0.37826951696E+03  0.90045906072E+02 0.  0.
        -11    1    3    3    0    0 -0.13116806956E+02  0.41929806479E+02  0.22529059796E+03  0.22953433910E+03  0.00000000000E+00 0.  1.
         12    1    3    3    0    0 -0.57976917643E+02  0.32016614591E+02  0.90671401269E+02  0.11228396857E+03  0.00000000000E+00 0. -1.
        -13    1    4    4    0    0 -0.73276515781E+02 -0.20592818921E+00  0.29044236253E+03  0.29954341276E+03  0.00000000000E+00 0. -1.
         13    1    4    4    0    0  0.26827238672E+02  0.12440879231E+01  0.74003722839E+02  0.78726104207E+02  0.00000000000E+00 0.  1.
         21    1    1    2  503  502 -0.11812884212E+03 -0.71416593497E+02 -0.11650128825E+03  0.18063029461E+03  0.00000000000E+00 0. -1.
          1    1    1    2  501    0  0.23567184383E+03 -0.35679873065E+01  0.21803524281E+03  0.32108147815E+03  0.00000000000E+00 0. -1.
<scales pt_clust_5="13000.00000" pt_clust_6="13000.00000" pt_clust_7="13000.00000" pt_clust_8="13000.00000" pt_clust_9="139.19656" pt_clust_10="13000.00000"></scales>
<clustering>
<clus scale="   80.532">  5  6 -1 -1</clus>
<clus scale="   90.046">  7  8 -1 -1</clus>
<clus scale="  130.414">  1  5  2 -1</clus>
<clus scale="  139.197">  2  9  1 -1</clus>
<clus scale="  129.067">  7 10 -1 -1</clus>
<clus scale="  139.197">  2  5  1 -1</clus>
</clustering>
</event>
<event>
10    4  0.2866397E-005  0.7212337E+03  0.7546771E-02  0.1005880E+00
         21   -1    0    0  501  502  0.00000000000E+00  0.00000000000E+00  0.32583963039E+03  0.32583963039E+03  0.00000000000E+00 0. -1.
          2   -1    0    0  503    0 -0.00000000000E+00 -0.00000000000E+00 -0.11745424086E+04  0.11745424086E+04  0.00000000000E+00 0. -1.
         24    2    1    2    0    0 -0.56757632314E+02 -0.19888041290E+03 -0.11055857591E+02  0.22192524120E+03  0.79710308202E+02 0.  0.
         23    2    1    2    0    0 -0.18791066852E+03 -0.19532610320E+03 -0.32233692063E+03  0.43025154968E+03  0.88048848170E+02 0.  0.
        -13    1    3    3    0    0 -0.47666744755E+02 -0.13726797953E+03 -0.43528653079E+02  0.15168836606E+03  0.00000000000E+00 0.  1.
         14    1    3    3    0    0 -0.90908875587E+01 -0.61612433374E+02  0.32472795488E+02  0.70236875142E+02  0.00000000000E+00 0. -1.
        -13    1    4    4    0    0 -0.12238704346E+03 -0.10509313420E+03 -0.12693865849E+03  0.20527196176E+03  0.00000000000E+00 0. -1.
         13    1    4    4    0    0 -0.65523625058E+02 -0.90232969001E+02 -0.19539826213E+03  0.22497958792E+03  0.00000000000E+00 0.  1.
         21    1    1    2  503  502  0.47303370437E+02  0.10533952067E+02  0.91558623135E+02  0.10359321634E+03  0.00000000000E+00 0. -1.
          1    1    1    2  501    0  0.19736493040E+03  0.38367256403E+03 -0.60686862314E+03  0.74461203180E+03  0.00000000000E+00 0. -1.
<scales pt_clust_5="13000.00000" pt_clust_6="13000.00000" pt_clust_7="13000.00000" pt_clust_8="13000.00000" pt_clust_9="48.46208" pt_clust_10="13000.00000"></scales>
<clustering>
<clus scale="   48.462">  1  9  2 -1</clus>
<clus scale="   79.710">  5  6 -1 -1</clus>
<clus scale="   88.049">  7  8 -1 -1</clus>
<clus scale="  212.636">  2  5  1 -1</clus>
<clus scale="  319.298">  7 10 -1 -1</clus>
<clus scale="   48.462">  1  5  2 -1</clus>
</clustering>
</event>
<event>
10    4  0.2866397E-005  0.1643583E+03  0.7546771E-02  0.1216651E+00
          2   -1    0    0  502    0 -0.00000000000E+00  0.00000000000E+00  0.49201009162E+03  0.49201009162E+03  0.00000000000E+00 0. -1.
         21   -1    0    0  503  502  0.00000000000E+00 -0.00000000000E+00 -0.14794017624E+03  0.14794017624E+03  0.00000000000E+00 0. -1.
         24    2    1    2    0    0  0.32097309133E+01  0.16481787650E+02  0.60794899045E+01  0.72599621052E+02  0.70368978127E+02 0.  0.
         23    2    1    2    0    0  0.47390947526E+02 -0.57383761419E+02  0.36697208381E+03  0.38494607494E+03  0.89309419035E+02 0.  0.
        -13    1    3    3    0    0  0.35206671238E+02  0.13682052298E+02  0.12614164780E+02  0.39822423430E+02  0.00000000000E+00 0.  1.
         14    1    3    3    0    0 -0.31996940325E+02  0.27997353520E+01 -0.65346748757E+01  0.32777197622E+02  0.00000000000E+00 0. -1.
        -13    1    4    4    0    0  0.28653085608E+02 -0.80805731510E+02  0.28707800214E+03  0.29960698402E+03  0.00000000000E+00 0. -1.
         13    1    4    4    0    0  0.18737861918E+02  0.23421970092E+02  0.79894081669E+02  0.85339090914E+02  0.00000000000E+00 0.  1.
         21    1    1    2  503  501 -0.71932096193E+01  0.33581285809E+02 -0.96148422154E+02  0.10209781635E+03  0.00000000000E+00 0. -1.
          1    1    1    2  501    0 -0.43407468820E+02  0.73206879599E+01  0.67166763812E+02  0.80306755523E+02  0.00000000000E+00 0. -1.
<scales pt_clust_5="13000.00000" pt_clust_6="13000.00000" pt_clust_7="13000.00000" pt_clust_8="13000.00000" pt_clust_9="34.34305" pt_clust_10="13000.00000"></scales>
<clustering>
<clus scale="   34.343">  2  9  1 -1</clus>
<clus scale="   70.369">  5  6 -1 -1</clus>
<clus scale="   80.647">  1  5  2 -1</clus>
<clus scale="   89.309">  7  8 -1 -1</clus>
<clus scale="   48.639">  7 10 -1 -1</clus>
<clus scale="   34.343">  2  5  1 -1</clus>
</clustering>
</event>
<event>
10    4  0.2866397E-005  0.2936677E+03  0.7546771E-02  0.1102615E+00
         21   -1    0    0  503  502  0.00000000000E+00  0.00000000000E+00  0.33384929247E+03  0.33384929247E+03  0.00000000000E+00 0. -1.
          2   -1    0    0  502    0 -0.00000000000E+00 -0.00000000000E+00 -0.72012977655E+03  0.72012977655E+03  0.00000000000E+00 0. -1.
         24    2    1    2    0    0  0.19038705800E+03 -0.52906144944E+01  0.64484145836E+02  0.21659256606E+03  0.80491689972E+02 0.  0.
         23    2    1    2    0    0  0.13494872593E+02 -0.28907735184E+01 -0.22679704490E+03  0.24489192052E+03  0.91349247416E+02 0.  0.
        -11    1    3    3    0    0  0.89669044535E+02  0.23360843573E+02 -0.17695081181E+01  0.92679003659E+02  0.00000000000E+00 0.  1.
         12    1    3    3    0    0  0.10071801346E+03 -0.28651458067E+02  0.66253653954E+02  0.12391356240E+03  0.00000000000E+00 0. -1.
        -11    1    4    4    0    0  0.43064862977E+02  0.10728194159E+02 -0.19271651235E+03  0.19776079162E+03  0.00000000000E+00 0. -1.
         11    1    4    4    0    0 -0.29569990384E+02 -0.13618967678E+02 -0.34080532551E+02  0.47131128894E+02  0.00000000000E+00 0.  1.
         21    1    1    2  503  501 -0.40876439296E+02  0.13054972643E+03  0.12698097714E+03  0.18665016185E+03  0.00000000000E+00 0. -1.
          1    1    1    2  501    0 -0.16300549130E+03 -0.12236833842E+03 -0.35094856216E+03  0.40584442059E+03  0.00000000000E+00 0. -1.
<scales pt_clust_5="13000.00000" pt_clust_6="13000.00000" pt_clust_7="13000.00000" pt_clust_8="13000.00000" pt_clust_9="136.79954" pt_clust_10="13000.00000"></scales>
<clustering>
<clus scale="   80.492">  5  6 -1 -1</clus>
<clus scale="   91.349">  7  8 -1 -1</clus>
<clus scale="  136.800">  1  9  2 -1</clus>
<clus scale="  197.755">  7 10 -1 -1</clus>
<clus scale="  202.719">  2  5  1 -1</clus>
<clus scale="  136.800">  1  5  2 -1</clus>
</clustering>
</event>
<event>
10    4  0.2866397E-005  0.3890506E+03  0.7546771E-02  0.1056340E+00
          2   -1    0    0  503    0 -0.00000000000E+00  0.00000000000E+00  0.78611178391E+03  0.78611178391E+03  0.00000000000E+00 0. -1.
         21   -1    0    0  501  502  0.00000000000E+00 -0.00000000000E+00 -0.37662607792E+03  0.37662607792E+03  0.00000000000E+00 0. -1.
         24    2    1    2    0    0  0.26807129598E+03  0.11717730110E+03  0.12677066458E+02  0.30406940349E+03  0.81882565325E+02 0.  0.
         23    2    1    2    0    0  0.11688607308E+02 -0.21463237743E+02  0.14890579495E+03  0.18625578075E+03  0.10918326785E+03 0.  0.
        -13    1    3    3    0    0  0.14247356120E+03  0.42123995282E+02  0.42955105259E+02  0.15465538363E+03  0.00000000000E+00 0.  1.
         14    1    3    3    0    0  0.12559773478E+03  0.75053305816E+02 -0.30278038802E+02  0.14941401986E+03  0.00000000000E+00 0. -1.
        -13    1    4    4    0    0 -0.27215364750E+02  0.31772451499E+02  0.34570430928E+02  0.54270428847E+02  0.00000000000E+00 0. -1.
         13    1    4    4    0    0  0.38903972058E+02 -0.53235689242E+02  0.11433536402E+03  0.13198535190E+03  0.00000000000E+00 0.  1.
         21    1    1    2  503  502 -0.38836603029E+03 -0.21671751031E+03  0.10740885698E+03  0.45752739296E+03  0.00000000000E+00 0. -1.
          1    1    1    2  501    0  0.10860612700E+03  0.12100344696E+03  0.14049398761E+03  0.21488528463E+03  0.00000000000E+00 0. -1.
<scales pt_clust_5="13000.00000" pt_clust_6="13000.00000" pt_clust_7="13000.00000" pt_clust_8="13000.00000" pt_clust_9="313.97080" pt_clust_10="13000.00000"></scales>
<clustering>
<clus scale="   81.883">  5  6 -1 -1</clus>
<clus scale="  109.183">  7  8 -1 -1</clus>
<clus scale="  162.595">  7 10 -1 -1</clus>
<clus scale="  303.805">  1  5  2 -1</clus>
<clus scale="  313.971">  2  9  1 -1</clus>
<clus scale="  313.971">  2  5  1 -1</clus>
</clustering>
</event>
<event>
10    4  0.2866397E-005  0.3165065E+03  0.7546771E-02  0.1116543E+00
          2   -1    0    0  502    0 -0.00000000000E+00  0.00000000000E+00  0.97271112963E+03  0.97271112963E+03  0.00000000000E+00 0. -1.
         21   -1    0    0  503  502  0.00000000000E+00 -0.00000000000E+00 -0.10533925806E+03  0.10533925806E+03  0.00000000000E+00 0. -1.
         24    2    1    2    0    0 -0.94843937148E+02  0.18627323359E+02  0.44833384068E+03  0.46482488772E+03  0.75608160660E+02 0.  0.
         23    2    1    2    0    0 -0.98306518649E+02  0.12268190814E+03  0.24887992985E+03  0.30685822630E+03  0.86635612616E+02 0.  0.
        -11    1    3    3    0    0 -0.34651981355E+02 -0.65025461273E+01  0.49967650014E+02  0.61153977515E+02  0.00000000000E+00 0.  1.
         12    1    3    3    0    0 -0.60191955794E+02  0.25129869487E+02  0.39836619066E+03  0.40367091020E+03  0.00000000000E+00 0. -1.
        -11    1    4    4    0    0 -0.55811152089E+02  0.36994646887E+02  0.42273895100E+02  0.79186935808E+02  0.00000000000E+00 0. -1.
         11    1    4    4    0    0 -0.42495366560E+02  0.85687261251E+02  0.20660603475E+03  0.22767129049E+03  0.00000000000E+00 0.  1.
         21    1    1    2  503  501  0.80426786006E+02 -0.76771599818E+02  0.29760981580E+02  0.11510022793E+03  0.00000000000E+00 0.  1.
          1    1    1    2  501    0  0.11272366979E+03 -0.64537631680E+02  0.14039711946E+03  0.19126704574E+03  0.00000000000E+00 0. -1.
<scales pt_clust_5="13000.00000" pt_clust_6="13000.00000" pt_clust_7="13000.00000" pt_clust_8="13000.00000" pt_clust_9="111.18609" pt_clust_10="13000.00000"></scales>
<clustering>
<clus scale="   75.608">  5  6 -1 -1</clus>
<clus scale="   86.636">  7  8 -1 -1</clus>
<clus scale="  111.186">  2  9  1 -1</clus>
<clus scale="  113.531">  1  5  2 -1</clus>
<clus scale="  132.046">  7 10 -1 -1</clus>
<clus scale="  111.186">  2  5  1 -1</clus>
</clustering>
</event>
<event>
10    4  0.2866397E-005  0.5709429E+03  0.7546771E-02  0.1045813E+00
          2   -1    0    0  502    0 -0.00000000000E+00  0.00000000000E+00  0.13272324047E+04  0.13272324047E+04  0.00000000000E+00 0. -1.
         21   -1    0    0  503  502  0.00000000000E+00 -0.00000000000E+00 -0.12426223269E+03  0.12426223269E+03  0.00000000000E+00 0. -1.
         24    2    1    2    0    0 -0.10146936257E+03 -0.27147696769E+02  0.36638232631E+03  0.38956811758E+03  0.80587097124E+02 0.  0.
         23    2    1    2    0    0  0.17821996359E+03  0.17854352624E+03  0.18483004060E+03  0.32623734914E+03  0.92889815823E+02 0.  0.
        -13    1    3    3    0    0 -0.60743297358E+02  0.23674796759E+02  0.21759011627E+03  0.22714687511E+03  0.00000000000E+00 0.  1.
         14    1    3    3    0    0 -0.40726065209E+02 -0.50822493528E+02  0.14879221005E+03  0.16242124247E+03  0.00000000000E+00 0. -1.
        -13    1    4    4    0    0 -0.26073616927E+01  0.39908613867E+02  0.38017936748E+02  0.55180243841E+02  0.00000000000E+00 0.  1.
         13    1    4    4    0    0  0.18082732528E+03  0.13863491237E+03  0.14681210385E+03  0.27105710530E+03  0.00000000000E+00 0. -1.
         21    1    1    2  503  501  0.22977430044E+02  0.24852740979E+02 -0.16332695574E+02  0.37581617452E+02  0.00000000000E+00 0. -1.
          1    1    1    2  501    0 -0.99728031064E+02 -0.17624857045E+03  0.66809050066E+03  0.69810755321E+03  0.00000000000E+00 0. -1.
<scales pt_clust_5="13000.00000" pt_clust_6="13000.00000" pt_clust_7="13000.00000" pt_clust_8="13000.00000" pt_clust_9="33.84702" pt_clust_10="13000.00000"></scales>
<clustering>
<clus scale="   33.847">  2  9  1 -1</clus>
<clus scale="   80.587">  5  6 -1 -1</clus>
<clus scale="   92.890">  7  8 -1 -1</clus>
<clus scale="  129.720">  1  5  2 -1</clus>
<clus scale="  249.531">  7 10 -1 -1</clus>
<clus scale="   33.847">  2  5  1 -1</clus>
</clustering>
</event>
<event>
10    4  0.2866397E-005  0.6596095E+03  0.7546771E-02  0.9908729E-01
         21   -1    0    0  501  502  0.00000000000E+00  0.00000000000E+00  0.20199531957E+04  0.20199531957E+04  0.00000000000E+00 0.  1.
          2   -1    0    0  503    0 -0.00000000000E+00 -0.00000000000E+00 -0.21315678395E+03  0.21315678395E+03  0.00000000000E+00 0. -1.
         24    2    1    2    0    0 -0.39352886135E+03 -0.20409334728E+03  0.27705592803E+03  0.52927018047E+03  0.82751903664E+02 0.  0.
         23    2    1    2    0    0 -0.16956888040E+02 -0.10252474536E+03  0.18463389946E+03  0.23297379191E+03  0.96892989555E+02 0.  0.
        -11    1    3    3    0    0 -0.32680454854E+03 -0.16461299065E+03  0.26261871830E+03  0.45040786055E+03  0.00000000000E+00 0.  1.
         12    1    3    3    0    0 -0.66724312809E+02 -0.39480356621E+02  0.14437209725E+02  0.78862319921E+02  0.00000000000E+00 0. -1.
        -11    1    4    4    0    0 -0.19818642100E+02 -0.53375630463E+02  0.17335553778E+03  0.18246610365E+03  0.00000000000E+00 0.  1.
         11    1    4    4    0    0  0.28617540601E+01 -0.49149114898E+02  0.11278361681E+02  0.50507688264E+02  0.00000000000E+00 0. -1.
         21    1    1    2  503  502  0.35639901623E+02 -0.30020818613E+02  0.37354715498E+03  0.37644246457E+03  0.00000000000E+00 0. -1.
          1    1    1    2  501    0  0.37484584777E+03  0.33663891125E+03  0.97155942925E+03  0.10944235427E+04  0.00000000000E+00 0. -1.
<scales pt_clust_5="13000.00000" pt_clust_6="13000.00000" pt_clust_7="13000.00000" pt_clust_8="13000.00000" pt_clust_9="46.59884" pt_clust_10="13000.00000"></scales>
<clustering>
<clus scale="   46.599">  1  9  2 -1</clus>
<clus scale="   82.752">  5  6 -1 -1</clus>
<clus scale="   96.893">  7  8 -1 -1</clus>
<clus scale="  446.795">  2  5  1 -1</clus>
<clus scale="  208.122">  7 10 -1 -1</clus>
<clus scale="   46.599">  1  5  2 -1</clus>
</clustering>
</event>
<event>
10    4  0.2866397E-005  0.3771502E+03  0.7546771E-02  0.1082342E+00
          2   -1    0    0  503    0 -0.00000000000E+00  0.00000000000E+00  0.86931267351E+03  0.86931267351E+03  0.00000000000E+00 0. -1.
         21   -1    0    0  501  502  0.00000000000E+00 -0.00000000000E+00 -0.45599643797E+03  0.45599643797E+03  0.00000000000E+00 0. -1.
         24    2    1    2    0    0 -0.66700889134E+02  0.15983369047E+03 -0.11376335096E+03  0.22424171616E+03  0.85711317968E+02 0.  0.
         23    2    1    2    0    0  0.15486544610E+03 -0.20638176093E+02  0.60770543483E+03  0.63397681384E+03  0.90617130066E+02 0.  0.
        -13    1    3    3    0    0  0.17120816186E+02  0.30266099948E+02 -0.40609948161E+02  0.53463324276E+02  0.00000000000E+00 0.  1.
         14    1    3    3    0    0 -0.83821705319E+02  0.12956759052E+03 -0.73153402796E+02  0.17077839189E+03  0.00000000000E+00 0. -1.
        -13    1    4    4    0    0  0.94942667379E+02  0.31826845455E+02  0.36835841833E+03  0.38172631889E+03  0.00000000000E+00 0.  1.
         13    1    4    4    0    0  0.59922778724E+02 -0.52465021548E+02  0.23934701650E+03  0.25225049495E+03  0.00000000000E+00 0. -1.
         21    1    1    2  503  502  0.23509342480E+02 -0.37078119525E+02 -0.24195045880E+03  0.24590140432E+03  0.00000000000E+00 0. -1.
          1    1    1    2  501    0 -0.11167389945E+03 -0.10211739485E+03  0.16132461047E+03  0.22118917716E+03  0.00000000000E+00 0. -1.
<scales pt_clust_5="13000.00000" pt_clust_6="13000.00000" pt_clust_7="13000.00000" pt_clust_8="13000.00000" pt_clust_9="43.90303" pt_clust_10="13000.00000"></scales>
<clustering>
<clus scale="   43.903">  2  9  1 -1</clus>
<clus scale="   85.711">  5  6 -1 -1</clus>
<clus scale="   90.617">  7  8 -1 -1</clus>
<clus scale="  152.529">  7 10 -1 -1</clus>
<clus scale="  163.161">  1  5  2 -1</clus>
<clus scale="   43.903">  2  5  1 -1</clus>
</clustering>
</event>
<event>
10    4  0.2866397E-005  0.7120071E+03  0.7546771E-02  0.9746991E-01
          2   -1    0    0  502    0 -0.00000000000E+00  0.00000000000E+00  0.26972737037E+03  0.26972737037E+03  0.00000000000E+00 0. -1.
         21   -1    0    0  503  502  0.00000000000E+00 -0.00000000000E+00 -0.20606298042E+04  0.20606298042E+04  0.00000000000E+00 0. -1.
         24    2    1    2    0    0 -0.22128695417E+02 -0.59993502953E+03 -0.32600897350E+03  0.68646562600E+03  0.67390548774E+02 0.  0.
         23    2    1    2    0    0 -0.78646877918E+01 -0.18466549919E+02 -0.21900994730E+03  0.23788989858E+03  0.90682854230E+02 0.  0.
        -11    1    3    3    0    0 -0.24211383473E+02 -0.37109527654E+03 -0.16615610917E+03  0.40731529308E+03  0.00000000000E+00 0.  1.
         12    1    3    3    0    0  0.20826880561E+01 -0.22883975299E+03 -0.15985286433E+03  0.27915033293E+03  0.00000000000E+00 0. -1.
        -13    1    4    4    0    0 -0.48381626596E+02 -0.14826329477E+00 -0.11715237647E+03  0.12674968673E+03  0.00000000000E+00 0.  1.
         13    1    4    4    0    0  0.40516938804E+02 -0.18318286625E+02 -0.10185757083E+03  0.11114021185E+03  0.00000000000E+00 0. -1.
         21    1    1    2  503  501 -0.28593185538E+02  0.78203319123E+01 -0.12283396209E+03  0.12636023937E+03  0.00000000000E+00 0. -1.
          1    1    1    2  501    0  0.58586568746E+02  0.61058124754E+03 -0.11230495509E+04  0.12796414106E+04  0.00000000000E+00 0. -1.
<scales pt_clust_5="13000.00000" pt_clust_6="13000.00000" pt_clust_7="13000.00000" pt_clust_8="13000.00000" pt_clust_9="29.64334" pt_clust_10="13000.00000"></scales>
<clustering>
<clus scale="   29.643">  2  9  1 -1</clus>
<clus scale="   67.391">  5  6 -1 -1</clus>
<clus scale="   90.683">  7  8 -1 -1</clus>
<clus scale="  602.404">  1  5  2 -1</clus>
<clus scale="   85.009">  7 10 -1 -1</clus>
<clus scale="   29.643">  2  5  1 -1</clus>
</clustering>
</event>
<event>
10    4  0.2866397E-005  0.2372453E+03  0.7546771E-02  0.1155601E+00
         21   -1    0    0  503  502  0.00000000000E+00  0.00000000000E+00  0.59871988483E+02  0.59871988483E+02  0.00000000000E+00 0. -1.
          2   -1    0    0  502    0 -0.00000000000E+00 -0.00000000000E+00 -0.80393206523E+03  0.80393206523E+03  0.00000000000E+00 0. -1.
         24    2    1    2    0    0  0.55199245988E+02  0.36463932978E+01 -0.53446094664E+02  0.11221429409E+03  0.81702569241E+02 0.  0.
         23    2    1    2    0    0  0.55251401863E+02 -0.54401347605E+02 -0.28043574875E+03  0.30504095661E+03  0.91616330412E+02 0.  0.
        -13    1    3    3    0    0 -0.20773150702E+02  0.13695041383E+01 -0.31052362852E+01  0.21048558717E+02  0.00000000000E+00 0.  1.
         14    1    3    3    0    0  0.75972396689E+02  0.22768891595E+01 -0.50340858379E+02  0.91165735369E+02  0.00000000000E+00 0. -1.
        -13    1    4    4    0    0  0.17872345091E+02 -0.31961581320E+02 -0.21507690357E+02  0.42468154469E+02  0.00000000000E+00 0.  1.
         13    1    4    4    0    0  0.37379056772E+02 -0.22439766285E+02 -0.25892805840E+03  0.26257280214E+03  0.00000000000E+00 0. -1.
         21    1    1    2  503  501  0.69313420452E+01  0.39630151019E+02 -0.35155553100E+02  0.53427570468E+02  0.00000000000E+00 0. -1.
          1    1    1    2  501    0 -0.11738198990E+03  0.11124803288E+02 -0.37502268023E+03  0.39312123256E+03  0.00000000000E+00 0. -1.
<scales pt_clust_5="13000.00000" pt_clust_6="13000.00000" pt_clust_7="13000.00000" pt_clust_8="13000.00000" pt_clust_9="40.23173" pt_clust_10="13000.00000"></scales>
<clustering>
<clus scale="   40.232">  1  9  2 -1</clus>
<clus scale="   81.703">  5  6 -1 -1</clus>
<clus scale="   91.616">  7  8 -1 -1</clus>
<clus scale="  104.351">  2  5  1 -1</clus>
<clus scale="   88.893">  7 10 -1 -1</clus>
<clus scale="   40.232">  1  5  2 -1</clus>
</clustering>
</event>
<event>
10    4  0.2866397E-005  0.5315306E+03  0.7546771E-02  0.1052988E+00
          2   -1    0    0  503    0 -0.00000000000E+00  0.00000000000E+00  0.19150052827E+04  0.19150052827E+04  0.00000000000E+00 0. -1.
         21   -1    0    0  501  502  0.00000000000E+00 -0.00000000000E+00 -0.16022687485E+03  0.16022687485E+03  0.00000000000E+00 0.  1.
         24    2    1    2    0    0  0.66141009336E+02  0.99088970263E+02 -0.48526529881E+02  0.15097847042E+03  0.79034279171E+02 0.  0.
         23    2    1    2    0    0  0.70727686740E+02  0.17207912493E+03  0.43473164138E+03  0.48185006414E+03  0.92597264418E+02 0.  0.
        -13    1    3    3    0    0  0.57105764530E+02  0.27539227774E+02 -0.46866722482E+02  0.78841404637E+02  0.00000000000E+00 0.  1.
         14    1    3    3    0    0  0.90352448053E+01  0.71549742490E+02 -0.16598073989E+01  0.72137065782E+02  0.00000000000E+00 0. -1.
        -11    1    4    4    0    0 -0.35606363661E+01  0.21391878190E+02  0.77909960139E+01  0.23043224659E+02  0.00000000000E+00 0. -1.
         11    1    4    4    0    0  0.74288323107E+02  0.15068724674E+03  0.42694064537E+03  0.45880683948E+03  0.00000000000E+00 0.  1.
         21    1    1    2  503  502 -0.68741677207E+01 -0.19896075809E+02 -0.17733688317E+02  0.27524384021E+02  0.00000000000E+00 0. -1.
          1    1    1    2  501    0 -0.12999452836E+03 -0.25127201939E+03  0.13863069846E+04  0.14148792389E+04  0.00000000000E+00 0. -1.
<scales pt_clust_5="13000.00000" pt_clust_6="13000.00000" pt_clust_7="13000.00000" pt_clust_8="13000.00000" pt_clust_9="21.05013" pt_clust_10="13000.00000"></scales>
<clustering>
<clus scale="   21.050">  2  9  1 -1</clus>
<clus scale="   79.034">  5  6 -1 -1</clus>
<clus scale="   92.597">  7  8 -1 -1</clus>
<clus scale="  130.977">  1  5  2 -1</clus>
<clus scale="  206.755">  7 10 -1 -1</clus>
<clus scale="   21.050">  2  5  1 -1</clus>
</clustering>
</event>
<event>
10    4  0.2866397E-005  0.3565663E+03  0.7546771E-02  0.1080172E+00
         21   -1    0    0  501  502  0.00000000000E+00  0.00000000000E+00  0.77767392784E+02  0.77767392784E+02  0.00000000000E+00 0. -1.
          2   -1    0    0  503    0 -0.00000000000E+00 -0.00000000000E+00 -0.11540496633E+04  0.11540496633E+04  0.00000000000E+00 0. -1.
         24    2    1    2    0    0 -0.14893325606E+03 -0.98613407274E+02 -0.30817808338E+03  0.36552936881E+03  0.82050408487E+02 0.  0.
         23    2    1    2    0    0  0.55239261858E+02 -0.49052876192E+00 -0.53824386662E+02  0.11863583207E+03  0.90143105020E+02 0.  0.
        -13    1    3    3    0    0 -0.10660894992E+03 -0.22178133671E+02 -0.18101666889E+03  0.21124481587E+03  0.00000000000E+00 0.  1.
         14    1    3    3    0    0 -0.42324306142E+02 -0.76435273603E+02 -0.12716141448E+03  0.15428455293E+03  0.00000000000E+00 0. -1.
        -11    1    4    4    0    0  0.62415209438E+01  0.36390045181E+02  0.17763523300E+00  0.36921857025E+02  0.00000000000E+00 0. -1.
         11    1    4    4    0    0  0.48997740914E+02 -0.36880573942E+02 -0.54002021895E+02  0.81713975046E+02  0.00000000000E+00 0.  1.
         21    1    1    2  503  502 -0.14753233371E+02 -0.16861909604E+02 -0.80699198293E+01  0.23813976914E+02  0.00000000000E+00 0. -1.
          1    1    1    2  501    0  0.10844722757E+03  0.11596584564E+03 -0.70620988069E+03  0.72383787833E+03  0.00000000000E+00 0. -1.
<scales pt_clust_5="13000.00000" pt_clust_6="13000.00000" pt_clust_7="13000.00000" pt_clust_8="13000.00000" pt_clust_9="22.40495" pt_clust_10="13000.00000"></scales>
<clustering>
<clus scale="   22.405">  1  9  2 -1</clus>
<clus scale="   82.050">  5  6 -1 -1</clus>
<clus scale="   90.143">  7  8 -1 -1</clus>
<clus scale="  155.949">  7 10 -1 -1</clus>
<clus scale="  204.670">  2  5  1 -1</clus>
<clus scale="   22.405">  1  5  2 -1</clus>
</clustering>
</event>
<event>
10    4  0.2866397E-005  0.7386535E+03  0.7546771E-02  0.1035166E+00
         21   -1    0    0  503  502  0.00000000000E+00  0.00000000000E+00  0.17819889663E+03  0.17819889663E+03  0.00000000000E+00 0. -1.
          2   -1    0    0  502    0 -0.00000000000E+00 -0.00000000000E+00 -0.12950121271E+04  0.12950121271E+04  0.00000000000E+00 0. -1.
         24    2    1    2    0    0 -0.51262839652E+01  0.90146860084E+01 -0.10729213935E+03  0.13481671434E+03  0.80971599647E+02 0.  0.
         23    2    1    2    0    0 -0.18301341006E+03  0.18811583332E+03 -0.76481328082E+03  0.81360204364E+03  0.90152403687E+02 0.  0.
        -11    1    3    3    0    0 -0.47844897435E+01  0.32973382328E+02 -0.10567264059E+03  0.11080091269E+03  0.00000000000E+00 0.  1.
         12    1    3    3    0    0 -0.34179422172E+00 -0.23958696320E+02 -0.16194987561E+01  0.24015801649E+02  0.00000000000E+00 0. -1.
        -13    1    4    4    0    0 -0.19205810284E+03  0.16760477356E+03 -0.69455508275E+03  0.73985433564E+03  0.00000000000E+00 0. -1.
         13    1    4    4    0    0  0.90446927782E+01  0.20511059759E+02 -0.70258198064E+02  0.73747707998E+02  0.00000000000E+00 0.  1.
         21    1    1    2  503  501 -0.20669571559E+02  0.94905711971E+02 -0.14222965132E+02  0.98166277765E+02  0.00000000000E+00 0. -1.
          1    1    1    2  501    0  0.20880926558E+03 -0.29203623130E+03 -0.23048484520E+03  0.42662598802E+03  0.00000000000E+00 0. -1.
<scales pt_clust_5="13000.00000" pt_clust_6="13000.00000" pt_clust_7="13000.00000" pt_clust_8="13000.00000" pt_clust_9="97.60441" pt_clust_10="13000.00000"></scales>
<clustering>
<clus scale="   80.972">  5  6 -1 -1</clus>
<clus scale="   81.633">  2  5  1 -1</clus>
<clus scale="   90.152">  7  8 -1 -1</clus>
<clus scale="   97.604">  1  9  2 -1</clus>
<clus scale="  291.623">  7 10 -1 -1</clus>
<clus scale="   97.604">  1  5  2 -1</clus>
</clustering>
</event>
<event>
10    4  0.2866397E-005  0.5924202E+03  0.7546771E-02  0.1052341E+00
         21   -1    0    0  503  502  0.00000000000E+00  0.00000000000E+00  0.21365806159E+03  0.21365806159E+03  0.00000000000E+00 0. -1.
          2   -1    0    0  502    0 -0.00000000000E+00 -0.00000000000E+00 -0.77255041171E+03  0.77255041171E+03  0.00000000000E+00 0. -1.
         24    2    1    2    0    0  0.33982826107E+02  0.38974390991E+02 -0.13366958229E+03  0.16459110797E+03  0.80924903282E+02 0.  0.
         23    2    1    2    0    0  0.25297752543E+03  0.73580064678E+01 -0.76589811278E+02  0.27977323982E+03  0.91407318639E+02 0.  0.
        -11    1    3    3    0    0  0.58647939799E+02  0.32682792048E+02 -0.75140277998E+02  0.10076610103E+03  0.00000000000E+00 0.  1.
         12    1    3    3    0    0 -0.24665113693E+02  0.62915989438E+01 -0.58529304292E+02  0.63825006946E+02  0.00000000000E+00 0. -1.
        -11    1    4    4    0    0  0.77801705574E+02  0.45044262371E+02 -0.26013738412E+02  0.93588490473E+02  0.00000000000E+00 0.  1.
         11    1    4    4    0    0  0.17517581985E+03 -0.37686255904E+02 -0.50576072866E+02  0.18618474935E+03  0.00000000000E+00 0. -1.
         21    1    1    2  503  501 -0.27707067636E+02  0.30126076426E+02  0.47234987981E+02  0.62501249326E+02  0.00000000000E+00 0.  1.
          1    1    1    2  501    0 -0.25925328390E+03 -0.76458473885E+02 -0.39586794452E+03  0.47934287618E+03  0.00000000000E+00 0. -1.
<scales pt_clust_5="13000.00000" pt_clust_6="13000.00000" pt_clust_7="13000.00000" pt_clust_8="13000.00000" pt_clust_9="40.92997" pt_clust_10="13000.00000"></scales>
<clustering>
<clus scale="   40.930">  1  9  2 -1</clus>
<clus scale="   80.925">  5  6 -1 -1</clus>
<clus scale="   91.407">  7  8 -1 -1</clus>
<clus scale="   96.353">  2  5  1 -1</clus>
<clus scale="  246.500">  7 10 -1 -1</clus>
<clus scale="   40.930">  1  5  2 -1</clus>
</clustering>
</event>
<event>
10    4  0.2866397E-005  0.3001183E+03  0.7546771E-02  0.1115076E+00
         21   -1    0    0  503  502  0.00000000000E+00  0.00000000000E+00  0.31284286036E+03  0.31284286036E+03  0.00000000000E+00 0. -1.
          2   -1    0    0  502    0 -0.00000000000E+00 -0.00000000000E+00 -0.20059327812E+03  0.20059327812E+03  0.00000000000E+00 0. -1.
         24    2    1    2    0    0 -0.17547550962E+02  0.10235632606E+03  0.12001127982E+03  0.17804610927E+03  0.80703009320E+02 0.  0.
         23    2    1    2    0    0  0.20109497783E+02 -0.19457836288E+03  0.35005970509E+01  0.22259854488E+03  0.10617309829E+03 0.  0.
        -13    1    3    3    0    0 -0.13665752829E+02  0.69737854038E+02  0.21565123473E+02  0.74264228513E+02  0.00000000000E+00 0.  1.
         14    1    3    3    0    0 -0.38817981324E+01  0.32618472021E+02  0.98446156352E+02  0.10378188076E+03  0.00000000000E+00 0. -1.
        -13    1    4    4    0    0 -0.67059883357E+01 -0.18490540222E+03  0.25250476528E+02  0.18674197336E+03  0.00000000000E+00 0. -1.
         13    1    4    4    0    0  0.26815486119E+02 -0.96729606592E+01 -0.21749879477E+02  0.35856571517E+02  0.00000000000E+00 0.  1.
         21    1    1    2  503  501  0.17111616990E+02  0.18320192227E+02  0.18049905513E+02  0.30890710064E+02  0.00000000000E+00 0. -1.
          1    1    1    2  501    0 -0.19673563811E+02  0.73901844597E+02 -0.29312200145E+02  0.81900774265E+02  0.00000000000E+00 0. -1.
<scales pt_clust_5="13000.00000" pt_clust_6="13000.00000" pt_clust_7="13000.00000" pt_clust_8="13000.00000" pt_clust_9="25.06864" pt_clust_10="13000.00000"></scales>
<clustering>
<clus scale="   25.069">  1  9  2 -1</clus>
<clus scale="   80.703">  5  6 -1 -1</clus>
<clus scale="  106.173">  7  8 -1 -1</clus>
<clus scale="   77.713">  7 10 -1 -1</clus>
<clus scale="  138.179">  2  5  1 -1</clus>
<clus scale="   25.069">  1  5  2 -1</clus>
</clustering>
</event>
<event>
10    4  0.2866397E-005  0.5034035E+03  0.7546771E-02  0.1041760E+00
         21   -1    0    0  501  502  0.00000000000E+00  0.00000000000E+00  0.11352176772E+04  0.11352176772E+04  0.00000000000E+00 0. -1.
          2   -1    0    0  503    0 -0.00000000000E+00 -0.00000000000E+00 -0.73799821338E+03  0.73799821338E+03  0.00000000000E+00 0. -1.
         24    2    1    2    0    0  0.19045038722E+03 -0.64662921715E+02 -0.23235404565E+03  0.31504413968E+03  0.69366879581E+02 0.  0.
         23    2    1    2    0    0 -0.23725901910E+01  0.61630816171E+02 -0.14616114430E+03  0.18061824760E+03  0.86347464213E+02 0.  0.
        -13    1    3    3    0    0  0.10385558610E+03  0.84257655409E+00 -0.10503266256E+03  0.14771104530E+03  0.00000000000E+00 0.  1.
         14    1    3    3    0    0  0.86594801127E+02 -0.65505498269E+02 -0.12732138309E+03  0.16733309439E+03  0.00000000000E+00 0. -1.
        -11    1    4    4    0    0 -0.43733052760E+02  0.23072562183E+02 -0.63902082204E+02  0.80798509512E+02  0.00000000000E+00 0. -1.
         11    1    4    4    0    0  0.41360462569E+02  0.38558253988E+02 -0.82259062095E+02  0.99819738085E+02  0.00000000000E+00 0.  1.
         21    1    1    2  503  502 -0.38556295938E+03 -0.23954367029E+03  0.92544680972E+03  0.10307724110E+04  0.00000000000E+00 0. -1.
          1    1    1    2  501    0  0.19748516235E+03  0.24257577583E+03 -0.14971215594E+03  0.34678109234E+03  0.00000000000E+00 0. -1.
<scales pt_clust_5="13000.00000" pt_clust_6="13000.00000" pt_clust_7="13000.00000" pt_clust_8="13000.00000" pt_clust_9="439.79149" pt_clust_10="13000.00000"></scales>
<clustering>
<clus scale="   69.367">  5  6 -1 -1</clus>
<clus scale="   86.347">  7  8 -1 -1</clus>
<clus scale="  212.754">  2  5  1 -1</clus>
<clus scale="  364.491">  7 10 -1 -1</clus>
<clus scale="  439.791">  1  9  2 -1</clus>
<clus scale="  439.791">  1  5  2 -1</clus>
</clustering>
</event>
<event>
10    4  0.2866397E-005  0.2809840E+03  0.7546771E-02  0.1101245E+00
         21   -1    0    0  503  502  0.00000000000E+00  0.00000000000E+00  0.69612146525E+02  0.69612146525E+02  0.00000000000E+00 0. -1.
          2   -1    0    0  502    0 -0.00000000000E+00 -0.00000000000E+00 -0.11177021374E+04  0.11177021374E+04  0.00000000000E+00 0. -1.
         24    2    1    2    0    0  0.32849528497E+02  0.21339438839E+03 -0.50919235035E+03  0.55891645427E+03  0.80588440132E+02 0.  0.
         23    2    1    2    0    0  0.37750957533E+02 -0.10528624091E+03 -0.24767160500E+03  0.28652890215E+03  0.90814429053E+02 0.  0.
        -11    1    3    3    0    0  0.20977857605E+02  0.35616409257E+02 -0.42121873228E+02  0.59015687086E+02  0.00000000000E+00 0.  1.
         12    1    3    3    0    0  0.11871670892E+02  0.17777797914E+03 -0.46707047712E+03  0.49990076719E+03  0.00000000000E+00 0. -1.
        -13    1    4    4    0    0 -0.20289700165E+02 -0.17146748607E+01 -0.69520253724E+02  0.72440856708E+02  0.00000000000E+00 0.  1.
         13    1    4    4    0    0  0.58040657698E+02 -0.10357156604E+03 -0.17815135127E+03  0.21408804544E+03  0.00000000000E+00 0. -1.
         21    1    1    2  503  501 -0.53088108437E+01  0.26587020812E+02 -0.27455306325E+02  0.38585580126E+02  0.00000000000E+00 0.  1.
          1    1    1    2  501    0 -0.65291675187E+02 -0.13469516830E+03 -0.26377072918E+03  0.30328334735E+03  0.00000000000E+00 0. -1.
<scales pt_clust_5="13000.00000" pt_clust_6="13000.00000" pt_clust_7="13000.00000" pt_clust_8="13000.00000" pt_clust_9="27.11186" pt_clust_10="13000.00000"></scales>
<clustering>
<clus scale="   27.112">  1  9  2 -1</clus>
<clus scale="   80.588">  5  6 -1 -1</clus>
<clus scale="   90.814">  7  8 -1 -1</clus>
<clus scale="  143.109">  7 10 -1 -1</clus>
<clus scale="  239.773">  2  5  1 -1</clus>
<clus scale="   27.112">  1  5  2 -1</clus>
</clustering>
</event>
<event>
10    4  0.2866397E-005  0.2905287E+03  0.7546771E-02  0.1122644E+00
         21   -1    0    0  501  502  0.00000000000E+00  0.00000000000E+00  0.59299074585E+02  0.59299074585E+02  0.00000000000E+00 0. -1.
          2   -1    0    0  503    0 -0.00000000000E+00 -0.00000000000E+00 -0.10074580221E+04  0.10074580221E+04  0.00000000000E+00 0. -1.
         24    2    1    2    0    0  0.85057982101E+02  0.46260593465E+02 -0.19125523346E+03  0.23180018442E+03  0.88192167157E+02 0.  0.
         23    2    1    2    0    0  0.72249243373E+01  0.96601518925E+02 -0.43263723774E+03  0.45276447596E+03  0.91851174270E+02 0.  0.
        -13    1    3    3    0    0  0.81063080549E+02  0.32622063343E+02 -0.19773449780E+03  0.21618129814E+03  0.00000000000E+00 0.  1.
         14    1    3    3    0    0  0.39949015525E+01  0.13638530123E+02  0.64792643449E+01  0.15618886285E+02  0.00000000000E+00 0. -1.
        -13    1    4    4    0    0 -0.30351089049E+02  0.11302952678E+02 -0.19188260978E+03  0.19459671447E+03  0.00000000000E+00 0.  1.
         13    1    4    4    0    0  0.37576013386E+02  0.85298566247E+02 -0.24075462796E+03  0.25816776149E+03  0.00000000000E+00 0. -1.
         21    1    1    2  503  502 -0.80338410157E+01 -0.18928133570E+02  0.43511659325E+01  0.21017837350E+02  0.00000000000E+00 0. -1.
          1    1    1    2  501    0 -0.84249065423E+02 -0.12393397882E+03 -0.32861764220E+03  0.36117459891E+03  0.00000000000E+00 0. -1.
<scales pt_clust_5="13000.00000" pt_clust_6="13000.00000" pt_clust_7="13000.00000" pt_clust_8="13000.00000" pt_clust_9="20.56251" pt_clust_10="13000.00000"></scales>
<clustering>
<clus scale="   20.563">  1  9  2 -1</clus>
<clus scale="   88.192">  5  6 -1 -1</clus>
<clus scale="   91.851">  7  8 -1 -1</clus>
<clus scale="  126.003">  2  5  1 -1</clus>
<clus scale="  122.642">  7 10 -1 -1</clus>
<clus scale="   20.563">  1  5  2 -1</clus>
</clustering>
</event>
<event>
10    4  0.2866397E-005  0.2009419E+03  0.7546771E-02  0.1187309E+00
         -1   -1    0    0    0  501 -0.00000000000E+00  0.00000000000E+00  0.12604925195E+03  0.12604925195E+03  0.00000000000E+00 0.  1.
         21   -1    0    0  503  502  0.00000000000E+00 -0.00000000000E+00 -0.54312412618E+03  0.54312412618E+03  0.00000000000E+00 0.  1.
         24    2    1    2    0    0 -0.82622949506E+01  0.48418861211E+02 -0.40532262448E+03  0.41498254735E+03  0.74239026472E+02 0.  0.
         23    2    1    2    0    0  0.49497182623E+02  0.38930037476E+02  0.65474707169E+02  0.12434293265E+03  0.84904114834E+02 0.  0.
        -11    1    3    3    0    0 -0.87718492151E+00  0.68025204899E+02 -0.31476643352E+03  0.32203432368E+03  0.00000000000E+00 0.  1.
         12    1    3    3    0    0 -0.73851100291E+01 -0.19606343688E+02 -0.90556190957E+02  0.92948223671E+02  0.00000000000E+00 0. -1.
        -11    1    4    4    0    0  0.28327327749E+02 -0.12540429197E+02 -0.81660991947E+01  0.32037244543E+02  0.00000000000E+00 0. -1.
         11    1    4    4    0    0  0.21169854873E+02  0.51470466674E+02  0.73640806364E+02  0.92305688107E+02  0.00000000000E+00 0.  1.
         21    1    1    2  503  501 -0.15431894400E+02 -0.20593746877E+02 -0.43930754755E+02  0.50913229996E+02  0.00000000000E+00 0.  1.
         -2    1    1    2    0  502 -0.25802993272E+02 -0.66755151810E+02 -0.33296202156E+02  0.78934668131E+02  0.00000000000E+00 0.  1.
<scales pt_clust_5="13000.00000" pt_clust_6="13000.00000" pt_clust_7="13000.00000" pt_clust_8="13000.00000" pt_clust_9="25.73414" pt_clust_10="13000.00000"></scales>
<clustering>
<clus scale="   25.734">  2  9  1 -1</clus>
<clus scale="   74.239">  5  6 -1 -1</clus>
<clus scale="   83.297">  1  5  2 -1</clus>
<clus scale="   84.904">  7  8 -1 -1</clus>
<clus scale="   70.179">  7 10 -1 -1</clus>
<clus scale="   25.734">  2  5  1 -1</clus>
</clustering>
</event>
<event>
10    4  0.2866397E-005  0.2568512E+03  0.7546771E-02  0.1151857E+00
          2   -1    0    0  502    0 -0.00000000000E+00  0.00000000000E+00  0.13426192727E+04  0.13426192727E+04  0.00000000000E+00 0. -1.
         21   -1    0    0  503  502  0.00000000000E+00 -0.00000000000E+00 -0.15220656694E+03  0.15220656694E+03  0.00000000000E+00 0. -1.
         24    2    1    2    0    0 -0.40175624228E+02  0.16203802374E+02  0.53038101748E+03  0.53821298811E+03  0.80576379145E+02 0.  0.
         23    2    1    2    0    0 -0.95084917085E+02  0.11713565940E+02  0.50979174760E+03  0.52663113562E+03  0.90963608104E+02 0.  0.
        -11    1    3    3    0    0  0.18583154912E+02  0.25358452796E+02  0.15572559813E+03  0.15886738711E+03  0.00000000000E+00 0.  1.
         12    1    3    3    0    0 -0.58758779140E+02 -0.91546504220E+01  0.37465541935E+03  0.37934560100E+03  0.00000000000E+00 0. -1.
        -11    1    4    4    0    0 -0.15758051279E+02  0.40727936371E+02  0.11759669309E+03  0.12544346618E+03  0.00000000000E+00 0. -1.
         11    1    4    4    0    0 -0.79326865805E+02 -0.29014370431E+02  0.39219505450E+03  0.40118766944E+03  0.00000000000E+00 0.  1.
         21    1    1    2  503  501  0.20808597005E+02 -0.83526887027E+01 -0.12723317292E+03  0.12919382883E+03  0.00000000000E+00 0. -1.
          1    1    1    2  501    0  0.11445194431E+03 -0.19564679611E+02  0.27747311358E+03  0.30078788707E+03  0.00000000000E+00 0. -1.
<scales pt_clust_5="13000.00000" pt_clust_6="13000.00000" pt_clust_7="13000.00000" pt_clust_8="13000.00000" pt_clust_9="22.42242" pt_clust_10="13000.00000"></scales>
<clustering>
<clus scale="   22.422">  2  9  1 -1</clus>
<clus scale="   80.576">  5  6 -1 -1</clus>
<clus scale="   89.808">  1  5  2 -1</clus>
<clus scale="   90.964">  7  8 -1 -1</clus>
<clus scale="  110.499">  7 10 -1 -1</clus>
<clus scale="   22.422">  2  5  1 -1</clus>
</clustering>
</event>
<event>
10    4  0.2866397E-005  0.3488016E+03  0.7546771E-02  0.1076461E+00
         -1   -1    0    0    0  501 -0.00000000000E+00  0.00000000000E+00  0.78256243599E+03  0.78256243599E+03  0.00000000000E+00 0.  1.
         21   -1    0    0  503  502  0.00000000000E+00 -0.00000000000E+00 -0.46472815798E+03  0.46472815798E+03  0.00000000000E+00 0.  1.
         24    2    1    2    0    0  0.18578173190E+02  0.23780836307E+03  0.59514352695E+03  0.64631358321E+03  0.81409238523E+02 0.  0.
         23    2    1    2    0    0 -0.28840522221E+01  0.41616206108E+02 -0.13672937589E+03  0.17144157521E+03  0.94641772555E+02 0.  0.
        -13    1    3    3    0    0  0.34694357076E+02  0.17365244853E+03  0.34792443995E+03  0.39039760144E+03  0.00000000000E+00 0.  1.
         14    1    3    3    0    0 -0.16116183886E+02  0.64155914534E+02  0.24721908700E+03  0.25591598178E+03  0.00000000000E+00 0. -1.
        -11    1    4    4    0    0  0.23735229952E+02 -0.17169941614E+02 -0.81145264833E+02  0.86271212120E+02  0.00000000000E+00 0. -1.
         11    1    4    4    0    0 -0.26619282174E+02  0.58786147722E+02 -0.55584111054E+02  0.85170363091E+02  0.00000000000E+00 0.  1.
         21    1    1    2  503  501  0.13808103931E+03 -0.15464508703E+03 -0.60953971926E+02  0.21609456970E+03  0.00000000000E+00 0.  1.
         -2    1    1    2    0  502 -0.15377516028E+03 -0.12477948214E+03 -0.79625901125E+02  0.21344086584E+03  0.00000000000E+00 0.  1.
<scales pt_clust_5="13000.00000" pt_clust_6="13000.00000" pt_clust_7="13000.00000" pt_clust_8="13000.00000" pt_clust_9="207.31974" pt_clust_10="13000.00000"></scales>
<clustering>
<clus scale="   81.409">  5  6 -1 -1</clus>
<clus scale="   94.642">  7  8 -1 -1</clus>
<clus scale="  198.032">  7 10 -1 -1</clus>
<clus scale="  207.320">  2  9  1 -1</clus>
<clus scale="  241.709">  1  5  2 -1</clus>
<clus scale="  207.320">  2  5  1 -1</clus>
</clustering>
</event>
<event>
10    4  0.2866397E-005  0.2788286E+03  0.7546771E-02  0.1103528E+00
         21   -1    0    0  501  502  0.00000000000E+00  0.00000000000E+00  0.18751376346E+03  0.18751376346E+03  0.00000000000E+00 0. -1.
          2   -1    0    0  503    0 -0.00000000000E+00 -0.00000000000E+00 -0.99831471771E+03  0.99831471771E+03  0.00000000000E+00 0. -1.
         24    2    1    2    0    0 -0.12650137565E+03  0.20348825009E+03 -0.63227388999E+03  0.68086586078E+03  0.79987389267E+02 0.  0.
         23    2    1    2    0    0 -0.55932478840E+01 -0.13993756864E+03 -0.18137222307E+03  0.24660818133E+03  0.91136733846E+02 0.  0.
        -13    1    3    3    0    0 -0.67177279558E+02  0.15576275303E+03 -0.35692133918E+03  0.39518054669E+03  0.00000000000E+00 0.  1.
         14    1    3    3    0    0 -0.59324096091E+02  0.47725497058E+02 -0.27535255081E+03  0.28568531409E+03  0.00000000000E+00 0. -1.
        -13    1    4    4    0    0 -0.25154530197E+02 -0.55448667832E+00 -0.17823125002E+02  0.30833774172E+02  0.00000000000E+00 0.  1.
         13    1    4    4    0    0  0.19561282313E+02 -0.13938308197E+03 -0.16354909807E+03  0.21577440716E+03  0.00000000000E+00 0. -1.
         21    1    1    2  503  502  0.54508283254E+02 -0.43741398816E+02  0.10649261473E+03  0.12737794120E+03  0.00000000000E+00 0. -1.
          1    1    1    2  501    0  0.77586340279E+02 -0.19809282631E+02 -0.10364745591E+03  0.13097649787E+03  0.00000000000E+00 0. -1.
<scales pt_clust_5="13000.00000" pt_clust_6="13000.00000" pt_clust_7="13000.00000" pt_clust_8="13000.00000" pt_clust_9="69.88893" pt_clust_10="13000.00000"></scales>
<clustering>
<clus scale="   69.889">  1  9  2 -1</clus>
<clus scale="   79.987">  5  6 -1 -1</clus>
<clus scale="   91.137">  7  8 -1 -1</clus>
<clus scale="   92.565">  7 10 -1 -1</clus>
<clus scale="  231.325">  2  5  1 -1</clus>
<clus scale="   69.889">  1  5  2 -1</clus>
</clustering>
</event>
<event>
10    4  0.2866397E-005  0.3694702E+03  0.7546771E-02  0.1110932E+00
          2   -1    0    0  502    0 -0.00000000000E+00  0.00000000000E+00  0.99646915380E+03  0.99646915380E+03  0.00000000000E+00 0. -1.
         21   -1    0    0  503  502  0.00000000000E+00 -0.00000000000E+00 -0.66655557032E+02  0.66655557032E+02  0.00000000000E+00 0.  1.
         24    2    1    2    0    0  0.16873914194E+02 -0.52666307911E+01  0.75793100138E+02  0.11244848578E+03  0.81164040962E+02 0.  0.
         23    2    1    2    0    0 -0.98190807331E+02  0.13470099706E+03  0.52114002289E+03  0.55461498643E+03  0.90692152150E+02 0.  0.
        -11    1    3    3    0    0  0.24774487639E+02  0.52030381648E+01  0.89775935433E+02  0.93276821488E+02  0.00000000000E+00 0.  1.
         12    1    3    3    0    0 -0.79005734449E+01 -0.10469668956E+02 -0.13982835295E+02  0.19171664291E+02  0.00000000000E+00 0. -1.
        -13    1    4    4    0    0  0.11802406079E+02  0.48498487939E+02  0.14536314148E+03  0.15369399150E+03  0.00000000000E+00 0. -1.
         13    1    4    4    0    0 -0.10999321341E+03  0.86202509125E+02  0.37577688141E+03  0.40092099493E+03  0.00000000000E+00 0.  1.
         21    1    1    2  503  501 -0.10939893314E+02  0.18730043721E+02  0.17683215139E+01  0.21762875833E+02  0.00000000000E+00 0.  1.
          1    1    1    2  501    0  0.92256786451E+02 -0.14816440999E+03  0.33111215223E+03  0.37429836279E+03  0.00000000000E+00 0. -1.
<scales pt_clust_5="13000.00000" pt_clust_6="13000.00000" pt_clust_7="13000.00000" pt_clust_8="13000.00000" pt_clust_9="21.69092" pt_clust_10="13000.00000"></scales>
<clustering>
<clus scale="   21.691">  2  9  1 -1</clus>
<clus scale="   81.164">  5  6 -1 -1</clus>
<clus scale="   82.256">  1  5  2 -1</clus>
<clus scale="   90.692">  7  8 -1 -1</clus>
<clus scale="  168.643">  7 10 -1 -1</clus>
<clus scale="   21.691">  2  5  1 -1</clus>
</clustering>
</event>
<event>
10    4  0.2866397E-005  0.1794954E+03  0.7546771E-02  0.1200322E+00
         -3   -1    0    0    0  501 -0.00000000000E+00  0.00000000000E+00  0.26838002332E+03  0.26838002332E+03  0.00000000000E+00 0.  1.
         21   -1    0    0  501  502  0.00000000000E+00 -0.00000000000E+00 -0.13951090792E+03  0.13951090792E+03  0.00000000000E+00 0.  1.
         24    2    1    2    0    0 -0.65280930027E+02 -0.20038284629E+02 -0.35735614158E+02  0.11320381533E+03  0.82915239920E+02 0.  0.
         23    2    1    2    0    0 -0.60710219906E+00 -0.18873491517E+02  0.12582273556E+02  0.93174506366E+02  0.90369230237E+02 0.  0.
        -13    1    3    3    0    0 -0.79287119425E+02  0.15475214876E+01 -0.36854765730E+02  0.87447789489E+02  0.00000000000E+00 0.  1.
         14    1    3    3    0    0  0.14006189398E+02 -0.21585806117E+02  0.11191515714E+01  0.25756025846E+02  0.00000000000E+00 0. -1.
        -13    1    4    4    0    0 -0.37057166400E+02 -0.36298535407E+02  0.85469234842E+01  0.52572494285E+02  0.00000000000E+00 0. -1.
         13    1    4    4    0    0  0.36450064201E+02  0.17425043890E+02  0.40353500717E+01  0.40602012081E+02  0.00000000000E+00 0.  1.
         21    1    1    2  503  502  0.59374010483E+02  0.15351438182E+02  0.16093198004E+02  0.63402924200E+02  0.00000000000E+00 0.  1.
         -4    1    1    2    0  503  0.65140217432E+01  0.23560337964E+02  0.13592925800E+03  0.13810968534E+03  0.00000000000E+00 0.  1.
<scales pt_clust_5="13000.00000" pt_clust_6="13000.00000" pt_clust_7="13000.00000" pt_clust_8="13000.00000" pt_clust_9="61.32650" pt_clust_10="13000.00000"></scales>
<clustering>
<clus scale="   61.327">  2  9  1 -1</clus>
<clus scale="   82.915">  5  6 -1 -1</clus>
<clus scale="   87.828">  1  5  2 -1</clus>
<clus scale="   90.369">  7  8 -1 -1</clus>
<clus scale="   20.180">  7 10 -1 -1</clus>
<clus scale="   61.327">  2  5  1 -1</clus>
</clustering>
</event>
<event>
10    4  0.2866397E-005  0.5465747E+03  0.7546771E-02  0.1051015E+00
         21   -1    0    0  501  502  0.00000000000E+00  0.00000000000E+00  0.39540268135E+03  0.39540268135E+03  0.00000000000E+00 0. -1.
          2   -1    0    0  503    0 -0.00000000000E+00 -0.00000000000E+00 -0.19744208256E+04  0.19744208256E+04  0.00000000000E+00 0. -1.
         24    2    1    2    0    0 -0.94858988079E+02  0.21593579790E+02 -0.12563182184E+04  0.12627615216E+04  0.82259856992E+02 0.  0.
         23    2    1    2    0    0  0.10607003453E+03  0.62102381464E+01 -0.20149140430E+02  0.14315633762E+03  0.93799412891E+02 0.  0.
        -13    1    3    3    0    0 -0.13518281723E+02 -0.21915996668E+02 -0.12141367130E+03  0.12411419915E+03  0.00000000000E+00 0.  1.
         14    1    3    3    0    0 -0.81340706355E+02  0.43509576458E+02 -0.11349045471E+04  0.11386473224E+04  0.00000000000E+00 0. -1.
        -11    1    4    4    0    0  0.36204561938E+02 -0.36331583051E+02 -0.32073172078E+02  0.60493326899E+02  0.00000000000E+00 0.  1.
         11    1    4    4    0    0  0.69865472591E+02  0.42541821198E+02  0.11924031648E+02  0.82663010724E+02  0.00000000000E+00 0. -1.
         21    1    1    2  503  502 -0.45940815124E+03 -0.48187173137E+02 -0.20173229328E+03  0.50405730947E+03  0.00000000000E+00 0. -1.
          1    1    1    2  501    0  0.44819710478E+03  0.20383355201E+02 -0.10081849214E+03  0.45984833833E+03  0.00000000000E+00 0. -1.
<scales pt_clust_5="13000.00000" pt_clust_6="13000.00000" pt_clust_7="13000.00000" pt_clust_8="13000.00000" pt_clust_9="507.62380" pt_clust_10="13000.00000"></scales>
<clustering>
<clus scale="   82.260">  5  6 -1 -1</clus>
<clus scale="   93.799">  7  8 -1 -1</clus>
<clus scale="  127.402">  2  5  1 -1</clus>
<clus scale="  412.011">  7 10 -1 -1</clus>
<clus scale="  507.624">  1  9  2 -1</clus>
<clus scale="  507.624">  1  5  2 -1</clus>
</clustering>
</event>
<event>
10    4  0.2866397E-005  0.3133012E+03  0.7546771E-02  0.1110501E+00
          2   -1    0    0  503    0 -0.00000000000E+00  0.00000000000E+00  0.14132096165E+03  0.14132096165E+03  0.00000000000E+00 0. -1.
         21   -1    0    0  501  502  0.00000000000E+00 -0.00000000000E+00 -0.50244562777E+03  0.50244562777E+03  0.00000000000E+00 0. -1.
         24    2    1    2    0    0  0.80017217769E+02  0.72934876682E+02 -0.14599932478E+03  0.19877753022E+03  0.80463981420E+02 0.  0.
         23    2    1    2    0    0 -0.10063060641E+02  0.17989277813E+02 -0.19899651603E+03  0.22106698232E+03  0.94053803625E+02 0.  0.
        -13    1    3    3    0    0  0.36071718375E+02 -0.65841789264E+01 -0.15599588964E+02  0.39848054589E+02  0.00000000000E+00 0.  1.
         14    1    3    3    0    0  0.43945499394E+02  0.79519055608E+02 -0.13039973582E+03  0.15892947563E+03  0.00000000000E+00 0. -1.
        -11    1    4    4    0    0 -0.30137556674E+02  0.36286385245E+02 -0.18418499359E+03  0.19012912964E+03  0.00000000000E+00 0.  1.
         11    1    4    4    0    0  0.20074496033E+02 -0.18297107432E+02 -0.14811522440E+02  0.30937852679E+02  0.00000000000E+00 0. -1.
         21    1    1    2  503  502 -0.50413966840E+02  0.49192823269E+02 -0.39152453702E+02  0.80587942923E+02  0.00000000000E+00 0. -1.
          1    1    1    2  501    0 -0.19540190288E+02 -0.14011697776E+03  0.23023628393E+02  0.14333413396E+03  0.00000000000E+00 0. -1.
<scales pt_clust_5="13000.00000" pt_clust_6="13000.00000" pt_clust_7="13000.00000" pt_clust_8="13000.00000" pt_clust_9="70.43796" pt_clust_10="13000.00000"></scales>
<clustering>
<clus scale="   70.438">  2  9  1 -1</clus>
<clus scale="   80.464">  5  6 -1 -1</clus>
<clus scale="   94.054">  7  8 -1 -1</clus>
<clus scale="  136.016">  7 10 -1 -1</clus>
<clus scale="  136.389">  1  5  2 -1</clus>
<clus scale="   70.438">  2  5  1 -1</clus>
</clustering>
</event>
<event>
10    4  0.2866397E-005  0.2481955E+03  0.7546771E-02  0.1130130E+00
          2   -1    0    0  503    0 -0.00000000000E+00  0.00000000000E+00  0.13632284623E+04  0.13632284623E+04  0.00000000000E+00 0. -1.
         21   -1    0    0  501  502  0.00000000000E+00 -0.00000000000E+00 -0.10195816714E+03  0.10195816714E+03  0.00000000000E+00 0. -1.
         24    2    1    2    0    0  0.14059368302E+03  0.65736508159E+02  0.10359169277E+04  0.10505379343E+04  0.80113658044E+02 0.  0.
         23    2    1    2    0    0  0.11472623105E+02  0.21201695434E+02  0.59686530308E+02  0.11137232462E+03  0.90885531412E+02 0.  0.
        -11    1    3    3    0    0  0.26495627064E+02  0.45342071055E+01  0.56147929953E+02  0.62250841967E+02  0.00000000000E+00 0.  1.
         12    1    3    3    0    0  0.11409805596E+03  0.61202301053E+02  0.97976899772E+03  0.98828709236E+03  0.00000000000E+00 0. -1.
        -13    1    4    4    0    0  0.31287485386E+02 -0.26828605709E+02  0.19016661241E+02  0.45390684405E+02  0.00000000000E+00 0. -1.
         13    1    4    4    0    0 -0.19814862280E+02  0.48030301142E+02  0.40669869067E+02  0.65981640211E+02  0.00000000000E+00 0.  1.
         21    1    1    2  503  502 -0.29343093168E+02 -0.66601254026E+02 -0.23843975902E+02  0.76585111747E+02  0.00000000000E+00 0. -1.
          1    1    1    2  501    0 -0.12272321296E+03 -0.20336949566E+02  0.18951081306E+03  0.22669125873E+03  0.00000000000E+00 0. -1.
<scales pt_clust_5="13000.00000" pt_clust_6="13000.00000" pt_clust_7="13000.00000" pt_clust_8="13000.00000" pt_clust_9="72.77873" pt_clust_10="13000.00000"></scales>
<clustering>
<clus scale="   72.779">  2  9  1 -1</clus>
<clus scale="   80.114">  5  6 -1 -1</clus>
<clus scale="   90.886">  7  8 -1 -1</clus>
<clus scale="  140.425">  7 10 -1 -1</clus>
<clus scale="  167.955">  1  5  2 -1</clus>
<clus scale="   72.779">  2  5  1 -1</clus>
</clustering>
</event>
<event>
10    4  0.2866397E-005  0.1471096E+03  0.7546771E-02  0.1217258E+00
         -3   -1    0    0    0  501 -0.00000000000E+00  0.00000000000E+00  0.54668825045E+03  0.54668825045E+03  0.00000000000E+00 0.  1.
         21   -1    0    0  503  502  0.00000000000E+00 -0.00000000000E+00 -0.25336528392E+03  0.25336528392E+03  0.00000000000E+00 0. -1.
         24    2    1    2    0    0  0.12434663323E+03  0.60761691148E+02 -0.40907715052E+02  0.16834484566E+03  0.86674549915E+02 0.  0.
         23    2    1    2    0    0 -0.37220679372E+02 -0.26571262593E+02  0.37876730601E+03  0.39228066206E+03  0.91258066798E+02 0.  0.
        -13    1    3    3    0    0  0.55981531850E+02 -0.17887081397E+02 -0.19838106086E+02  0.62027655463E+02  0.00000000000E+00 0.  1.
         14    1    3    3    0    0  0.68365101376E+02  0.78648772544E+02 -0.21069608965E+02  0.10631719019E+03  0.00000000000E+00 0. -1.
        -13    1    4    4    0    0 -0.54652840279E+02 -0.38970894371E+02  0.35029035492E+03  0.35666370197E+03  0.00000000000E+00 0.  1.
         13    1    4    4    0    0  0.17432160907E+02  0.12399631778E+02  0.28476951090E+02  0.35616960082E+02  0.00000000000E+00 0. -1.
         21    1    1    2  503  501 -0.60953032245E+02 -0.61962367649E+02 -0.12391147408E+03  0.15135607207E+03  0.00000000000E+00 0. -1.
         -4    1    1    2    0  502 -0.26172921609E+02  0.27771939095E+02  0.79374849657E+02  0.88071954587E+02  0.00000000000E+00 0.  1.
<scales pt_clust_5="13000.00000" pt_clust_6="13000.00000" pt_clust_7="13000.00000" pt_clust_8="13000.00000" pt_clust_9="86.91724" pt_clust_10="13000.00000"></scales>
<clustering>
<clus scale="   86.675">  5  6 -1 -1</clus>
<clus scale="   86.917">  2  9  1 -1</clus>
<clus scale="   91.258">  7  8 -1 -1</clus>
<clus scale="   38.178">  7 10 -1 -1</clus>
<clus scale="  111.038">  1  5  2 -1</clus>
<clus scale="   86.917">  2  5  1 -1</clus>
</clustering>
</event>
<event>
10    4  0.2866397E-005  0.2572964E+03  0.7546771E-02  0.1133672E+00
         21   -1    0    0  503  502  0.00000000000E+00  0.00000000000E+00  0.27809157666E+03  0.27809157666E+03  0.00000000000E+00 0.  1.
          2   -1    0    0  502    0 -0.00000000000E+00 -0.00000000000E+00 -0.53485571030E+03  0.53485571030E+03  0.00000000000E+00 0. -1.
         24    2    1    2    0    0 -0.52981060921E+02 -0.10168932345E+03 -0.26757209294E+03  0.30205666649E+03  0.80595865469E+02 0.  0.
         23    2    1    2    0    0 -0.77555908680E+02  0.12077271540E+02 -0.73561934722E+02  0.14137174294E+03  0.91726942626E+02 0.  0.
        -13    1    3    3    0    0 -0.42566411075E+02 -0.50363661725E+01 -0.77257581817E+02  0.88351560735E+02  0.00000000000E+00 0.  1.
         14    1    3    3    0    0 -0.10414649846E+02 -0.96652957278E+02 -0.19031451112E+03  0.21370510575E+03  0.00000000000E+00 0. -1.
        -11    1    4    4    0    0 -0.18902687942E+02 -0.38670271825E+02 -0.23223762454E+02  0.48908533785E+02  0.00000000000E+00 0. -1.
         11    1    4    4    0    0 -0.58653220738E+02  0.50747543365E+02 -0.50338172267E+02  0.92463209158E+02  0.00000000000E+00 0.  1.
         21    1    1    2  503  501  0.35723879923E+02 -0.46628024578E+01  0.19356531100E+03  0.19688947902E+03  0.00000000000E+00 0.  1.
          1    1    1    2  501    0  0.94813089678E+02  0.94274854368E+02 -0.10919541699E+03  0.17262939851E+03  0.00000000000E+00 0. -1.
<scales pt_clust_5="13000.00000" pt_clust_6="13000.00000" pt_clust_7="13000.00000" pt_clust_8="13000.00000" pt_clust_9="36.02690" pt_clust_10="13000.00000"></scales>
<clustering>
<clus scale="   36.027">  1  9  2 -1</clus>
<clus scale="   80.596">  5  6 -1 -1</clus>
<clus scale="   91.727">  7  8 -1 -1</clus>
<clus scale="  138.236">  2  5  1 -1</clus>
<clus scale="   84.560">  7 10 -1 -1</clus>
<clus scale="   36.027">  1  5  2 -1</clus>
</clustering>
</event>
<event>
10    4  0.2866397E-005  0.3895777E+03  0.7546771E-02  0.1071635E+00
          2   -1    0    0  503    0 -0.00000000000E+00  0.00000000000E+00  0.12050316439E+04  0.12050316439E+04  0.00000000000E+00 0. -1.
         21   -1    0    0  501  502  0.00000000000E+00 -0.00000000000E+00 -0.14354616693E+03  0.14354616693E+03  0.00000000000E+00 0. -1.
         24    2    1    2    0    0  0.32363061764E+02  0.16818822616E+03  0.58840486552E+03  0.61828402480E+03  0.81976840450E+02 0.  0.
         23    2    1    2    0    0  0.89892854442E+02  0.11570236997E+02  0.24583449879E+03  0.27774810041E+03  0.92167298000E+02 0.  0.
        -13    1    3    3    0    0  0.21206476238E+02  0.48329382236E+00  0.51881358373E+02  0.56050187814E+02  0.00000000000E+00 0.  1.
         14    1    3    3    0    0  0.11156585525E+02  0.16770493234E+03  0.53652350715E+03  0.56223383699E+03  0.00000000000E+00 0. -1.
        -11    1    4    4    0    0  0.93882663082E+02 -0.17428097932E+02  0.15246651576E+03  0.17989922583E+03  0.00000000000E+00 0. -1.
         11    1    4    4    0    0 -0.39898086404E+01  0.28998334929E+02  0.93367983030E+02  0.97848874581E+02  0.00000000000E+00 0.  1.
         21    1    1    2  503  502  0.24341339216E+02  0.47164978787E+02 -0.44572461799E+02  0.69309020839E+02  0.00000000000E+00 0. -1.
          1    1    1    2  501    0 -0.14659725542E+03 -0.22692344195E+03  0.27181857444E+03  0.38323666475E+03  0.00000000000E+00 0. -1.
<scales pt_clust_5="13000.00000" pt_clust_6="13000.00000" pt_clust_7="13000.00000" pt_clust_8="13000.00000" pt_clust_9="53.07576" pt_clust_10="13000.00000"></scales>
<clustering>
<clus scale="   53.076">  2  9  1 -1</clus>
<clus scale="   81.977">  5  6 -1 -1</clus>
<clus scale="   92.167">  7  8 -1 -1</clus>
<clus scale="  197.857">  1  5  2 -1</clus>
<clus scale="  160.435">  7 10 -1 -1</clus>
<clus scale="   53.076">  2  5  1 -1</clus>
</clustering>
</event>
<event>
10    4  0.2866397E-005  0.1920702E+03  0.7546771E-02  0.1189859E+00
          2   -1    0    0  503    0 -0.00000000000E+00  0.00000000000E+00  0.11257320521E+04  0.11257320521E+04  0.00000000000E+00 0. -1.
         21   -1    0    0  501  502  0.00000000000E+00 -0.00000000000E+00 -0.45342086485E+02  0.45342086485E+02  0.00000000000E+00 0. -1.
         24    2    1    2    0    0  0.17184559516E+02  0.42487357081E+02  0.57187940538E+03  0.57940357230E+03  0.81005929963E+02 0.  0.
         23    2    1    2    0    0  0.32226838570E+02  0.54194514325E+02  0.25858712627E+03  0.28117664373E+03  0.90649813010E+02 0.  0.
        -11    1    3    3    0    0 -0.19885558805E+02  0.23234803096E+02  0.78312530279E+02  0.84072254178E+02  0.00000000000E+00 0.  1.
         12    1    3    3    0    0  0.37070118321E+02  0.19252553986E+02  0.49356687510E+03  0.49533131812E+03  0.00000000000E+00 0. -1.
        -11    1    4    4    0    0  0.55664521878E+02  0.37886040359E+02  0.23400328637E+03  0.24349831433E+03  0.00000000000E+00 0.  1.
         11    1    4    4    0    0 -0.23437683308E+02  0.16308473966E+02  0.24583839899E+02  0.37678329397E+02  0.00000000000E+00 0. -1.
         21    1    1    2  503  502 -0.15789304175E+02 -0.30107363166E+02 -0.13602772893E+02  0.36616811351E+02  0.00000000000E+00 0. -1.
          1    1    1    2  501    0 -0.33622093912E+02 -0.66574508240E+02  0.26352620689E+03  0.27387711124E+03  0.00000000000E+00 0. -1.
<scales pt_clust_5="13000.00000" pt_clust_6="13000.00000" pt_clust_7="13000.00000" pt_clust_8="13000.00000" pt_clust_9="33.99640" pt_clust_10="13000.00000"></scales>
<clustering>
<clus scale="   33.996">  2  9  1 -1</clus>
<clus scale="   81.006">  5  6 -1 -1</clus>
<clus scale="   90.143">  1  5  2 -1</clus>
<clus scale="   90.650">  7  8 -1 -1</clus>
<clus scale="   60.364">  7 10 -1 -1</clus>
<clus scale="   33.996">  2  5  1 -1</clus>
</clustering>
</event>
<event>
10    4  0.2866397E-005  0.1459711E+03  0.7546771E-02  0.1214024E+00
         21   -1    0    0  503  502  0.00000000000E+00  0.00000000000E+00  0.98206010107E+02  0.98206010107E+02  0.00000000000E+00 0. -1.
          2   -1    0    0  502    0 -0.00000000000E+00 -0.00000000000E+00 -0.88751688608E+03  0.88751688608E+03  0.00000000000E+00 0. -1.
         24    2    1    2    0    0 -0.14606321473E+02 -0.94278092386E+02 -0.70076552403E+03  0.71178167841E+03  0.80368742220E+02 0.  0.
         23    2    1    2    0    0 -0.27653239469E+02  0.37165418904E+02 -0.10829933409E+03  0.14652394271E+03  0.87146715401E+02 0.  0.
        -11    1    3    3    0    0  0.32090173808E+02 -0.54985149388E+02 -0.36786623193E+03  0.37333458251E+03  0.00000000000E+00 0.  1.
         12    1    3    3    0    0 -0.46696495281E+02 -0.39292942998E+02 -0.33289929210E+03  0.33844709590E+03  0.00000000000E+00 0. -1.
        -11    1    4    4    0    0  0.26513184659E+02  0.14164741807E+02 -0.70345189860E+02  0.76498592194E+02  0.00000000000E+00 0.  1.
         11    1    4    4    0    0 -0.54166424128E+02  0.23000677097E+02 -0.37954144235E+02  0.70025350512E+02  0.00000000000E+00 0. -1.
         21    1    1    2  503  501  0.32995757591E+02  0.19559823208E+02  0.60246006633E+02  0.71420501385E+02  0.00000000000E+00 0. -1.
          1    1    1    2  501    0  0.92638033503E+01  0.37552850274E+02 -0.40492024478E+02  0.55996773680E+02  0.00000000000E+00 0. -1.
<scales pt_clust_5="13000.00000" pt_clust_6="13000.00000" pt_clust_7="13000.00000" pt_clust_8="13000.00000" pt_clust_9="38.35762" pt_clust_10="13000.00000"></scales>
<clustering>
<clus scale="   38.358">  1  9  2 -1</clus>
<clus scale="   80.369">  5  6 -1 -1</clus>
<clus scale="   87.147">  7  8 -1 -1</clus>
<clus scale="   45.592">  7 10 -1 -1</clus>
<clus scale="  121.704">  2  5  1 -1</clus>
<clus scale="   38.358">  1  5  2 -1</clus>
</clustering>
</event>
<event>
10    4  0.2866397E-005  0.6685249E+03  0.7546771E-02  0.1006364E+00
          2   -1    0    0  503    0 -0.00000000000E+00  0.00000000000E+00  0.22922890998E+04  0.22922890998E+04  0.00000000000E+00 0. -1.
         21   -1    0    0  501  502  0.00000000000E+00 -0.00000000000E+00 -0.18274417215E+03  0.18274417215E+03  0.00000000000E+00 0.  1.
         24    2    1    2    0    0  0.35257830450E+02 -0.24440814856E+03  0.36686059180E+03  0.44953160157E+03  0.80706315100E+02 0.  0.
         23    2    1    2    0    0 -0.77243950805E+01 -0.19566907620E+03  0.56840517322E+03  0.60826312205E+03  0.92485301772E+02 0.  0.
        -11    1    3    3    0    0  0.51812310764E+01 -0.37660316609E+02  0.16141852128E+02  0.41300169403E+02  0.00000000000E+00 0.  1.
         12    1    3    3    0    0  0.30076599373E+02 -0.20674783196E+03  0.35071873967E+03  0.40823143216E+03  0.00000000000E+00 0. -1.
        -11    1    4    4    0    0 -0.63231941248E-01 -0.10245550313E+03  0.42409493506E+03  0.43629536791E+03  0.00000000000E+00 0.  1.
         11    1    4    4    0    0 -0.76611631393E+01 -0.93213573071E+02  0.14431023816E+03  0.17196775414E+03  0.00000000000E+00 0. -1.
         21    1    1    2  503  502 -0.62876899000E+02 -0.14087027003E+02 -0.68234882629E+02  0.93850668431E+02  0.00000000000E+00 0.  1.
          1    1    1    2  501    0  0.35343463630E+02  0.45416425177E+03  0.12425140452E+04  0.13233878799E+04  0.00000000000E+00 0. -1.
<scales pt_clust_5="13000.00000" pt_clust_6="13000.00000" pt_clust_7="13000.00000" pt_clust_8="13000.00000" pt_clust_9="64.43562" pt_clust_10="13000.00000"></scales>
<clustering>
<clus scale="   64.436">  2  9  1 -1</clus>
<clus scale="   80.706">  5  6 -1 -1</clus>
<clus scale="   92.485">  7  8 -1 -1</clus>
<clus scale="  263.011">  1  5  2 -1</clus>
<clus scale="  281.443">  7 10 -1 -1</clus>
<clus scale="   64.436">  2  5  1 -1</clus>
</clustering>
</event>
<event>
10    4  0.2866397E-005  0.4893345E+03  0.7546771E-02  0.1047335E+00
         21   -1    0    0  503  502  0.00000000000E+00  0.00000000000E+00  0.99996528472E+02  0.99996528472E+02  0.00000000000E+00 0. -1.
          2   -1    0    0  502    0 -0.00000000000E+00 -0.00000000000E+00 -0.21536106440E+04  0.21536106440E+04  0.00000000000E+00 0. -1.
         24    2    1    2    0    0  0.11078717801E+03  0.13449017278E+03 -0.93933435952E+03  0.95875085370E+03  0.80577634022E+02 0.  0.
         23    2    1    2    0    0  0.13783526135E+03 -0.18002368856E+02 -0.52263075147E+03  0.54839871410E+03  0.90970339610E+02 0.  0.
        -11    1    3    3    0    0 -0.23088060645E+01  0.32962358537E+02 -0.88889806724E+02  0.94832723282E+02  0.00000000000E+00 0.  1.
         12    1    3    3    0    0  0.11309598407E+03  0.10152781424E+03 -0.85044455280E+03  0.86391813042E+03  0.00000000000E+00 0. -1.
        -11    1    4    4    0    0  0.41248430127E+02 -0.34267393689E+02 -0.30587670689E+03  0.31054186043E+03  0.00000000000E+00 0.  1.
         11    1    4    4    0    0  0.96586831224E+02  0.16265024833E+02 -0.21675404458E+03  0.23785685368E+03  0.00000000000E+00 0. -1.
         21    1    1    2  503  501  0.52280435167E+02  0.48002508001E+01  0.18297248490E+02  0.55597442489E+02  0.00000000000E+00 0. -1.
          1    1    1    2  501    0 -0.30090287453E+03 -0.12128805473E+03 -0.60994625306E+03  0.69086016222E+03  0.00000000000E+00 0. -1.
<scales pt_clust_5="13000.00000" pt_clust_6="13000.00000" pt_clust_7="13000.00000" pt_clust_8="13000.00000" pt_clust_9="52.50035" pt_clust_10="13000.00000"></scales>
<clustering>
<clus scale="   52.500">  1  9  2 -1</clus>
<clus scale="   80.578">  5  6 -1 -1</clus>
<clus scale="   90.970">  7  8 -1 -1</clus>
<clus scale="  197.236">  2  5  1 -1</clus>
<clus scale="  218.301">  7 10 -1 -1</clus>
<clus scale="   52.500">  1  5  2 -1</clus>
</clustering>
</event>
<event>
10    4  0.2866397E-005  0.1411084E+03  0.7546771E-02  0.1236560E+00
          2   -1    0    0  503    0 -0.00000000000E+00  0.00000000000E+00  0.21638149983E+03  0.21638149983E+03  0.00000000000E+00 0. -1.
         21   -1    0    0  501  502  0.00000000000E+00 -0.00000000000E+00 -0.24500644306E+03  0.24500644306E+03  0.00000000000E+00 0. -1.
         24    2    1    2    0    0 -0.14580838377E+02  0.17587257365E+02 -0.45111491700E+02  0.97065924850E+02  0.82854297500E+02 0.  0.
         23    2    1    2    0    0 -0.23841836761E+02 -0.17718823542E+02  0.13040273630E+03  0.16197614750E+03  0.91372910852E+02 0.  0.
        -13    1    3    3    0    0  0.32931599854E+02  0.19356324527E+02 -0.23413638971E+02  0.44803527294E+02  0.00000000000E+00 0.  1.
         14    1    3    3    0    0 -0.47512438231E+02 -0.17690671618E+01 -0.21697852729E+02  0.52262397556E+02  0.00000000000E+00 0. -1.
        -11    1    4    4    0    0  0.28202443986E+02 -0.87378880222E+01  0.92150723677E+02  0.96765099121E+02  0.00000000000E+00 0.  1.
         11    1    4    4    0    0 -0.52044280746E+02 -0.89809355198E+01  0.38252012619E+02  0.65211048379E+02  0.00000000000E+00 0. -1.
         21    1    1    2  503  502  0.31573394033E+02 -0.42725262007E+02 -0.14134849699E+03  0.15100240007E+03  0.00000000000E+00 0. -1.
          1    1    1    2  501    0  0.68492811042E+01  0.42856828184E+02  0.27432309173E+02  0.51343470473E+02  0.00000000000E+00 0. -1.
<scales pt_clust_5="13000.00000" pt_clust_6="13000.00000" pt_clust_7="13000.00000" pt_clust_8="13000.00000" pt_clust_9="53.12558" pt_clust_10="13000.00000"></scales>
<clustering>
<clus scale="   53.126">  2  9  1 -1</clus>
<clus scale="   82.854">  5  6 -1 -1</clus>
<clus scale="   84.284">  1  5  2 -1</clus>
<clus scale="   91.373">  7  8 -1 -1</clus>
<clus scale="   37.321">  7 10 -1 -1</clus>
<clus scale="   53.126">  2  5  1 -1</clus>
</clustering>
</event>
<event>
10    4  0.2866397E-005  0.2790870E+03  0.7546771E-02  0.1140289E+00
         21   -1    0    0  503  502  0.00000000000E+00  0.00000000000E+00  0.21304175701E+03  0.21304175701E+03  0.00000000000E+00 0. -1.
         -1   -1    0    0    0  501 -0.00000000000E+00 -0.00000000000E+00 -0.26825672741E+03  0.26825672741E+03  0.00000000000E+00 0.  1.
         24    2    1    2    0    0  0.24519739803E+02 -0.78073577982E+01  0.10064074081E+03  0.13391561914E+03  0.84514270178E+02 0.  0.
         23    2    1    2    0    0 -0.30274087560E+02  0.10149105553E+02 -0.22446285593E+03  0.24442576871E+03  0.91328297895E+02 0.  0.
        -11    1    3    3    0    0  0.73496872743E+01 -0.43937945594E+02  0.33413214421E+02  0.55686657864E+02  0.00000000000E+00 0.  1.
         12    1    3    3    0    0  0.17170052529E+02  0.36130587796E+02  0.67227526392E+02  0.78228961281E+02  0.00000000000E+00 0. -1.
        -11    1    4    4    0    0 -0.61985334176E+02  0.36133562918E+01 -0.17099154318E+03  0.18191576577E+03  0.00000000000E+00 0.  1.
         11    1    4    4    0    0  0.31711246617E+02  0.65357492610E+01 -0.53471312749E+02  0.62510002939E+02  0.00000000000E+00 0. -1.
         21    1    1    2  503  501  0.21196274304E+02  0.17535717262E+02 -0.24062683549E+01  0.27614734322E+02  0.00000000000E+00 0.  1.
         -2    1    1    2    0  502 -0.15441926547E+02 -0.19877465017E+02  0.71013413077E+02  0.75342362240E+02  0.00000000000E+00 0.  1.
<scales pt_clust_5="13000.00000" pt_clust_6="13000.00000" pt_clust_7="13000.00000" pt_clust_8="13000.00000" pt_clust_9="27.50970" pt_clust_10="13000.00000"></scales>
<clustering>
<clus scale="   27.510">  1  9  2 -1</clus>
<clus scale="   84.514">  5  6 -1 -1</clus>
<clus scale="   91.328">  7  8 -1 -1</clus>
<clus scale="   15.522">  7 10 -1 -1</clus>
<clus scale="   92.260">  2  5  1 -1</clus>
<clus scale="   27.510">  1  5  2 -1</clus>
</clustering>
</event>
<event>
10    4  0.2866397E-005  0.1886957E+03  0.7546771E-02  0.1199105E+00
         21   -1    0    0  501  502  0.00000000000E+00  0.00000000000E+00  0.33599377271E+03  0.33599377271E+03  0.00000000000E+00 0.  1.
          2   -1    0    0  503    0 -0.00000000000E+00 -0.00000000000E+00 -0.33039239122E+03  0.33039239122E+03  0.00000000000E+00 0. -1.
         24    2    1    2    0    0  0.10447658329E+02 -0.17303649664E+02 -0.30093205267E+02  0.85184535212E+02  0.77085888332E+02 0.  0.
         23    2    1    2    0    0 -0.31360162153E+02  0.13941924862E+02 -0.20641922212E+03  0.22811569151E+03  0.90829711071E+02 0.  0.
        -11    1    3    3    0    0 -0.26212885683E+02 -0.11192286639E+02 -0.37685870901E+02  0.47250476417E+02  0.00000000000E+00 0.  1.
         12    1    3    3    0    0  0.36660544012E+02 -0.61113630250E+01  0.75926656344E+01  0.37934058796E+02  0.00000000000E+00 0. -1.
        -11    1    4    4    0    0  0.25909495228E+02 -0.28806016138E+01 -0.12182557979E+03  0.12458359322E+03  0.00000000000E+00 0.  1.
         11    1    4    4    0    0 -0.57269657381E+02  0.16822526476E+02 -0.84593642333E+02  0.10353209829E+03  0.00000000000E+00 0. -1.
         21    1    1    2  503  502 -0.21434683038E+02  0.59639880018E+02  0.26999801633E+03  0.27733605923E+03  0.00000000000E+00 0.  1.
          1    1    1    2  501    0  0.42347186862E+02 -0.56278155216E+02 -0.27884207454E+02  0.75749877987E+02  0.00000000000E+00 0. -1.
<scales pt_clust_5="13000.00000" pt_clust_6="13000.00000" pt_clust_7="13000.00000" pt_clust_8="13000.00000" pt_clust_9="63.37477" pt_clust_10="13000.00000"></scales>
<clustering>
<clus scale="   63.375">  1  9  2 -1</clus>
<clus scale="   77.086">  5  6 -1 -1</clus>
<clus scale="   77.622">  2  5  1 -1</clus>
<clus scale="   90.830">  7  8 -1 -1</clus>
<clus scale="   47.076">  7 10 -1 -1</clus>
<clus scale="   63.375">  1  5  2 -1</clus>
</clustering>
</event>
<event>
10    4  0.2866397E-005  0.2002902E+03  0.7546771E-02  0.1180609E+00
          2   -1    0    0  503    0 -0.00000000000E+00  0.00000000000E+00  0.29424025006E+03  0.29424025006E+03  0.00000000000E+00 0. -1.
         21   -1    0    0  501  502  0.00000000000E+00 -0.00000000000E+00 -0.34345814481E+03  0.34345814481E+03  0.00000000000E+00 0. -1.
         24    2    1    2    0    0  0.26740389008E+02 -0.56812180368E+02  0.87405059549E+02  0.13406688048E+03  0.79947556331E+02 0.  0.
         23    2    1    2    0    0 -0.16634938780E+01  0.31759064538E+02 -0.64513240430E+01  0.95717049524E+02  0.90048479140E+02 0.  0.
        -13    1    3    3    0    0 -0.27826471445E+02 -0.11568814236E+02  0.19423117550E+02  0.35852579702E+02  0.00000000000E+00 0.  1.
         14    1    3    3    0    0  0.54566860452E+02 -0.45243366132E+02  0.67981941998E+02  0.98214300774E+02  0.00000000000E+00 0. -1.
        -13    1    4    4    0    0  0.32684740032E+02 -0.36736519456E+01 -0.26712053052E+02  0.42371237035E+02  0.00000000000E+00 0.  1.
         13    1    4    4    0    0 -0.34348233910E+02  0.35432716484E+02  0.20260729009E+02  0.53345812489E+02  0.00000000000E+00 0. -1.
         21    1    1    2  503  502  0.10912417420E+02  0.30971159459E+02 -0.26561969027E+03  0.26764176324E+03  0.00000000000E+00 0. -1.
          1    1    1    2  501    0 -0.35989312549E+02 -0.59180436288E+01  0.13544806002E+03  0.14027270163E+03  0.00000000000E+00 0. -1.
<scales pt_clust_5="13000.00000" pt_clust_6="13000.00000" pt_clust_7="13000.00000" pt_clust_8="13000.00000" pt_clust_9="32.83738" pt_clust_10="13000.00000"></scales>
<clustering>
<clus scale="   32.837">  2  9  1 -1</clus>
<clus scale="   79.948">  5  6 -1 -1</clus>
<clus scale="   90.048">  7  8 -1 -1</clus>
<clus scale="   35.988">  7 10 -1 -1</clus>
<clus scale="   97.685">  1  5  2 -1</clus>
<clus scale="   32.837">  2  5  1 -1</clus>
</clustering>
</event>
<event>
10    4  0.2866397E-005  0.2372885E+03  0.7546771E-02  0.1143903E+00
         21   -1    0    0  503  502  0.00000000000E+00  0.00000000000E+00  0.25515039327E+03  0.25515039327E+03  0.00000000000E+00 0.  1.
          2   -1    0    0  502    0 -0.00000000000E+00 -0.00000000000E+00 -0.41157430927E+03  0.41157430927E+03  0.00000000000E+00 0. -1.
         24    2    1    2    0    0 -0.14627301966E+02 -0.91373621059E+02  0.56918226190E+02  0.13551864184E+03  0.81009389734E+02 0.  0.
         23    2    1    2    0    0  0.17364070922E+01  0.32084644914E+02 -0.30269664734E+03  0.31835650844E+03  0.93237152490E+02 0.  0.
        -11    1    3    3    0    0  0.74131721425E+01 -0.28324644558E+02  0.61968989642E+02  0.68537553850E+02  0.00000000000E+00 0.  1.
         12    1    3    3    0    0 -0.22040474109E+02 -0.63048976501E+02 -0.50507634516E+01  0.66981087989E+02  0.00000000000E+00 0. -1.
        -13    1    4    4    0    0 -0.31994941787E+02  0.47526511145E+02 -0.22614333600E+03  0.23328792078E+03  0.00000000000E+00 0. -1.
         13    1    4    4    0    0  0.33731348879E+02 -0.15441866231E+02 -0.76553311339E+02  0.85068587662E+02  0.00000000000E+00 0.  1.
         21    1    1    2  503  501 -0.18454615524E+01 -0.26352013585E+02  0.11833284409E+03  0.12124560338E+03  0.00000000000E+00 0.  1.
          1    1    1    2  501    0  0.14736356426E+02  0.85640989730E+02 -0.28978338944E+02  0.91603948882E+02  0.00000000000E+00 0. -1.
<scales pt_clust_5="13000.00000" pt_clust_6="13000.00000" pt_clust_7="13000.00000" pt_clust_8="13000.00000" pt_clust_9="26.41655" pt_clust_10="13000.00000"></scales>
<clustering>
<clus scale="   26.417">  1  9  2 -1</clus>
<clus scale="   81.009">  5  6 -1 -1</clus>
<clus scale="   93.237">  7  8 -1 -1</clus>
<clus scale="   80.822">  7 10 -1 -1</clus>
<clus scale="  137.622">  2  5  1 -1</clus>
<clus scale="   26.417">  1  5  2 -1</clus>
</clustering>
</event>
<event>
10    4  0.2866397E-005  0.2860350E+03  0.7546771E-02  0.1110663E+00
         21   -1    0    0  501  502  0.00000000000E+00  0.00000000000E+00  0.11836669190E+03  0.11836669190E+03  0.00000000000E+00 0. -1.
          2   -1    0    0  503    0 -0.00000000000E+00 -0.00000000000E+00 -0.66638499965E+03  0.66638499965E+03  0.00000000000E+00 0. -1.
         24    2    1    2    0    0 -0.12517181761E+03  0.69416345861E+02 -0.28808893247E+03  0.33918291254E+03  0.10753233071E+03 0.  0.
         23    2    1    2    0    0 -0.40927023670E+02 -0.51277458686E+02 -0.12512191196E+03  0.16563746231E+03  0.86463154186E+02 0.  0.
        -13    1    3    3    0    0 -0.44665803049E+02  0.74552039767E+02 -0.20837574670E+03  0.22577309939E+03  0.00000000000E+00 0.  1.
         14    1    3    3    0    0 -0.80506014559E+02 -0.51356939059E+01 -0.79713185766E+02  0.11340981314E+03  0.00000000000E+00 0. -1.
        -11    1    4    4    0    0 -0.38670882285E+02 -0.32162243983E+01 -0.88458353105E+01  0.39799874855E+02  0.00000000000E+00 0. -1.
         11    1    4    4    0    0 -0.22561413851E+01 -0.48061234288E+02 -0.11627607665E+03  0.12583758746E+03  0.00000000000E+00 0.  1.
         21    1    1    2  503  502 -0.10542381716E+02 -0.25171910783E+02  0.28360427932E+02  0.39358363498E+02  0.00000000000E+00 0. -1.
          1    1    1    2  501    0  0.17664122299E+03  0.70330236089E+01 -0.16316789124E+03  0.24057295320E+03  0.00000000000E+00 0. -1.
<scales pt_clust_5="13000.00000" pt_clust_6="13000.00000" pt_clust_7="13000.00000" pt_clust_8="13000.00000" pt_clust_9="27.29042" pt_clust_10="13000.00000"></scales>
<clustering>
<clus scale="   27.290">  1  9  2 -1</clus>
<clus scale="   86.463">  7  8 -1 -1</clus>
<clus scale="  107.532">  5  6 -1 -1</clus>
<clus scale="  171.872">  7 10 -1 -1</clus>
<clus scale="  178.492">  2  5  1 -1</clus>
<clus scale="   27.290">  1  5  2 -1</clus>
</clustering>
</event>
<event>
10    4  0.2866397E-005  0.2264930E+03  0.7546771E-02  0.1162534E+00
         21   -1    0    0  503  502  0.00000000000E+00  0.00000000000E+00  0.42330714610E+03  0.42330714610E+03  0.00000000000E+00 0. -1.
          2   -1    0    0  502    0 -0.00000000000E+00 -0.00000000000E+00 -0.64636915649E+03  0.64636915649E+03  0.00000000000E+00 0. -1.
         24    2    1    2    0    0  0.45348930153E+02 -0.41265535101E+02 -0.45012780880E+03  0.46154547834E+03  0.81546394560E+02 0.  0.
         23    2    1    2    0    0 -0.10529843341E+03  0.44259726101E+02 -0.48469144457E+02  0.15415296860E+03  0.91472380141E+02 0.  0.
        -13    1    3    3    0    0  0.55627960415E+02  0.37914328835E+01 -0.23864259453E+03  0.24506964901E+03  0.00000000000E+00 0.  1.
         14    1    3    3    0    0 -0.10279030262E+02 -0.45056967985E+02 -0.21148521427E+03  0.21647582933E+03  0.00000000000E+00 0. -1.
        -11    1    4    4    0    0  0.45236439540E+01  0.31056199697E+02  0.41589972464E+01  0.31658303055E+02  0.00000000000E+00 0. -1.
         11    1    4    4    0    0 -0.10982207737E+03  0.13203526404E+02 -0.52628141704E+02  0.12249466554E+03  0.00000000000E+00 0.  1.
         21    1    1    2  503  501  0.12977784820E+03 -0.10294459892E+03  0.28714497339E+03  0.33149979800E+03  0.00000000000E+00 0. -1.
          1    1    1    2  501    0 -0.69828344935E+02  0.99950407916E+02 -0.11610030517E+02  0.12247805766E+03  0.00000000000E+00 0. -1.
<scales pt_clust_5="13000.00000" pt_clust_6="13000.00000" pt_clust_7="13000.00000" pt_clust_8="13000.00000" pt_clust_9="172.77094" pt_clust_10="13000.00000"></scales>
<clustering>
<clus scale="   81.546">  5  6 -1 -1</clus>
<clus scale="   91.472">  7  8 -1 -1</clus>
<clus scale="  102.025">  2  5  1 -1</clus>
<clus scale="  100.997">  7 10 -1 -1</clus>
<clus scale="  172.771">  1  9  2 -1</clus>
<clus scale="  172.771">  1  5  2 -1</clus>
</clustering>
</event>
<event>
10    4  0.2866397E-005  0.3746915E+03  0.7546771E-02  0.1064495E+00
         21   -1    0    0  503  502  0.00000000000E+00  0.00000000000E+00  0.28390911120E+03  0.28390911120E+03  0.00000000000E+00 0.  1.
          2   -1    0    0  502    0 -0.00000000000E+00 -0.00000000000E+00 -0.11456281698E+04  0.11456281698E+04  0.00000000000E+00 0. -1.
         24    2    1    2    0    0 -0.81296306947E+02 -0.25521217987E+03 -0.42203018373E+03  0.50634915661E+03  0.80855711866E+02 0.  0.
         23    2    1    2    0    0 -0.11271154635E+02  0.84587834637E+02 -0.68653240851E+02  0.14204584006E+03  0.90452266431E+02 0.  0.
        -11    1    3    3    0    0 -0.64393598654E+02 -0.16919707688E+03 -0.21212421121E+03  0.27887428593E+03  0.00000000000E+00 0.  1.
         12    1    3    3    0    0 -0.16902708293E+02 -0.86015102990E+02 -0.20990597251E+03  0.22747487067E+03  0.00000000000E+00 0. -1.
        -13    1    4    4    0    0 -0.24072910358E+02 -0.26426165975E+01 -0.44450174751E+02  0.50619230249E+02  0.00000000000E+00 0. -1.
         13    1    4    4    0    0  0.12801755723E+02  0.87230451235E+02 -0.24203066100E+02  0.91426609807E+02  0.00000000000E+00 0.  1.
         21    1    1    2  503  501  0.17101298144E+02  0.16261915984E+02  0.19150113125E+03  0.19294970220E+03  0.00000000000E+00 0.  1.
          1    1    1    2  501    0  0.75466163438E+02  0.15436242925E+03 -0.56253676523E+03  0.58819258209E+03  0.00000000000E+00 0. -1.
<scales pt_clust_5="13000.00000" pt_clust_6="13000.00000" pt_clust_7="13000.00000" pt_clust_8="13000.00000" pt_clust_9="23.59882" pt_clust_10="13000.00000"></scales>
<clustering>
<clus scale="   23.599">  1  9  2 -1</clus>
<clus scale="   80.856">  5  6 -1 -1</clus>
<clus scale="   90.452">  7  8 -1 -1</clus>
<clus scale="  174.921">  7 10 -1 -1</clus>
<clus scale="  270.744">  2  5  1 -1</clus>
<clus scale="   23.599">  1  5  2 -1</clus>
</clustering>
</event>
<event>
10    4  0.2866397E-005  0.1987164E+03  0.7546771E-02  0.1182802E+00
          2   -1    0    0  503    0 -0.00000000000E+00  0.00000000000E+00  0.12078027627E+04  0.12078027627E+04  0.00000000000E+00 0. -1.
         21   -1    0    0  501  502  0.00000000000E+00 -0.00000000000E+00 -0.48557079119E+02  0.48557079119E+02  0.00000000000E+00 0. -1.
         24    2    1    2    0    0  0.42116143884E+02 -0.20586208430E+02  0.54251416446E+03  0.55037984478E+03  0.79992458038E+02 0.  0.
         23    2    1    2    0    0  0.32139578975E+02  0.14321512786E+02  0.38323742073E+03  0.39813941566E+03  0.10200987890E+03 0.  0.
        -13    1    3    3    0    0 -0.22925694706E+02 -0.15076965517E+02  0.16248927717E+03  0.16478976777E+03  0.00000000000E+00 0.  1.
         14    1    3    3    0    0  0.65041838591E+02 -0.55092429136E+01  0.38002488729E+03  0.38559007701E+03  0.00000000000E+00 0. -1.
        -13    1    4    4    0    0  0.56939726065E+02  0.39676073873E+02  0.29472398294E+03  0.30278465840E+03  0.00000000000E+00 0. -1.
         13    1    4    4    0    0 -0.24800147091E+02 -0.25354561087E+02  0.88513437789E+02  0.95354757263E+02  0.00000000000E+00 0.  1.
         21    1    1    2  503  502  0.17421545771E+02 -0.19200947666E+02 -0.22755478872E+02  0.34496354401E+02  0.00000000000E+00 0. -1.
          1    1    1    2  501    0 -0.91677268630E+02  0.25465643310E+02  0.25624957724E+03  0.27334422695E+03  0.00000000000E+00 0. -1.
<scales pt_clust_5="13000.00000" pt_clust_6="13000.00000" pt_clust_7="13000.00000" pt_clust_8="13000.00000" pt_clust_9="25.92656" pt_clust_10="13000.00000"></scales>
<clustering>
<clus scale="   25.927">  2  9  1 -1</clus>
<clus scale="   79.992">  5  6 -1 -1</clus>
<clus scale="   95.226">  1  5  2 -1</clus>
<clus scale="  102.010">  7  8 -1 -1</clus>
<clus scale="   68.790">  7 10 -1 -1</clus>
<clus scale="   25.927">  2  5  1 -1</clus>
</clustering>
</event>
<event>
10    4  0.2866397E-005  0.3667733E+03  0.7546771E-02  0.1063738E+00
          2   -1    0    0  503    0 -0.00000000000E+00  0.00000000000E+00  0.13808194211E+04  0.13808194211E+04  0.00000000000E+00 0. -1.
         21   -1    0    0  501  502  0.00000000000E+00 -0.00000000000E+00 -0.15008747753E+03  0.15008747753E+03  0.00000000000E+00 0.  1.
         24    2    1    2    0    0  0.89813517694E+01 -0.26180247420E+03  0.45679461700E+02  0.27743763700E+03  0.79144355633E+02 0.  0.
         23    2    1    2    0    0 -0.74576327305E+02  0.20245099138E+03  0.94957433825E+03  0.97815363472E+03  0.92439584351E+02 0.  0.
        -11    1    3    3    0    0 -0.35908877914E+01 -0.23471585699E+03  0.15925938501E+02  0.23528294353E+03  0.00000000000E+00 0.  1.
         12    1    3    3    0    0  0.12572239561E+02 -0.27086617211E+02  0.29753523198E+02  0.42154693478E+02  0.00000000000E+00 0. -1.
        -11    1    4    4    0    0  0.17457064055E+02  0.78030332680E+02  0.32353247369E+03  0.33326677517E+03  0.00000000000E+00 0.  1.
         11    1    4    4    0    0 -0.92033391361E+02  0.12442065870E+03  0.62604186456E+03  0.64488685955E+03  0.00000000000E+00 0. -1.
         21    1    1    2  503  502 -0.67322798952E+01 -0.27726765215E+02  0.35756809716E+02  0.45745453795E+02  0.00000000000E+00 0.  1.
          1    1    1    2  501    0  0.72327255431E+02  0.87078248038E+02  0.19972133388E+03  0.22957017307E+03  0.00000000000E+00 0. -1.
<scales pt_clust_5="13000.00000" pt_clust_6="13000.00000" pt_clust_7="13000.00000" pt_clust_8="13000.00000" pt_clust_9="28.53239" pt_clust_10="13000.00000"></scales>
<clustering>
<clus scale="   28.532">  2  9  1 -1</clus>
<clus scale="   79.144">  5  6 -1 -1</clus>
<clus scale="   92.440">  7  8 -1 -1</clus>
<clus scale="  110.569">  7 10 -1 -1</clus>
<clus scale="  294.792">  1  5  2 -1</clus>
<clus scale="   28.532">  2  5  1 -1</clus>
</clustering>
</event>
<event>
10    4  0.2866397E-005  0.5020988E+03  0.7546771E-02  0.1067901E+00
         21   -1    0    0  503  502  0.00000000000E+00  0.00000000000E+00  0.22390336706E+03  0.22390336706E+03  0.00000000000E+00 0. -1.
          2   -1    0    0  502    0 -0.00000000000E+00 -0.00000000000E+00 -0.59785883338E+03  0.59785883338E+03  0.00000000000E+00 0. -1.
         24    2    1    2    0    0  0.74453488458E+00  0.58096912901E+02 -0.71864673010E+02  0.12261413075E+03  0.80584664871E+02 0.  0.
         23    2    1    2    0    0 -0.16359768044E+03 -0.15483407437E+03 -0.32233348937E+03  0.40339764507E+03  0.89961047379E+02 0.  0.
        -13    1    3    3    0    0  0.38172782582E+02  0.17878103045E+02 -0.18534290645E+02  0.46046800413E+02  0.00000000000E+00 0.  1.
         14    1    3    3    0    0 -0.37428247698E+02  0.40218809856E+02 -0.53330382365E+02  0.76567330339E+02  0.00000000000E+00 0. -1.
        -11    1    4    4    0    0 -0.35202591408E+02 -0.37253781172E+02 -0.14964749140E+03  0.15818166245E+03  0.00000000000E+00 0.  1.
         11    1    4    4    0    0 -0.12839508903E+03 -0.11758029320E+03 -0.17268599797E+03  0.24521598262E+03  0.00000000000E+00 0. -1.
         21    1    1    2  503  501 -0.41812048587E+02  0.29598915960E+02  0.57658757622E+02  0.77128954119E+02  0.00000000000E+00 0. -1.
          1    1    1    2  501    0  0.20466519414E+03  0.67138245513E+02 -0.37416061560E+02  0.21862147051E+03  0.00000000000E+00 0. -1.
<scales pt_clust_5="13000.00000" pt_clust_6="13000.00000" pt_clust_7="13000.00000" pt_clust_8="13000.00000" pt_clust_9="51.22834" pt_clust_10="13000.00000"></scales>
<clustering>
<clus scale="   51.228">  1  9  2 -1</clus>
<clus scale="   80.585">  5  6 -1 -1</clus>
<clus scale="   89.961">  7  8 -1 -1</clus>
<clus scale="  102.402">  2  5  1 -1</clus>
<clus scale="  204.734">  7 10 -1 -1</clus>
<clus scale="   51.228">  1  5  2 -1</clus>
</clustering>
</event>
<event>
10    4  0.2866397E-005  0.2759860E+03  0.7546771E-02  0.1145754E+00
          2   -1    0    0  502    0 -0.00000000000E+00  0.00000000000E+00  0.67521246650E+03  0.67521246650E+03  0.00000000000E+00 0. -1.
         21   -1    0    0  503  502  0.00000000000E+00 -0.00000000000E+00 -0.20555755247E+03  0.20555755247E+03  0.00000000000E+00 0. -1.
         24    2    1    2    0    0  0.22225446276E+02  0.96352298285E+01  0.33348074845E+03  0.34389286051E+03  0.80411950635E+02 0.  0.
         23    2    1    2    0    0  0.82041381985E+01  0.88759782614E+02  0.92384647235E+02  0.15673894971E+03  0.89925349148E+02 0.  0.
        -11    1    3    3    0    0  0.11605602900E+02 -0.32225344834E+02  0.84219190036E+02  0.90917736656E+02  0.00000000000E+00 0.  1.
         12    1    3    3    0    0  0.10619843376E+02  0.41860574663E+02  0.24926155842E+03  0.25297512385E+03  0.00000000000E+00 0. -1.
        -13    1    4    4    0    0 -0.32384382258E+02  0.14814185991E+02  0.62068474208E+01  0.36148765894E+02  0.00000000000E+00 0. -1.
         13    1    4    4    0    0  0.40588520456E+02  0.73945596624E+02  0.86177799815E+02  0.12059018382E+03  0.00000000000E+00 0.  1.
         21    1    1    2  503  501 -0.47396456152E+02  0.54661865103E+02 -0.12948286028E+03  0.14832449109E+03  0.00000000000E+00 0. -1.
          1    1    1    2  501    0  0.16966871677E+02 -0.15305687755E+03  0.17327237862E+03  0.23181371765E+03  0.00000000000E+00 0. -1.
<scales pt_clust_5="13000.00000" pt_clust_6="13000.00000" pt_clust_7="13000.00000" pt_clust_8="13000.00000" pt_clust_9="72.34876" pt_clust_10="13000.00000"></scales>
<clustering>
<clus scale="   72.349">  2  9  1 -1</clus>
<clus scale="   80.412">  5  6 -1 -1</clus>
<clus scale="   83.681">  1  5  2 -1</clus>
<clus scale="   89.925">  7  8 -1 -1</clus>
<clus scale="  122.776">  7 10 -1 -1</clus>
<clus scale="   72.349">  2  5  1 -1</clus>
</clustering>
</event>
<event>
10    4  0.2866397E-005  0.1574997E+03  0.7546771E-02  0.1209518E+00
         21   -1    0    0  501  502  0.00000000000E+00  0.00000000000E+00  0.89719258553E+02  0.89719258553E+02  0.00000000000E+00 0. -1.
          2   -1    0    0  503    0 -0.00000000000E+00 -0.00000000000E+00 -0.75765725232E+03  0.75765725232E+03  0.00000000000E+00 0. -1.
         24    2    1    2    0    0  0.63194452906E+02  0.18445448102E+02 -0.83899306761E+02  0.13436765518E+03  0.81742275774E+02 0.  0.
         23    2    1    2    0    0 -0.13482165823E+02 -0.50262680472E+02 -0.34468775838E+03  0.36027462021E+03  0.90994754488E+02 0.  0.
        -11    1    3    3    0    0  0.28520619140E+02 -0.63428812192E+01 -0.86859439788E+02  0.91641803445E+02  0.00000000000E+00 0.  1.
         12    1    3    3    0    0  0.34673833767E+02  0.24788329321E+02  0.29601330271E+01  0.42725851731E+02  0.00000000000E+00 0. -1.
        -11    1    4    4    0    0  0.30653584843E+02 -0.35142576827E+02 -0.25447170501E+03  0.25870928012E+03  0.00000000000E+00 0.  1.
         11    1    4    4    0    0 -0.44135750666E+02 -0.15120103645E+02 -0.90216053368E+02  0.10156534008E+03  0.00000000000E+00 0. -1.
         21    1    1    2  503  502 -0.41222950968E+01  0.19630038059E+02  0.52963821858E+02  0.56634778510E+02  0.00000000000E+00 0. -1.
          1    1    1    2  501    0 -0.45589991987E+02  0.12187194311E+02 -0.29231475048E+03  0.29609945698E+03  0.00000000000E+00 0. -1.
<scales pt_clust_5="13000.00000" pt_clust_6="13000.00000" pt_clust_7="13000.00000" pt_clust_8="13000.00000" pt_clust_9="20.05821" pt_clust_10="13000.00000"></scales>
<clustering>
<clus scale="   20.058">  1  9  2 -1</clus>
<clus scale="   81.742">  5  6 -1 -1</clus>
<clus scale="   90.995">  7  8 -1 -1</clus>
<clus scale="   47.691">  7 10 -1 -1</clus>
<clus scale="  106.642">  2  5  1 -1</clus>
<clus scale="   20.058">  1  5  2 -1</clus>
</clustering>
</event>
<event>
10    4  0.2866397E-005  0.2321241E+03  0.7546771E-02  0.1131669E+00
         21   -1    0    0  501  502  0.00000000000E+00  0.00000000000E+00  0.94860505376E+02  0.94860505376E+02  0.00000000000E+00 0. -1.
          2   -1    0    0  503    0 -0.00000000000E+00 -0.00000000000E+00 -0.78125105227E+03  0.78125105227E+03  0.00000000000E+00 0. -1.
         24    2    1    2    0    0 -0.15912599389E+03 -0.22153217846E+02 -0.88539487830E+02  0.20081483227E+03  0.81703787929E+02 0.  0.
         23    2    1    2    0    0  0.12751240121E+03  0.44717551028E+02 -0.31106757139E+03  0.35081127869E+03  0.89701992460E+02 0.  0.
        -13    1    3    3    0    0 -0.14015302186E+02 -0.28910354450E+02 -0.30848422621E+01  0.32276207050E+02  0.00000000000E+00 0.  1.
         14    1    3    3    0    0 -0.14511069170E+03  0.67571366039E+01 -0.85454645568E+02  0.16853862522E+03  0.00000000000E+00 0. -1.
        -13    1    4    4    0    0  0.63038986705E+01  0.36275877585E+02 -0.10874012441E+03  0.11480458653E+03  0.00000000000E+00 0. -1.
         13    1    4    4    0    0  0.12120850254E+03  0.84416734433E+01 -0.20232744698E+03  0.23600669216E+03  0.00000000000E+00 0.  1.
         21    1    1    2  503  502 -0.25620004272E+02 -0.12353825151E+02  0.32997806321E+01  0.28633724295E+02  0.00000000000E+00 0. -1.
          1    1    1    2  501    0  0.57233596945E+02 -0.10210508032E+02 -0.29008326831E+03  0.29585172240E+03  0.00000000000E+00 0. -1.
<scales pt_clust_5="13000.00000" pt_clust_6="13000.00000" pt_clust_7="13000.00000" pt_clust_8="13000.00000" pt_clust_9="28.44295" pt_clust_10="13000.00000"></scales>
<clustering>
<clus scale="   28.443">  1  9  2 -1</clus>
<clus scale="   81.704">  5  6 -1 -1</clus>
<clus scale="   89.702">  7  8 -1 -1</clus>
<clus scale="   57.298">  7 10 -1 -1</clus>
<clus scale="  197.708">  2  5  1 -1</clus>
<clus scale="   28.443">  1  5  2 -1</clus>
</clustering>
</event>
<event>
10    4  0.2866397E-005  0.1517359E+03  0.7546771E-02  0.1228372E+00
          2   -1    0    0  503    0 -0.00000000000E+00  0.00000000000E+00  0.35049243179E+03  0.35049243179E+03  0.00000000000E+00 0. -1.
         21   -1    0    0  501  502  0.00000000000E+00 -0.00000000000E+00 -0.10051453039E+03  0.10051453039E+03  0.00000000000E+00 0. -1.
         24    2    1    2    0    0  0.39430917936E+02 -0.26064476561E+02  0.21650037030E+03  0.23032707199E+03  0.62801238218E+02 0.  0.
         23    2    1    2    0    0 -0.63197131643E+02 -0.54040916224E+01  0.40275929383E+02  0.11721464304E+03  0.89966885032E+02 0.  0.
        -13    1    3    3    0    0  0.46483095933E+02  0.45282854136E+01  0.11643901162E+03  0.12545607599E+03  0.00000000000E+00 0.  1.
         14    1    3    3    0    0 -0.70521779967E+01 -0.30592761974E+02  0.10006135869E+03  0.10487099600E+03  0.00000000000E+00 0. -1.
        -11    1    4    4    0    0 -0.85577519610E+02 -0.12010172558E+02  0.35341197344E+02  0.93363570718E+02  0.00000000000E+00 0. -1.
         11    1    4    4    0    0  0.22380387967E+02  0.66060809358E+01  0.49347320385E+01  0.23851072327E+02  0.00000000000E+00 0.  1.
         21    1    1    2  503  502  0.16091384623E+02 -0.15790554713E+02 -0.39502689253E+02  0.45483367679E+02  0.00000000000E+00 0. -1.
          1    1    1    2  501    0  0.76748290834E+01  0.47259122896E+02  0.32704290967E+02  0.57981879463E+02  0.00000000000E+00 0. -1.
<scales pt_clust_5="13000.00000" pt_clust_6="13000.00000" pt_clust_7="13000.00000" pt_clust_8="13000.00000" pt_clust_9="22.54494" pt_clust_10="13000.00000"></scales>
<clustering>
<clus scale="   22.545">  2  9  1 -1</clus>
<clus scale="   62.801">  5  6 -1 -1</clus>
<clus scale="   80.216">  1  5  2 -1</clus>
<clus scale="   89.967">  7  8 -1 -1</clus>
<clus scale="   42.636">  7 10 -1 -1</clus>
<clus scale="   22.545">  2  5  1 -1</clus>
</clustering>
</event>
<event>
10    4  0.2866397E-005  0.3618372E+03  0.7546771E-02  0.1112477E+00
         21   -1    0    0  501  502  0.00000000000E+00  0.00000000000E+00  0.11428172220E+03  0.11428172220E+03  0.00000000000E+00 0. -1.
          2   -1    0    0  503    0 -0.00000000000E+00 -0.00000000000E+00 -0.61527705911E+03  0.61527705911E+03  0.00000000000E+00 0. -1.
         24    2    1    2    0    0  0.42367236736E+02 -0.94178714430E+01 -0.68578752075E+01  0.90966101865E+02  0.79649998022E+02 0.  0.
         23    2    1    2    0    0 -0.15263691969E+03 -0.69983478220E+02 -0.22438208507E+03  0.29474812038E+03  0.91287556054E+02 0.  0.
        -11    1    3    3    0    0 -0.49379042957E+01 -0.34051569336E+02 -0.14016415336E+02  0.37153091015E+02  0.00000000000E+00 0.  1.
         12    1    3    3    0    0  0.47305141032E+02  0.24633697893E+02  0.71585401282E+01  0.53813010850E+02  0.00000000000E+00 0. -1.
        -13    1    4    4    0    0 -0.49193622530E+02  0.20000828992E+02 -0.50166091847E+02  0.73052600428E+02  0.00000000000E+00 0.  1.
         13    1    4    4    0    0 -0.10344329716E+03 -0.89984307213E+02 -0.17421599322E+03  0.22169551995E+03  0.00000000000E+00 0. -1.
         21    1    1    2  503  502 -0.40161005935E+02  0.32450315536E+01 -0.27866121878E+02  0.48989359824E+02  0.00000000000E+00 0.  1.
          1    1    1    2  501    0  0.15043068889E+03  0.76156318110E+02 -0.24188925475E+03  0.29485519923E+03  0.00000000000E+00 0. -1.
<scales pt_clust_5="13000.00000" pt_clust_6="13000.00000" pt_clust_7="13000.00000" pt_clust_8="13000.00000" pt_clust_9="40.29189" pt_clust_10="13000.00000"></scales>
<clustering>
<clus scale="   40.292">  1  9  2 -1</clus>
<clus scale="   79.650">  5  6 -1 -1</clus>
<clus scale="   84.203">  2  5  1 -1</clus>
<clus scale="   91.288">  7  8 -1 -1</clus>
<clus scale="  168.809">  7 10 -1 -1</clus>
<clus scale="   40.292">  1  5  2 -1</clus>
</clustering>
</event>
<event>
10    4  0.2866397E-005  0.9735411E+03  0.7546771E-02  0.9970439E-01
         -1   -1    0    0    0  501 -0.00000000000E+00  0.00000000000E+00  0.75047462960E+03  0.75047462960E+03  0.00000000000E+00 0.  1.
         21   -1    0    0  501  502  0.00000000000E+00 -0.00000000000E+00 -0.57378975817E+03  0.57378975817E+03  0.00000000000E+00 0.  1.
         24    2    1    2    0    0 -0.40341548754E+02  0.71557961027E+02  0.29000957837E+03  0.31172922467E+03  0.79508311660E+02 0.  0.
         23    2    1    2    0    0 -0.21227237624E+03  0.38886046913E+03  0.24945912170E+02  0.45295396887E+03  0.90955886097E+02 0.  0.
        -11    1    3    3    0    0 -0.60817631798E+02  0.71468571905E+02  0.23888159362E+03  0.25665337886E+03  0.00000000000E+00 0.  1.
         12    1    3    3    0    0  0.20476083044E+02  0.89389121899E-01  0.51127984749E+02  0.55075845811E+02  0.00000000000E+00 0. -1.
        -13    1    4    4    0    0 -0.14890877951E+03  0.28725982660E+03 -0.22072594191E+02  0.32431347799E+03  0.00000000000E+00 0.  1.
         13    1    4    4    0    0 -0.63363596724E+02  0.10160064253E+03  0.47018506362E+02  0.12864049088E+03  0.00000000000E+00 0. -1.
         21    1    1    2  503  502 -0.94896900638E+01 -0.20940379872E+02 -0.27827110137E+02  0.36095730846E+02  0.00000000000E+00 0. -1.
         -2    1    1    2    0  503  0.26210361506E+03 -0.43947805028E+03 -0.11044350897E+03  0.52348546339E+03  0.00000000000E+00 0.  1.
<scales pt_clust_5="13000.00000" pt_clust_6="13000.00000" pt_clust_7="13000.00000" pt_clust_8="13000.00000" pt_clust_9="22.99030" pt_clust_10="13000.00000"></scales>
<clustering>
<clus scale="   22.990">  2  9  1 -1</clus>
<clus scale="   79.508">  5  6 -1 -1</clus>
<clus scale="   90.956">  7  8 -1 -1</clus>
<clus scale="  114.127">  1  5  2 -1</clus>
<clus scale="  480.414">  7 10 -1 -1</clus>
<clus scale="   22.990">  2  5  1 -1</clus>
</clustering>
</event>
<event>
10    4  0.2866397E-005  0.2677669E+03  0.7546771E-02  0.1150892E+00
          2   -1    0    0  503    0 -0.00000000000E+00  0.00000000000E+00  0.60926983138E+03  0.60926983138E+03  0.00000000000E+00 0. -1.
         21   -1    0    0  501  502  0.00000000000E+00 -0.00000000000E+00 -0.14402839030E+03  0.14402839030E+03  0.00000000000E+00 0.  1.
         24    2    1    2    0    0 -0.13401254829E+02  0.33663855885E+01  0.10143664984E+03  0.13045023411E+03  0.80851366511E+02 0.  0.
         23    2    1    2    0    0  0.86001961436E+02  0.16325263521E+02  0.38928153871E+03  0.40803498367E+03  0.85379036778E+02 0.  0.
        -11    1    3    3    0    0  0.26000537769E+01 -0.26167901821E+02  0.30326028844E+01  0.26471041642E+02  0.00000000000E+00 0.  1.
         12    1    3    3    0    0 -0.16001308606E+02  0.29534287410E+02  0.98404046954E+02  0.10397919247E+03  0.00000000000E+00 0. -1.
        -13    1    4    4    0    0  0.43279110997E+02  0.39723424027E+02  0.30571588456E+03  0.31130890437E+03  0.00000000000E+00 0. -1.
         13    1    4    4    0    0  0.42722850439E+02 -0.23398160506E+02  0.83565654148E+02  0.96726079306E+02  0.00000000000E+00 0.  1.
         21    1    1    2  503  502  0.27539956499E+02 -0.21823064582E+02 -0.89354074066E+02  0.96014821272E+02  0.00000000000E+00 0.  1.
          1    1    1    2  501    0 -0.10014066311E+03  0.21314154722E+01  0.63877326598E+02  0.11879818261E+03  0.00000000000E+00 0. -1.
<scales pt_clust_5="13000.00000" pt_clust_6="13000.00000" pt_clust_7="13000.00000" pt_clust_8="13000.00000" pt_clust_9="35.13823" pt_clust_10="13000.00000"></scales>
<clustering>
<clus scale="   35.138">  2  9  1 -1</clus>
<clus scale="   80.851">  5  6 -1 -1</clus>
<clus scale="   81.095">  1  5  2 -1</clus>
<clus scale="   85.379">  7  8 -1 -1</clus>
<clus scale="   86.808">  7 10 -1 -1</clus>
<clus scale="   35.138">  2  5  1 -1</clus>
</clustering>
</event>
<event>
10    4  0.2866397E-005  0.1246458E+03  0.7546771E-02  0.1253097E+00
         21   -1    0    0  503  502  0.00000000000E+00  0.00000000000E+00  0.36163909503E+03  0.36163909503E+03  0.00000000000E+00 0.  1.
         -1   -1    0    0    0  501 -0.00000000000E+00 -0.00000000000E+00 -0.19178252013E+03  0.19178252013E+03  0.00000000000E+00 0.  1.
         24    2    1    2    0    0 -0.56948899028E+02 -0.84939103773E+02  0.20377643349E+03  0.24117796592E+03  0.78639353695E+02 0.  0.
         23    2    1    2    0    0  0.17395246909E+02  0.84657210769E+01 -0.12505068426E+03  0.15122492083E+03  0.82807246062E+02 0.  0.
        -13    1    3    3    0    0 -0.71740961472E+01 -0.76826836227E+02  0.14017023389E+03  0.16000476521E+03  0.00000000000E+00 0.  1.
         14    1    3    3    0    0 -0.49774802881E+02 -0.81122675461E+01  0.63606199600E+02  0.81173200714E+02  0.00000000000E+00 0. -1.
        -13    1    4    4    0    0 -0.31976134080E+02 -0.47504017468E+01 -0.34735448516E+02  0.47450930982E+02  0.00000000000E+00 0.  1.
         13    1    4    4    0    0  0.49371380989E+02  0.13216122824E+02 -0.90315235740E+02  0.10377398985E+03  0.00000000000E+00 0. -1.
         21    1    1    2  503  501  0.20368520438E+02  0.94776268654E+02  0.93131447979E+02  0.13442798938E+03  0.00000000000E+00 0.  1.
         -2    1    1    2    0  502  0.19185131681E+02 -0.18302885957E+02 -0.20006223156E+01  0.26590739020E+02  0.00000000000E+00 0.  1.
<scales pt_clust_5="13000.00000" pt_clust_6="13000.00000" pt_clust_7="13000.00000" pt_clust_8="13000.00000" pt_clust_9="96.94028" pt_clust_10="13000.00000"></scales>
<clustering>
<clus scale="   78.639">  5  6 -1 -1</clus>
<clus scale="   82.807">  7  8 -1 -1</clus>
<clus scale="   26.515">  7 10 -1 -1</clus>
<clus scale="   96.940">  1  9  2 -1</clus>
<clus scale="   87.631">  2  5  1 -1</clus>
<clus scale="   96.940">  1  5  2 -1</clus>
</clustering>
</event>
<event>
10    4  0.2866397E-005  0.5827641E+03  0.7546771E-02  0.1030606E+00
          2   -1    0    0  502    0 -0.00000000000E+00  0.00000000000E+00  0.14628688015E+04  0.14628688015E+04  0.00000000000E+00 0. -1.
         21   -1    0    0  503  502  0.00000000000E+00 -0.00000000000E+00 -0.12716488034E+03  0.12716488034E+03  0.00000000000E+00 0. -1.
         24    2    1    2    0    0  0.71744142257E+01 -0.16538048492E+03  0.24235310847E+03  0.30406339067E+03  0.79481691914E+02 0.  0.
         23    2    1    2    0    0  0.10472105871E+03 -0.16839710905E+03  0.32658657724E+03  0.39181779359E+03  0.86823409689E+02 0.  0.
        -13    1    3    3    0    0 -0.27291387854E+02 -0.13485411573E+03  0.18164138028E+03  0.22786847831E+03  0.00000000000E+00 0.  1.
         14    1    3    3    0    0  0.34465802080E+02 -0.30526369191E+02  0.60711728189E+02  0.76194912355E+02  0.00000000000E+00 0. -1.
        -11    1    4    4    0    0  0.35604288843E+02 -0.12981821641E+03  0.17472941356E+03  0.22056926953E+03  0.00000000000E+00 0. -1.
         11    1    4    4    0    0  0.69116769871E+02 -0.38578892634E+02  0.15185716368E+03  0.17124852407E+03  0.00000000000E+00 0.  1.
         21    1    1    2  503  501 -0.35267595146E+02 -0.25035830093E+02 -0.95800689950E+00  0.43260996672E+02  0.00000000000E+00 0. -1.
          1    1    1    2  501    0 -0.76627877795E+02  0.35881342405E+03  0.76772224237E+03  0.85089150094E+03  0.00000000000E+00 0. -1.
<scales pt_clust_5="13000.00000" pt_clust_6="13000.00000" pt_clust_7="13000.00000" pt_clust_8="13000.00000" pt_clust_9="43.25039" pt_clust_10="13000.00000"></scales>
<clustering>
<clus scale="   43.250">  2  9  1 -1</clus>
<clus scale="   79.482">  5  6 -1 -1</clus>
<clus scale="   86.823">  7  8 -1 -1</clus>
<clus scale="  190.169">  1  5  2 -1</clus>
<clus scale="  249.784">  7 10 -1 -1</clus>
<clus scale="   43.250">  2  5  1 -1</clus>
</clustering>
</event>
<event>
10    4  0.2866397E-005  0.5387881E+03  0.7546771E-02  0.1045632E+00
         21   -1    0    0  501  502  0.00000000000E+00  0.00000000000E+00  0.34862376111E+03  0.34862376111E+03  0.00000000000E+00 0. -1.
          2   -1    0    0  503    0 -0.00000000000E+00 -0.00000000000E+00 -0.44984684712E+03  0.44984684712E+03  0.00000000000E+00 0. -1.
         24    2    1    2    0    0  0.90486801021E+02 -0.94745093297E+02 -0.51835632832E+02  0.16547566292E+03  0.86779999569E+02 0.  0.
         23    2    1    2    0    0 -0.85966270708E+02 -0.20543949665E+03  0.20525599143E+02  0.24157891878E+03  0.91342691520E+02 0.  0.
        -11    1    3    3    0    0 -0.17040341381E+02 -0.15496066887E+02 -0.12614508698E+02  0.26260753094E+02  0.00000000000E+00 0.  1.
         12    1    3    3    0    0  0.10752714240E+03 -0.79249026409E+02 -0.39221124134E+02  0.13921490983E+03  0.00000000000E+00 0. -1.
        -13    1    4    4    0    0 -0.90850884156E+02 -0.17972420088E+03 -0.96745073607E+01  0.20161415533E+03  0.00000000000E+00 0. -1.
         13    1    4    4    0    0  0.48846134478E+01 -0.25715295766E+02  0.30200106503E+02  0.39964763451E+02  0.00000000000E+00 0.  1.
         21    1    1    2  503  502  0.10994753755E+02  0.26966322873E+02  0.75928319847E+02  0.81321442032E+02  0.00000000000E+00 0. -1.
          1    1    1    2  501    0 -0.15515284068E+02  0.27321826707E+03 -0.14584137217E+03  0.31009458450E+03  0.00000000000E+00 0. -1.
<scales pt_clust_5="13000.00000" pt_clust_6="13000.00000" pt_clust_7="13000.00000" pt_clust_8="13000.00000" pt_clust_9="29.12159" pt_clust_10="13000.00000"></scales>
<clustering>
<clus scale="   29.122">  1  9  2 -1</clus>
<clus scale="   86.780">  5  6 -1 -1</clus>
<clus scale="   91.343">  7  8 -1 -1</clus>
<clus scale="  155.165">  2  5  1 -1</clus>
<clus scale="  224.948">  7 10 -1 -1</clus>
<clus scale="   29.122">  1  5  2 -1</clus>
</clustering>
</event>
<event>
10    4  0.2866397E-005  0.5274392E+03  0.7546771E-02  0.1023051E+00
          2   -1    0    0  503    0 -0.00000000000E+00  0.00000000000E+00  0.10402235810E+04  0.10402235810E+04  0.00000000000E+00 0. -1.
         21   -1    0    0  501  502  0.00000000000E+00 -0.00000000000E+00 -0.30467407208E+03  0.30467407208E+03  0.00000000000E+00 0. -1.
         24    2    1    2    0    0 -0.68251985081E+02  0.37409139811E+03  0.41092935029E+03  0.56913199825E+03  0.10220368339E+03 0.  0.
         23    2    1    2    0    0  0.11166095761E+03  0.10425974824E+03  0.15078531781E+03  0.23443852043E+03  0.94270585218E+02 0.  0.
        -11    1    3    3    0    0  0.21697467716E+02  0.32505391192E+02  0.56851948801E+02  0.68989308188E+02  0.00000000000E+00 0.  1.
         12    1    3    3    0    0 -0.89949452797E+02  0.34158600692E+03  0.35407740149E+03  0.50014269007E+03  0.00000000000E+00 0. -1.
        -11    1    4    4    0    0  0.24592172613E+01  0.62432632455E+02  0.56159860078E+02  0.84010780432E+02  0.00000000000E+00 0.  1.
         11    1    4    4    0    0  0.10920174035E+03  0.41827115786E+02  0.94625457729E+02  0.15042774000E+03  0.00000000000E+00 0. -1.
         21    1    1    2  503  502  0.76596212124E+01 -0.19235285451E+03 -0.17749720601E+02  0.19332186378E+03  0.00000000000E+00 0.  1.
          1    1    1    2  501    0 -0.51068593744E+02 -0.28599829184E+03  0.19158456144E+03  0.34800527063E+03  0.00000000000E+00 0. -1.
<scales pt_clust_5="13000.00000" pt_clust_6="13000.00000" pt_clust_7="13000.00000" pt_clust_8="13000.00000" pt_clust_9="192.50530" pt_clust_10="13000.00000"></scales>
<clustering>
<clus scale="   94.271">  7  8 -1 -1</clus>
<clus scale="  102.204">  5  6 -1 -1</clus>
<clus scale="  192.505">  2  9  1 -1</clus>
<clus scale="  321.426">  1  5  2 -1</clus>
<clus scale="  181.446">  7 10 -1 -1</clus>
<clus scale="  192.505">  2  5  1 -1</clus>
</clustering>
</event>
<event>
10    4  0.2866397E-005  0.7131479E+03  0.7546771E-02  0.1033733E+00
          2   -1    0    0  503    0 -0.00000000000E+00  0.00000000000E+00  0.95105564048E+03  0.95105564048E+03  0.00000000000E+00 0. -1.
         21   -1    0    0  501  502  0.00000000000E+00 -0.00000000000E+00 -0.23693405133E+03  0.23693405133E+03  0.00000000000E+00 0. -1.
         24    2    1    2    0    0 -0.49593333712E+02  0.25341642733E+02  0.14450168657E+03  0.17404079483E+03  0.79421428081E+02 0.  0.
         23    2    1    2    0    0 -0.33076718370E+03  0.11492599522E+03  0.32085804577E+03  0.48375280267E+03  0.91934620079E+02 0.  0.
        -13    1    3    3    0    0 -0.66111709912E+02  0.97936556985E+01  0.13244259138E+03  0.14834997098E+03  0.00000000000E+00 0.  1.
         14    1    3    3    0    0  0.16518376200E+02  0.15547987034E+02  0.12059095189E+02  0.25690823845E+02  0.00000000000E+00 0. -1.
        -13    1    4    4    0    0 -0.30249712479E+03  0.12609499638E+03  0.27053979962E+03  0.42496616547E+03  0.00000000000E+00 0. -1.
         13    1    4    4    0    0 -0.28270058903E+02 -0.11169001159E+02  0.50318246148E+02  0.58786637195E+02  0.00000000000E+00 0.  1.
         21    1    1    2  503  502  0.63443427579E+02  0.82987826511E+01 -0.40841024923E+02  0.75907362049E+02  0.00000000000E+00 0. -1.
          1    1    1    2  501    0  0.31691708983E+03 -0.14856642060E+03  0.28960288173E+03  0.45428873227E+03  0.00000000000E+00 0. -1.
<scales pt_clust_5="13000.00000" pt_clust_6="13000.00000" pt_clust_7="13000.00000" pt_clust_8="13000.00000" pt_clust_9="63.98389" pt_clust_10="13000.00000"></scales>
<clustering>
<clus scale="   63.984">  2  9  1 -1</clus>
<clus scale="   79.421">  5  6 -1 -1</clus>
<clus scale="   91.935">  7  8 -1 -1</clus>
<clus scale="   94.614">  1  5  2 -1</clus>
<clus scale="  347.336">  7 10 -1 -1</clus>
<clus scale="   63.984">  2  5  1 -1</clus>
</clustering>
</event>
<event>
10    4  0.2866397E-005  0.2732314E+03  0.7546771E-02  0.1143873E+00
         21   -1    0    0  503  502  0.00000000000E+00  0.00000000000E+00  0.16549871049E+03  0.16549871049E+03  0.00000000000E+00 0. -1.
          2   -1    0    0  502    0 -0.00000000000E+00 -0.00000000000E+00 -0.51856668340E+03  0.51856668340E+03  0.00000000000E+00 0. -1.
         24    2    1    2    0    0 -0.37593041554E+02 -0.14468407796E+02 -0.21031169778E+03  0.22884124789E+03  0.80713907797E+02 0.  0.
         23    2    1    2    0    0  0.38149235023E+02 -0.86873867006E+02 -0.48287763203E+01  0.13197997046E+03  0.91613113801E+02 0.  0.
        -13    1    3    3    0    0 -0.58231902273E+02  0.85408326322E+01 -0.12680684581E+03  0.13979941491E+03  0.00000000000E+00 0.  1.
         14    1    3    3    0    0  0.20638860720E+02 -0.23009240428E+02 -0.83504851969E+02  0.89041832974E+02  0.00000000000E+00 0. -1.
        -11    1    4    4    0    0  0.14212989948E+02 -0.22777571978E+02 -0.45174378056E+02  0.52550464329E+02  0.00000000000E+00 0.  1.
         11    1    4    4    0    0  0.23936245075E+02 -0.64096295029E+02  0.40345601736E+02  0.79429506130E+02  0.00000000000E+00 0. -1.
         21    1    1    2  503  501  0.41420808963E+02  0.94367944318E+02  0.61039225568E+02  0.11977804218E+03  0.00000000000E+00 0. -1.
          1    1    1    2  501    0 -0.41977002432E+02  0.69743304842E+01 -0.19896672437E+03  0.20346613336E+03  0.00000000000E+00 0. -1.
<scales pt_clust_5="13000.00000" pt_clust_6="13000.00000" pt_clust_7="13000.00000" pt_clust_8="13000.00000" pt_clust_9="100.31203" pt_clust_10="13000.00000"></scales>
<clustering>
<clus scale="   80.714">  5  6 -1 -1</clus>
<clus scale="   90.207">  2  5  1 -1</clus>
<clus scale="   91.613">  7  8 -1 -1</clus>
<clus scale="   67.333">  7 10 -1 -1</clus>
<clus scale="  100.312">  1  9  2 -1</clus>
<clus scale="  100.312">  1  5  2 -1</clus>
</clustering>
</event>
<event>
10    4  0.2866397E-005  0.3011302E+03  0.7546771E-02  0.1121509E+00
         21   -1    0    0  503  502  0.00000000000E+00  0.00000000000E+00  0.12912645243E+03  0.12912645243E+03  0.00000000000E+00 0.  1.
          2   -1    0    0  502    0 -0.00000000000E+00 -0.00000000000E+00 -0.13828637984E+04  0.13828637984E+04  0.00000000000E+00 0. -1.
         24    2    1    2    0    0  0.46666199825E+02 -0.70214657112E+02 -0.90028923782E+03  0.90774634206E+03  0.79842829945E+02 0.  0.
         23    2    1    2    0    0 -0.56744082645E+02 -0.10003260971E+03 -0.19337463907E+03  0.24275803902E+03  0.91166334523E+02 0.  0.
        -13    1    3    3    0    0  0.13959738153E+02 -0.73534096988E+02 -0.44313232018E+03  0.44940893505E+03  0.00000000000E+00 0.  1.
         14    1    3    3    0    0  0.32706461672E+02  0.33194398762E+01 -0.45715691764E+03  0.45833740701E+03  0.00000000000E+00 0. -1.
        -13    1    4    4    0    0  0.84715686317E+01 -0.34669175064E+02 -0.11887606138E+03  0.12411783572E+03  0.00000000000E+00 0. -1.
         13    1    4    4    0    0 -0.65215651277E+02 -0.65363434648E+02 -0.74498577695E+02  0.11864020330E+03  0.00000000000E+00 0.  1.
         21    1    1    2  503  501  0.30851468578E+02  0.14371870609E+02  0.72873181618E+02  0.80429250757E+02  0.00000000000E+00 0.  1.
          1    1    1    2  501    0 -0.20773585758E+02  0.15587539622E+03 -0.23294665069E+03  0.28105661899E+03  0.00000000000E+00 0. -1.
<scales pt_clust_5="13000.00000" pt_clust_6="13000.00000" pt_clust_7="13000.00000" pt_clust_8="13000.00000" pt_clust_9="34.03474" pt_clust_10="13000.00000"></scales>
<clustering>
<clus scale="   34.035">  1  9  2 -1</clus>
<clus scale="   79.843">  5  6 -1 -1</clus>
<clus scale="   91.166">  7  8 -1 -1</clus>
<clus scale="  116.403">  2  5  1 -1</clus>
<clus scale="  123.876">  7 10 -1 -1</clus>
<clus scale="   34.035">  1  5  2 -1</clus>
</clustering>
</event>
<event>
10    4  0.2866397E-005  0.3477378E+03  0.7546771E-02  0.1101840E+00
         21   -1    0    0  503  502  0.00000000000E+00  0.00000000000E+00  0.66936786947E+02  0.66936786947E+02  0.00000000000E+00 0.  1.
         -1   -1    0    0    0  501 -0.00000000000E+00 -0.00000000000E+00 -0.12555947679E+04  0.12555947679E+04  0.00000000000E+00 0.  1.
         24    2    1    2    0    0 -0.44983429963E+02  0.90098477057E+02 -0.51719871559E+03  0.53292945521E+03  0.79862683939E+02 0.  0.
         23    2    1    2    0    0 -0.71028022243E+01  0.10900021407E+03 -0.44917545285E+03  0.47140730046E+03  0.92383759477E+02 0.  0.
        -13    1    3    3    0    0 -0.48937097823E+02  0.10167867396E+03 -0.41743302174E+03  0.43241614207E+03  0.00000000000E+00 0.  1.
         14    1    3    3    0    0  0.39536678604E+01 -0.11580196905E+02 -0.99765693847E+02  0.10051331314E+03  0.00000000000E+00 0. -1.
        -13    1    4    4    0    0  0.19787416602E+02  0.10969325389E+03 -0.30466639351E+03  0.32441603403E+03  0.00000000000E+00 0.  1.
         13    1    4    4    0    0 -0.26890218826E+02 -0.69303982538E+00 -0.14450905935E+03  0.14699126643E+03  0.00000000000E+00 0. -1.
         21    1    1    2  503  501  0.10388840973E+02 -0.30053476710E+02  0.46786312854E+01  0.32140769590E+02  0.00000000000E+00 0. -1.
         -2    1    1    2    0  502  0.41697391214E+02 -0.16904521441E+03 -0.22696244381E+03  0.28605402960E+03  0.00000000000E+00 0.  1.
<scales pt_clust_5="13000.00000" pt_clust_6="13000.00000" pt_clust_7="13000.00000" pt_clust_8="13000.00000" pt_clust_9="31.79842" pt_clust_10="13000.00000"></scales>
<clustering>
<clus scale="   31.798">  1  9  2 -1</clus>
<clus scale="   79.863">  5  6 -1 -1</clus>
<clus scale="   92.384">  7  8 -1 -1</clus>
<clus scale="  124.566">  2  5  1 -1</clus>
<clus scale="  153.796">  7 10 -1 -1</clus>
<clus scale="   31.798">  1  5  2 -1</clus>
</clustering>
</event>
<event>
10    4  0.2866397E-005  0.4008292E+03  0.7546771E-02  0.1056225E+00
         21   -1    0    0  503  502  0.00000000000E+00  0.00000000000E+00  0.21145481176E+03  0.21145481176E+03  0.00000000000E+00 0.  1.
          2   -1    0    0  502    0 -0.00000000000E+00 -0.00000000000E+00 -0.10526242177E+04  0.10526242177E+04  0.00000000000E+00 0. -1.
         24    2    1    2    0    0 -0.23398538247E+03 -0.18487421895E+03 -0.16192753844E+02  0.30935591726E+03  0.80692268681E+02 0.  0.
         23    2    1    2    0    0  0.13049532048E+03 -0.57113950577E+02 -0.49942969139E+03  0.52850808297E+03  0.97978288942E+02 0.  0.
        -11    1    3    3    0    0 -0.17093680879E+03 -0.89891881534E+02  0.59432913390E+01  0.19322335697E+03  0.00000000000E+00 0.  1.
         12    1    3    3    0    0 -0.63048573675E+02 -0.94982337413E+02 -0.22136045183E+02  0.11613256029E+03  0.00000000000E+00 0. -1.
        -11    1    4    4    0    0  0.73456960007E+02  0.11090123351E+01 -0.12228165114E+03  0.14265327577E+03  0.00000000000E+00 0. -1.
         11    1    4    4    0    0  0.57038360471E+02 -0.58222962913E+02 -0.37714804025E+03  0.38585480720E+03  0.00000000000E+00 0.  1.
         21    1    1    2  503  501  0.62940383405E+01  0.63859746267E+02 -0.38990357422E+02  0.75086151078E+02  0.00000000000E+00 0. -1.
          1    1    1    2  501    0  0.97196023652E+02  0.17812842326E+03 -0.28655660328E+03  0.35112887815E+03  0.00000000000E+00 0. -1.
<scales pt_clust_5="13000.00000" pt_clust_6="13000.00000" pt_clust_7="13000.00000" pt_clust_8="13000.00000" pt_clust_9="64.16917" pt_clust_10="13000.00000"></scales>
<clustering>
<clus scale="   64.169">  1  9  2 -1</clus>
<clus scale="   80.692">  5  6 -1 -1</clus>
<clus scale="   97.978">  7  8 -1 -1</clus>
<clus scale="  212.823">  7 10 -1 -1</clus>
<clus scale="  278.705">  2  5  1 -1</clus>
<clus scale="   64.169">  1  5  2 -1</clus>
</clustering>
</event>
<event>
10    4  0.2866397E-005  0.3382913E+03  0.7546771E-02  0.1077160E+00
         21   -1    0    0  503  502  0.00000000000E+00  0.00000000000E+00  0.19133359392E+03  0.19133359392E+03  0.00000000000E+00 0. -1.
          4   -1    0    0  502    0 -0.00000000000E+00 -0.00000000000E+00 -0.54064354207E+03  0.54064354207E+03  0.00000000000E+00 0. -1.
         24    2    1    2    0    0 -0.20621818073E+03  0.14381504416E+03 -0.16644050042E+03  0.31197569576E+03  0.80110483561E+02 0.  0.
         23    2    1    2    0    0  0.22503494098E+03 -0.12464096436E+03 -0.13094730341E+03  0.30224856022E+03  0.89615295683E+02 0.  0.
        -11    1    3    3    0    0 -0.49704130412E+02  0.44612084684E+02 -0.88677786152E+02  0.11101571257E+03  0.00000000000E+00 0.  1.
         12    1    3    3    0    0 -0.15651405031E+03  0.99202959478E+02 -0.77762714263E+02  0.20095998319E+03  0.00000000000E+00 0. -1.
        -13    1    4    4    0    0 -0.14804141008E+01 -0.24827011764E+02 -0.12565438798E+02  0.27865074757E+02  0.00000000000E+00 0.  1.
         13    1    4    4    0    0  0.22651535508E+03 -0.99813952599E+02 -0.11838186461E+03  0.27438348546E+03  0.00000000000E+00 0. -1.
         21    1    1    2  503  501  0.24351435046E+02  0.17127151186E+02  0.12359099422E+02  0.32234748875E+02  0.00000000000E+00 0.  1.
          3    1    1    2  501    0 -0.43168195305E+02 -0.36301230984E+02 -0.64281243739E+02  0.85518131139E+02  0.00000000000E+00 0. -1.
<scales pt_clust_5="13000.00000" pt_clust_6="13000.00000" pt_clust_7="13000.00000" pt_clust_8="13000.00000" pt_clust_9="29.77132" pt_clust_10="13000.00000"></scales>
<clustering>
<clus scale="   29.771">  1  9  2 -1</clus>
<clus scale="   80.110">  5  6 -1 -1</clus>
<clus scale="   89.615">  7  8 -1 -1</clus>
<clus scale="   54.540">  7 10 -1 -1</clus>
<clus scale="  259.977">  2  5  1 -1</clus>
<clus scale="   29.771">  1  5  2 -1</clus>
</clustering>
</event>
<event>
10    4  0.2866397E-005  0.4613883E+03  0.7546771E-02  0.1069281E+00
          2   -1    0    0  502    0 -0.00000000000E+00  0.00000000000E+00  0.36443378195E+03  0.36443378195E+03  0.00000000000E+00 0. -1.
         21   -1    0    0  503  502  0.00000000000E+00 -0.00000000000E+00 -0.31847303488E+03  0.31847303488E+03  0.00000000000E+00 0. -1.
         24    2    1    2    0    0  0.62081868066E+02 -0.75154132599E+02  0.89378084063E+02  0.15961790088E+03  0.89370746784E+02 0.  0.
         23    2    1    2    0    0 -0.15399165523E+02 -0.18791105591E+03  0.31299449533E+02  0.21169311458E+03  0.91030873802E+02 0.  0.
        -11    1    3    3    0    0 -0.20515084923E+02 -0.32590668756E+02  0.18335038698E+02  0.42652011013E+02  0.00000000000E+00 0.  1.
         12    1    3    3    0    0  0.82596952988E+02 -0.42563463843E+02  0.71043045365E+02  0.11696588987E+03  0.00000000000E+00 0. -1.
        -13    1    4    4    0    0  0.35442050387E+02 -0.58871620412E+02  0.24071364273E+02  0.72810968978E+02  0.00000000000E+00 0.  1.
         13    1    4    4    0    0 -0.50841215910E+02 -0.12903943550E+03  0.72280852596E+01  0.13888214560E+03  0.00000000000E+00 0. -1.
         21    1    1    2  503  501 -0.53947943800E+02  0.33484637171E+02  0.14590060447E+02  0.65149608062E+02  0.00000000000E+00 0.  1.
          1    1    1    2  501    0  0.72652412580E+01  0.22958055134E+03 -0.89306846972E+02  0.24644619332E+03  0.00000000000E+00 0. -1.
<scales pt_clust_5="13000.00000" pt_clust_6="13000.00000" pt_clust_7="13000.00000" pt_clust_8="13000.00000" pt_clust_9="63.49493" pt_clust_10="13000.00000"></scales>
<clustering>
<clus scale="   63.495">  2  9  1 -1</clus>
<clus scale="   89.371">  5  6 -1 -1</clus>
<clus scale="   91.031">  7  8 -1 -1</clus>
<clus scale="  127.051">  1  5  2 -1</clus>
<clus scale="  215.819">  7 10 -1 -1</clus>
<clus scale="   63.495">  2  5  1 -1</clus>
</clustering>
</event>
<event>
10    4  0.2866397E-005  0.2034355E+03  0.7546771E-02  0.1152016E+00
         21   -1    0    0  503  502  0.00000000000E+00  0.00000000000E+00  0.65494733602E+03  0.65494733602E+03  0.00000000000E+00 0. -1.
         -3   -1    0    0    0  501 -0.00000000000E+00 -0.00000000000E+00 -0.87820394671E+02  0.87820394671E+02  0.00000000000E+00 0.  1.
         24    2    1    2    0    0  0.13477882795E+03 -0.56715282863E+02  0.28537088675E+03  0.33047722471E+03  0.79979355290E+02 0.  0.
         23    2    1    2    0    0 -0.12890520344E+03  0.67231338081E+02  0.93389617644E+02  0.19626443609E+03  0.93067200956E+02 0.  0.
        -13    1    3    3    0    0  0.29383198606E+02 -0.27277707549E+02  0.23050042358E+02  0.46246623035E+02  0.00000000000E+00 0.  1.
         14    1    3    3    0    0  0.10539562934E+03 -0.29437575314E+02  0.26232084439E+03  0.28423060167E+03  0.00000000000E+00 0. -1.
        -11    1    4    4    0    0 -0.51535557765E+02  0.70238610244E+02  0.78811216426E+02  0.11747588654E+03  0.00000000000E+00 0. -1.
         11    1    4    4    0    0 -0.77369645676E+02 -0.30072721622E+01  0.14578401218E+02  0.78788549548E+02  0.00000000000E+00 0.  1.
         21    1    1    2  503  501  0.11530938852E+01 -0.49175947655E+02  0.16046273460E+03  0.16783293077E+03  0.00000000000E+00 0. -1.
         -4    1    1    2    0  502 -0.70267183945E+01  0.38659892437E+02  0.27903702356E+02  0.48193139136E+02  0.00000000000E+00 0.  1.
<scales pt_clust_5="13000.00000" pt_clust_6="13000.00000" pt_clust_7="13000.00000" pt_clust_8="13000.00000" pt_clust_9="49.18946" pt_clust_10="13000.00000"></scales>
<clustering>
<clus scale="   49.189">  1  9  2 -1</clus>
<clus scale="   79.979">  5  6 -1 -1</clus>
<clus scale="   93.067">  7  8 -1 -1</clus>
<clus scale="   35.531">  7 10 -1 -1</clus>
<clus scale="  180.071">  2  5  1 -1</clus>
<clus scale="   49.189">  1  5  2 -1</clus>
</clustering>
</event>
<event>
10    4  0.2866397E-005  0.5512374E+03  0.7546771E-02  0.1027689E+00
          2   -1    0    0  503    0 -0.00000000000E+00  0.00000000000E+00  0.25080785671E+04  0.25080785671E+04  0.00000000000E+00 0. -1.
         21   -1    0    0  501  502  0.00000000000E+00 -0.00000000000E+00 -0.14451655570E+03  0.14451655570E+03  0.00000000000E+00 0.  1.
         24    2    1    2    0    0  0.18920911725E+03 -0.11526951613E+03  0.45235150682E+03  0.51003101850E+03  0.80141142465E+02 0.  0.
         23    2    1    2    0    0  0.16219569661E+03  0.19814248528E+03  0.80453450084E+03  0.84931169714E+03  0.92123327068E+02 0.  0.
        -13    1    3    3    0    0  0.13158614483E+03 -0.10966722420E+03  0.28026230263E+03  0.32846426267E+03  0.00000000000E+00 0.  1.
         14    1    3    3    0    0  0.57622972415E+02 -0.56022919235E+01  0.17208920419E+03  0.18156675584E+03  0.00000000000E+00 0. -1.
        -11    1    4    4    0    0  0.12254697334E+02  0.37576844828E+02  0.51700803318E+02  0.65078183270E+02  0.00000000000E+00 0.  1.
         11    1    4    4    0    0  0.14994099928E+03  0.16056564046E+03  0.75283369752E+03  0.78423351387E+03  0.00000000000E+00 0. -1.
         21    1    1    2  503  502 -0.63875399185E+02 -0.11948709951E+03 -0.13522399763E+02  0.13616199494E+03  0.00000000000E+00 0.  1.
          1    1    1    2  501    0 -0.28752941467E+03  0.36614130348E+02  0.11201984035E+04  0.11570904122E+04  0.00000000000E+00 0. -1.
<scales pt_clust_5="13000.00000" pt_clust_6="13000.00000" pt_clust_7="13000.00000" pt_clust_8="13000.00000" pt_clust_9="135.48887" pt_clust_10="13000.00000"></scales>
<clustering>
<clus scale="   80.141">  5  6 -1 -1</clus>
<clus scale="   92.123">  7  8 -1 -1</clus>
<clus scale="  135.489">  2  9  1 -1</clus>
<clus scale="  245.055">  1  5  2 -1</clus>
<clus scale="  222.445">  7 10 -1 -1</clus>
<clus scale="  135.489">  2  5  1 -1</clus>
</clustering>
</event>
<event>
10    4  0.2866397E-005  0.1435986E+03  0.7546771E-02  0.1227155E+00
          2   -1    0    0  502    0 -0.00000000000E+00  0.00000000000E+00  0.42323101080E+03  0.42323101080E+03  0.00000000000E+00 0. -1.
         21   -1    0    0  503  502  0.00000000000E+00 -0.00000000000E+00 -0.19198315327E+03  0.19198315327E+03  0.00000000000E+00 0.  1.
         24    2    1    2    0    0 -0.47010187813E+02  0.95285863595E+01  0.27739022717E+03  0.29265853098E+03  0.80018284845E+02 0.  0.
         23    2    1    2    0    0  0.75785928227E+02 -0.76014470950E+01  0.61770581208E+02  0.13363993205E+03  0.90789524840E+02 0.  0.
        -11    1    3    3    0    0 -0.57252003714E+02 -0.88841362829E+01  0.25659679991E+03  0.26305633908E+03  0.00000000000E+00 0.  1.
         12    1    3    3    0    0  0.10241815901E+02  0.18412722642E+02  0.20793427266E+02  0.29602191904E+02  0.00000000000E+00 0. -1.
        -13    1    4    4    0    0  0.13074538150E+02 -0.23304891064E+02 -0.17050577403E+02  0.31698323065E+02  0.00000000000E+00 0.  1.
         13    1    4    4    0    0  0.62711390077E+02  0.15703443969E+02  0.78821158611E+02  0.10194160899E+03  0.00000000000E+00 0. -1.
         21    1    1    2  503  501 -0.51395226297E+02  0.46660869660E+02 -0.11553113961E+03  0.13478186178E+03  0.00000000000E+00 0.  1.
          1    1    1    2  501    0  0.22619485883E+02 -0.48588008924E+02  0.76181887565E+01  0.54133839258E+02  0.00000000000E+00 0. -1.
<scales pt_clust_5="13000.00000" pt_clust_6="13000.00000" pt_clust_7="13000.00000" pt_clust_8="13000.00000" pt_clust_9="69.41690" pt_clust_10="13000.00000"></scales>
<clustering>
<clus scale="   69.417">  2  9  1 -1</clus>
<clus scale="   80.018">  5  6 -1 -1</clus>
<clus scale="   90.790">  7  8 -1 -1</clus>
<clus scale="   32.693">  7 10 -1 -1</clus>
<clus scale="   97.058">  1  5  2 -1</clus>
<clus scale="   69.417">  2  5  1 -1</clus>
</clustering>
</event>
<event>
10    4  0.2866397E-005  0.5263953E+03  0.7546771E-02  0.1014470E+00
          2   -1    0    0  503    0 -0.00000000000E+00  0.00000000000E+00  0.14715113109E+04  0.14715113109E+04  0.00000000000E+00 0. -1.
         21   -1    0    0  501  502  0.00000000000E+00 -0.00000000000E+00 -0.31893125886E+03  0.31893125886E+03  0.00000000000E+00 0. -1.
         24    2    1    2    0    0 -0.38632416939E+03 -0.92928887398E+02  0.31260687343E+03  0.51187817353E+03  0.80087859574E+02 0.  0.
         23    2    1    2    0    0  0.63241960625E+02 -0.92897882132E+02  0.34649543779E+03  0.37593973241E+03  0.92962529597E+02 0.  0.
        -11    1    3    3    0    0 -0.29570601056E+02 -0.19283857367E+02  0.61386984385E+01  0.35832544150E+02  0.00000000000E+00 0.  1.
         12    1    3    3    0    0 -0.35675356834E+03 -0.73645030031E+02  0.30646817499E+03  0.47604562938E+03  0.00000000000E+00 0. -1.
        -11    1    4    4    0    0 -0.22447930804E+02 -0.48182797476E+01  0.53613144179E+02  0.58322334023E+02  0.00000000000E+00 0.  1.
         11    1    4    4    0    0  0.85689891429E+02 -0.88079602384E+02  0.29288229361E+03  0.31761739839E+03  0.00000000000E+00 0. -1.
         21    1    1    2  503  502 -0.33694529811E+02  0.44014172981E+02 -0.14632327264E+03  0.15647066460E+03  0.00000000000E+00 0. -1.
          1    1    1    2  501    0  0.35677673858E+03  0.14181259655E+03  0.63980101347E+03  0.74615399923E+03  0.00000000000E+00 0. -1.
<scales pt_clust_5="13000.00000" pt_clust_6="13000.00000" pt_clust_7="13000.00000" pt_clust_8="13000.00000" pt_clust_9="55.43076" pt_clust_10="13000.00000"></scales>
<clustering>
<clus scale="   55.431">  2  9  1 -1</clus>
<clus scale="   80.088">  5  6 -1 -1</clus>
<clus scale="   92.963">  7  8 -1 -1</clus>
<clus scale="  379.528">  7 10 -1 -1</clus>
<clus scale="  419.525">  1  5  2 -1</clus>
<clus scale="   55.431">  2  5  1 -1</clus>
</clustering>
</event>
<event>
10    4  0.2866397E-005  0.2579563E+03  0.7546771E-02  0.1140859E+00
          2   -1    0    0  503    0 -0.00000000000E+00  0.00000000000E+00  0.11086817997E+04  0.11086817997E+04  0.00000000000E+00 0. -1.
         21   -1    0    0  501  502  0.00000000000E+00 -0.00000000000E+00 -0.38854699271E+02  0.38854699271E+02  0.00000000000E+00 0.  1.
         24    2    1    2    0    0 -0.66382398893E+02 -0.12036176492E+02  0.35179523566E+03  0.37163172060E+03  0.98988663482E+02 0.  0.
         23    2    1    2    0    0  0.97156685267E+02  0.39776110924E+02  0.23634033940E+03  0.27638301205E+03  0.97515397935E+02 0.  0.
        -11    1    3    3    0    0  0.16321490397E+02  0.20710566403E+02  0.13032650640E+03  0.13296735268E+03  0.00000000000E+00 0.  1.
         12    1    3    3    0    0 -0.82703889290E+02 -0.32746742895E+02  0.22146872926E+03  0.23866436792E+03  0.00000000000E+00 0. -1.
        -13    1    4    4    0    0 -0.19955592127E+02  0.90375309713E+01  0.43003361732E+02  0.48261700586E+02  0.00000000000E+00 0. -1.
         13    1    4    4    0    0  0.11711227739E+03  0.30738579953E+02  0.19333697766E+03  0.22812131147E+03  0.00000000000E+00 0.  1.
         21    1    1    2  503  502  0.26253459796E+02  0.11095066528E+02  0.25817825598E+02  0.38456530930E+02  0.00000000000E+00 0. -1.
          1    1    1    2  501    0 -0.57027746170E+02 -0.38835000960E+02  0.45587369974E+03  0.46106523535E+03  0.00000000000E+00 0. -1.
<scales pt_clust_5="13000.00000" pt_clust_6="13000.00000" pt_clust_7="13000.00000" pt_clust_8="13000.00000" pt_clust_9="28.50166" pt_clust_10="13000.00000"></scales>
<clustering>
<clus scale="   28.502">  2  9  1 -1</clus>
<clus scale="   97.515">  7  8 -1 -1</clus>
<clus scale="   66.767">  7 10 -1 -1</clus>
<clus scale="   98.989">  5  6 -1 -1</clus>
<clus scale="  115.247">  1  5  2 -1</clus>
<clus scale="   28.502">  2  5  1 -1</clus>
</clustering>
</event>
<event>
10    4  0.2866397E-005  0.6896383E+03  0.7546771E-02  0.1013870E+00
         21   -1    0    0  503  502  0.00000000000E+00  0.00000000000E+00  0.20985533803E+03  0.20985533803E+03  0.00000000000E+00 0. -1.
          2   -1    0    0  502    0 -0.00000000000E+00 -0.00000000000E+00 -0.18236347991E+04  0.18236347991E+04  0.00000000000E+00 0. -1.
         24    2    1    2    0    0 -0.22901596478E+02  0.17047132876E+03 -0.75058520539E+03  0.77426511226E+03  0.80767298238E+02 0.  0.
         23    2    1    2    0    0 -0.77904430482E+02  0.20959649504E+03 -0.53041792229E+02  0.24701292872E+03  0.90565800444E+02 0.  0.
        -11    1    3    3    0    0  0.21076926075E+02  0.54663306912E+02 -0.14995218832E+03  0.16099059823E+03  0.00000000000E+00 0.  1.
         12    1    3    3    0    0 -0.43978522553E+02  0.11580802184E+03 -0.60063301707E+03  0.61327451403E+03  0.00000000000E+00 0. -1.
        -11    1    4    4    0    0  0.75681282509E+01  0.19874836459E+02 -0.31234307092E+02  0.37787135761E+02  0.00000000000E+00 0.  1.
         11    1    4    4    0    0 -0.85472558733E+02  0.18972165858E+03 -0.21807485137E+02  0.20922579296E+03  0.00000000000E+00 0. -1.
         21    1    1    2  503  501 -0.85844684043E+02 -0.17428292240E+03 -0.46744693358E+02  0.19982220391E+03  0.00000000000E+00 0. -1.
          1    1    1    2  501    0  0.18665071100E+03 -0.20578490140E+03 -0.76340777010E+03  0.81238989224E+03  0.00000000000E+00 0. -1.
<scales pt_clust_5="13000.00000" pt_clust_6="13000.00000" pt_clust_7="13000.00000" pt_clust_8="13000.00000" pt_clust_9="178.03619" pt_clust_10="13000.00000"></scales>
<clustering>
<clus scale="   80.767">  5  6 -1 -1</clus>
<clus scale="   90.566">  7  8 -1 -1</clus>
<clus scale="  190.022">  2  5  1 -1</clus>
<clus scale="  178.036">  1  9  2 -1</clus>
<clus scale="  187.246">  7 10 -1 -1</clus>
<clus scale="  178.036">  1  5  2 -1</clus>
</clustering>
</event>
<event>
10    4  0.2866397E-005  0.6794308E+03  0.7546771E-02  0.9833825E-01
          2   -1    0    0  503    0 -0.00000000000E+00  0.00000000000E+00  0.21800687998E+04  0.21800687998E+04  0.00000000000E+00 0. -1.
         21   -1    0    0  501  502  0.00000000000E+00 -0.00000000000E+00 -0.39199322403E+03  0.39199322403E+03  0.00000000000E+00 0. -1.
         24    2    1    2    0    0  0.28884296600E+03  0.39205512716E+03  0.11131719759E+04  0.12176493041E+04  0.79878020349E+02 0.  0.
         23    2    1    2    0    0 -0.30229512572E+02  0.36902716044E+02  0.28601077634E+03  0.30443307606E+03  0.92745348859E+02 0.  0.
        -11    1    3    3    0    0  0.50716184593E+02  0.56617487119E+02  0.25300940127E+03  0.26418067370E+03  0.00000000000E+00 0.  1.
         12    1    3    3    0    0  0.23812678140E+03  0.33543764005E+03  0.86016257466E+03  0.95346863044E+03  0.00000000000E+00 0. -1.
        -11    1    4    4    0    0 -0.56295741729E+02  0.15522880639E+01  0.20107881332E+03  0.20881644883E+03  0.00000000000E+00 0. -1.
         11    1    4    4    0    0  0.26066229157E+02  0.35350427980E+02  0.84931963025E+02  0.95616627237E+02  0.00000000000E+00 0.  1.
         21    1    1    2  503  502  0.13043730221E+03  0.27225439175E+02 -0.17968223037E+03  0.22369805152E+03  0.00000000000E+00 0.  1.
          1    1    1    2  501    0 -0.38905075563E+03 -0.45618328238E+03  0.56857505390E+03  0.82628159213E+03  0.00000000000E+00 0. -1.
<scales pt_clust_5="13000.00000" pt_clust_6="13000.00000" pt_clust_7="13000.00000" pt_clust_8="13000.00000" pt_clust_9="133.24832" pt_clust_10="13000.00000"></scales>
<clustering>
<clus scale="   79.878">  5  6 -1 -1</clus>
<clus scale="   92.745">  7  8 -1 -1</clus>
<clus scale="  133.248">  2  9  1 -1</clus>
<clus scale="  520.961">  1  5  2 -1</clus>
<clus scale="  199.861">  7 10 -1 -1</clus>
<clus scale="  133.248">  2  5  1 -1</clus>
</clustering>
</event>
<event>
10    4  0.2866397E-005  0.5245993E+03  0.7546771E-02  0.1040466E+00
         21   -1    0    0  501  502  0.00000000000E+00  0.00000000000E+00  0.30039091147E+03  0.30039091147E+03  0.00000000000E+00 0. -1.
          2   -1    0    0  503    0 -0.00000000000E+00 -0.00000000000E+00 -0.12801747864E+04  0.12801747864E+04  0.00000000000E+00 0. -1.
         24    2    1    2    0    0  0.35445202692E+02  0.17440379747E+03 -0.26715863155E+03  0.33086670381E+03  0.80162299852E+02 0.  0.
         23    2    1    2    0    0  0.26115318632E+02  0.44209201513E+02 -0.12064467473E+02  0.10863608399E+03  0.94972543416E+02 0.  0.
        -13    1    3    3    0    0 -0.16532888851E+02  0.11530372877E+03 -0.15882453382E+03  0.19696070375E+03  0.00000000000E+00 0.  1.
         14    1    3    3    0    0  0.51978091543E+02  0.59100068699E+02 -0.10833409773E+03  0.13390600006E+03  0.00000000000E+00 0. -1.
        -13    1    4    4    0    0  0.11124134992E+02 -0.28017807343E+02 -0.17171755862E+02  0.34693127663E+02  0.00000000000E+00 0.  1.
         13    1    4    4    0    0  0.14991183640E+02  0.72227008856E+02  0.51072883890E+01  0.73942956324E+02  0.00000000000E+00 0. -1.
         21    1    1    2  503  502  0.22471775288E+03 -0.22168517862E+03  0.66259534159E+02  0.32254102491E+03  0.00000000000E+00 0. -1.
          1    1    1    2  501    0 -0.28627827421E+03  0.30721796423E+01 -0.76682031007E+03  0.81852188518E+03  0.00000000000E+00 0. -1.
<scales pt_clust_5="13000.00000" pt_clust_6="13000.00000" pt_clust_7="13000.00000" pt_clust_8="13000.00000" pt_clust_9="303.58583" pt_clust_10="13000.00000"></scales>
<clustering>
<clus scale="   80.162">  5  6 -1 -1</clus>
<clus scale="   94.973">  7  8 -1 -1</clus>
<clus scale="  195.190">  2  5  1 -1</clus>
<clus scale="  295.140">  7 10 -1 -1</clus>
<clus scale="  303.586">  1  9  2 -1</clus>
<clus scale="  303.586">  1  5  2 -1</clus>
</clustering>
</event>
<event>
10    4  0.2866397E-005  0.1942063E+03  0.7546771E-02  0.1184016E+00
         21   -1    0    0  501  502  0.00000000000E+00  0.00000000000E+00  0.65632879100E+02  0.65632879100E+02  0.00000000000E+00 0. -1.
          2   -1    0    0  503    0 -0.00000000000E+00 -0.00000000000E+00 -0.10762920068E+04  0.10762920068E+04  0.00000000000E+00 0. -1.
         24    2    1    2    0    0 -0.40812590745E+02  0.39921306868E+02 -0.43061774377E+03  0.44191549235E+03  0.81229814831E+02 0.  0.
         23    2    1    2    0    0 -0.49625206983E+02  0.94315185573E+02 -0.38506947763E+03  0.40725781724E+03  0.78882264836E+02 0.  0.
        -11    1    3    3    0    0 -0.59383241237E+02  0.17704018133E+02 -0.19715146477E+03  0.20666035338E+03  0.00000000000E+00 0.  1.
         12    1    3    3    0    0  0.18570650493E+02  0.22217288734E+02 -0.23346627901E+03  0.23525513897E+03  0.00000000000E+00 0. -1.
        -13    1    4    4    0    0 -0.17903691540E+02 -0.10014701254E+02 -0.99145180273E+02  0.10124526252E+03  0.00000000000E+00 0.  1.
         13    1    4    4    0    0 -0.31721515443E+02  0.10432988683E+03 -0.28592429735E+03  0.30601255472E+03  0.00000000000E+00 0. -1.
         21    1    1    2  503  502  0.11214193089E+03 -0.11406153800E+03 -0.89703330583E+02  0.18339175181E+03  0.00000000000E+00 0. -1.
          1    1    1    2  501    0 -0.21704133159E+02 -0.20174954446E+02 -0.10526857572E+03  0.10935982451E+03  0.00000000000E+00 0. -1.
<scales pt_clust_5="13000.00000" pt_clust_6="13000.00000" pt_clust_7="13000.00000" pt_clust_8="13000.00000" pt_clust_9="147.77809" pt_clust_10="13000.00000"></scales>
<clustering>
<clus scale="   78.882">  7  8 -1 -1</clus>
<clus scale="   29.633">  7 10 -1 -1</clus>
<clus scale="   81.230">  5  6 -1 -1</clus>
<clus scale="   99.286">  2  5  1 -1</clus>
<clus scale="  147.778">  1  9  2 -1</clus>
<clus scale="  147.778">  1  5  2 -1</clus>
</clustering>
</event>
<event>
10    4  0.2866397E-005  0.6457165E+03  0.7546771E-02  0.1014135E+00
          2   -1    0    0  503    0 -0.00000000000E+00  0.00000000000E+00  0.94766853358E+03  0.94766853358E+03  0.00000000000E+00 0. -1.
         21   -1    0    0  501  502  0.00000000000E+00 -0.00000000000E+00 -0.33256545374E+03  0.33256545374E+03  0.00000000000E+00 0. -1.
         24    2    1    2    0    0 -0.47891291543E+02  0.21015778642E+03  0.48340506194E+03  0.53544761685E+03  0.81017439330E+02 0.  0.
         23    2    1    2    0    0 -0.12678801423E+03  0.12528224614E+03  0.21965104028E+03  0.29637093592E+03  0.88421210203E+02 0.  0.
        -13    1    3    3    0    0 -0.27040151120E+02  0.99669026405E+01  0.67764634735E+02  0.73637997268E+02  0.00000000000E+00 0.  1.
         14    1    3    3    0    0 -0.20851140423E+02  0.20019088378E+03  0.41564042721E+03  0.46180961958E+03  0.00000000000E+00 0. -1.
        -11    1    4    4    0    0 -0.85931869028E+02  0.26437627337E+02  0.79081092330E+02  0.11973743532E+03  0.00000000000E+00 0. -1.
         11    1    4    4    0    0 -0.40856145198E+02  0.98844618801E+02  0.14056994795E+03  0.17663350060E+03  0.00000000000E+00 0.  1.
         21    1    1    2  503  502 -0.18211348568E+02 -0.11417095135E+02 -0.67422624547E+02  0.70765906896E+02  0.00000000000E+00 0. -1.
          1    1    1    2  501    0  0.19289065434E+03 -0.32402293743E+03 -0.20530397836E+02  0.37764952766E+03  0.00000000000E+00 0. -1.
<scales pt_clust_5="13000.00000" pt_clust_6="13000.00000" pt_clust_7="13000.00000" pt_clust_8="13000.00000" pt_clust_9="21.49426" pt_clust_10="13000.00000"></scales>
<clustering>
<clus scale="   21.494">  2  9  1 -1</clus>
<clus scale="   81.017">  5  6 -1 -1</clus>
<clus scale="   88.421">  7  8 -1 -1</clus>
<clus scale="  229.623">  1  5  2 -1</clus>
<clus scale="  293.790">  7 10 -1 -1</clus>
<clus scale="   21.494">  2  5  1 -1</clus>
</clustering>
</event>
<event>
10    4  0.2866397E-005  0.1650856E+03  0.7546771E-02  0.1213991E+00
         -1   -1    0    0    0  501 -0.00000000000E+00  0.00000000000E+00  0.20138409652E+03  0.20138409652E+03  0.00000000000E+00 0.  1.
         21   -1    0    0  503  502  0.00000000000E+00 -0.00000000000E+00 -0.11064241426E+03  0.11064241426E+03  0.00000000000E+00 0.  1.
         24    2    1    2    0    0 -0.63474521245E+01 -0.29302456489E+02  0.61510484553E+02  0.10552215640E+03  0.80327216283E+02 0.  0.
         23    2    1    2    0    0  0.27895134757E+02  0.60390430587E+00 -0.19275311304E+02  0.91910970357E+02  0.85425907092E+02 0.  0.
        -13    1    3    3    0    0 -0.37665543707E+02 -0.18833667287E+02  0.83363229700E+01  0.42928946958E+02  0.00000000000E+00 0.  1.
         14    1    3    3    0    0  0.31318091583E+02 -0.10468789201E+02  0.53174161583E+02  0.62593209438E+02  0.00000000000E+00 0. -1.
        -11    1    4    4    0    0  0.44526738492E+02 -0.24666872689E+02  0.75728170145E+01  0.51462924582E+02  0.00000000000E+00 0.  1.
         11    1    4    4    0    0 -0.16631603735E+02  0.25270776995E+02 -0.26848128319E+02  0.40448045774E+02  0.00000000000E+00 0. -1.
         21    1    1    2  503  501  0.32751470072E+02  0.16791648755E+02 -0.53522070895E+01  0.37192262374E+02  0.00000000000E+00 0.  1.
         -2    1    1    2    0  502 -0.54299152705E+02  0.11906903428E+02  0.53858716099E+02  0.77401121656E+02  0.00000000000E+00 0.  1.
<scales pt_clust_5="13000.00000" pt_clust_6="13000.00000" pt_clust_7="13000.00000" pt_clust_8="13000.00000" pt_clust_9="36.80514" pt_clust_10="13000.00000"></scales>
<clustering>
<clus scale="   36.805">  2  9  1 -1</clus>
<clus scale="   80.327">  5  6 -1 -1</clus>
<clus scale="   84.195">  1  5  2 -1</clus>
<clus scale="   85.426">  7  8 -1 -1</clus>
<clus scale="   49.114">  7 10 -1 -1</clus>
<clus scale="   36.805">  2  5  1 -1</clus>
</clustering>
</event>
<event>
10    4  0.2866397E-005  0.3649242E+03  0.7546771E-02  0.1110220E+00
         21   -1    0    0  501  502  0.00000000000E+00  0.00000000000E+00  0.62924380727E+03  0.62924380727E+03  0.00000000000E+00 0.  1.
          2   -1    0    0  503    0 -0.00000000000E+00 -0.00000000000E+00 -0.53741089326E+03  0.53741089326E+03  0.00000000000E+00 0. -1.
         24    2    1    2    0    0  0.31214716060E+02  0.24018456336E+02 -0.22028500025E+03  0.23681684002E+03  0.77495094278E+02 0.  0.
         23    2    1    2    0    0  0.29977150232E+02  0.16040086141E+01 -0.20480673019E+02  0.97655102312E+02  0.90641373889E+02 0.  0.
        -11    1    3    3    0    0 -0.81491447398E+00  0.46866655508E+02 -0.13467101005E+03  0.14259533103E+03  0.00000000000E+00 0.  1.
         12    1    3    3    0    0  0.32029630534E+02 -0.22848199172E+02 -0.85613990199E+02  0.94221508985E+02  0.00000000000E+00 0. -1.
        -13    1    4    4    0    0  0.45866957605E+02  0.22838277897E+02 -0.39769496149E+02  0.64861217697E+02  0.00000000000E+00 0.  1.
         13    1    4    4    0    0 -0.15889807373E+02 -0.21234269283E+02  0.19288823130E+02  0.32793884614E+02  0.00000000000E+00 0. -1.
         21    1    1    2  503  502 -0.19290875961E+03  0.20663281031E+03  0.45720073960E+03  0.53753457946E+03  0.00000000000E+00 0.  1.
          1    1    1    2  501    0  0.13171689331E+03 -0.23225527526E+03 -0.12460215231E+03  0.29464817873E+03  0.00000000000E+00 0. -1.
<scales pt_clust_5="13000.00000" pt_clust_6="13000.00000" pt_clust_7="13000.00000" pt_clust_8="13000.00000" pt_clust_9="282.24423" pt_clust_10="13000.00000"></scales>
<clustering>
<clus scale="   77.495">  5  6 -1 -1</clus>
<clus scale="   86.929">  2  5  1 -1</clus>
<clus scale="   90.641">  7  8 -1 -1</clus>
<clus scale="  264.604">  7 10 -1 -1</clus>
<clus scale="  282.244">  1  9  2 -1</clus>
<clus scale="  282.244">  1  5  2 -1</clus>
</clustering>
</event>
<event>
10    4  0.2866397E-005  0.1698475E+03  0.7546771E-02  0.1207437E+00
         21   -1    0    0  503  502  0.00000000000E+00  0.00000000000E+00  0.17652647868E+03  0.17652647868E+03  0.00000000000E+00 0.  1.
          2   -1    0    0  502    0 -0.00000000000E+00 -0.00000000000E+00 -0.30555012561E+03  0.30555012561E+03  0.00000000000E+00 0. -1.
         24    2    1    2    0    0 -0.33689752310E+02  0.14576322032E+02 -0.23649277492E+03  0.25283069532E+03  0.81529499784E+02 0.  0.
         23    2    1    2    0    0  0.18502829117E+02  0.53725472912E+02  0.10979943397E+02  0.10780774171E+03  0.90956961754E+02 0.  0.
        -13    1    3    3    0    0  0.23206703661E+02  0.21642592115E+02 -0.95166110200E+02  0.10031720400E+03  0.00000000000E+00 0.  1.
         14    1    3    3    0    0 -0.56896455971E+02 -0.70662700829E+01 -0.14132666472E+03  0.15251349132E+03  0.00000000000E+00 0. -1.
        -13    1    4    4    0    0 -0.30682697648E+02  0.21657666038E+00 -0.98082471865E+01  0.32212987339E+02  0.00000000000E+00 0.  1.
         13    1    4    4    0    0  0.49185526766E+02  0.53508896251E+02  0.20788190583E+02  0.75594754375E+02  0.00000000000E+00 0. -1.
         21    1    1    2  503  501  0.12993598714E+02 -0.20005760978E+02  0.44181742100E+02  0.50210461209E+02  0.00000000000E+00 0.  1.
          1    1    1    2  501    0  0.21933244791E+01 -0.48296033965E+02  0.52307442482E+02  0.71227706043E+02  0.00000000000E+00 0. -1.
<scales pt_clust_5="13000.00000" pt_clust_6="13000.00000" pt_clust_7="13000.00000" pt_clust_8="13000.00000" pt_clust_9="23.85506" pt_clust_10="13000.00000"></scales>
<clustering>
<clus scale="   23.855">  1  9  2 -1</clus>
<clus scale="   81.529">  5  6 -1 -1</clus>
<clus scale="   88.908">  2  5  1 -1</clus>
<clus scale="   90.957">  7  8 -1 -1</clus>
<clus scale="   54.573">  7 10 -1 -1</clus>
<clus scale="   23.855">  1  5  2 -1</clus>
</clustering>
</event>
<event>
10    4  0.2866397E-005  0.4898066E+03  0.7546771E-02  0.1073004E+00
          2   -1    0    0  502    0 -0.00000000000E+00  0.00000000000E+00  0.25785709213E+03  0.25785709213E+03  0.00000000000E+00 0. -1.
         21   -1    0    0  503  502  0.00000000000E+00 -0.00000000000E+00 -0.53167275218E+03  0.53167275218E+03  0.00000000000E+00 0. -1.
         24    2    1    2    0    0 -0.22978730121E+02  0.38296377132E+02  0.10481845682E+02  0.92338686351E+02  0.80136941349E+02 0.  0.
         23    2    1    2    0    0 -0.27277628973E+02 -0.24789123582E+03  0.47139154003E+02  0.26909690175E+03  0.89425437404E+02 0.  0.
        -13    1    3    3    0    0  0.23379173836E+02  0.20215719670E+02 -0.17227772405E+02  0.35384420768E+02  0.00000000000E+00 0.  1.
         14    1    3    3    0    0 -0.46357903957E+02  0.18080657462E+02  0.27709618087E+02  0.56954265583E+02  0.00000000000E+00 0. -1.
        -11    1    4    4    0    0 -0.44899292520E+02 -0.54676287524E+02  0.83455576763E+01  0.71239674474E+02  0.00000000000E+00 0.  1.
         11    1    4    4    0    0  0.17621663547E+02 -0.19321494829E+03  0.38793596327E+02  0.19785722728E+03  0.00000000000E+00 0. -1.
         21    1    1    2  503  501 -0.45481569844E+02  0.53498245578E+02 -0.17017091457E+03  0.18408904269E+03  0.00000000000E+00 0. -1.
          1    1    1    2  501    0  0.95737928938E+02  0.15609661311E+03 -0.16126574516E+03  0.24400521352E+03  0.00000000000E+00 0. -1.
<scales pt_clust_5="13000.00000" pt_clust_6="13000.00000" pt_clust_7="13000.00000" pt_clust_8="13000.00000" pt_clust_9="70.21848" pt_clust_10="13000.00000"></scales>
<clustering>
<clus scale="   70.218">  2  9  1 -1</clus>
<clus scale="   80.137">  5  6 -1 -1</clus>
<clus scale="   89.425">  7  8 -1 -1</clus>
<clus scale="   95.899">  1  5  2 -1</clus>
<clus scale="  208.395">  7 10 -1 -1</clus>
<clus scale="   70.218">  2  5  1 -1</clus>
</clustering>
</event>
<event>
10    4  0.2866397E-005  0.2484294E+03  0.7546771E-02  0.1143555E+00
         21   -1    0    0  501  502  0.00000000000E+00  0.00000000000E+00  0.66475976245E+03  0.66475976245E+03  0.00000000000E+00 0.  1.
         -1   -1    0    0    0  501 -0.00000000000E+00 -0.00000000000E+00 -0.39893316237E+03  0.39893316237E+03  0.00000000000E+00 0.  1.
         24    2    1    2    0    0  0.40193616290E+02 -0.80021677480E+02 -0.27015323824E+03  0.29598318464E+03  0.81266707848E+02 0.  0.
         23    2    1    2    0    0  0.89884023346E+02  0.12681737612E+02  0.91464206515E+02  0.15810079833E+03  0.91598019834E+02 0.  0.
        -13    1    3    3    0    0 -0.79310398100E+01 -0.59258129042E+02 -0.19781752432E+03  0.20665478504E+03  0.00000000000E+00 0.  1.
         14    1    3    3    0    0  0.48124656100E+02 -0.20763548438E+02 -0.72335713912E+02  0.89328399603E+02  0.00000000000E+00 0. -1.
        -13    1    4    4    0    0  0.98384577217E+02  0.35225029608E+02  0.78812080201E+02  0.13088801217E+03  0.00000000000E+00 0.  1.
         13    1    4    4    0    0 -0.85005538709E+01 -0.22543291997E+02  0.12652126314E+02  0.27212786157E+02  0.00000000000E+00 0. -1.
         21    1    1    2  503  502 -0.12660621555E+03  0.27478842445E+02  0.51364700114E+03  0.52973338802E+03  0.00000000000E+00 0.  1.
         -2    1    1    2    0  503 -0.34714240862E+01  0.39861097423E+02 -0.69131369339E+02  0.79875553830E+02  0.00000000000E+00 0.  1.
<scales pt_clust_5="13000.00000" pt_clust_6="13000.00000" pt_clust_7="13000.00000" pt_clust_8="13000.00000" pt_clust_9="125.74205" pt_clust_10="13000.00000"></scales>
<clustering>
<clus scale="   81.267">  5  6 -1 -1</clus>
<clus scale="   91.598">  7  8 -1 -1</clus>
<clus scale="   40.012">  7 10 -1 -1</clus>
<clus scale="  120.927">  2  5  1 -1</clus>
<clus scale="  125.742">  1  9  2 -1</clus>
<clus scale="  125.742">  1  5  2 -1</clus>
</clustering>
</event>
<event>
10    4  0.2866397E-005  0.8555974E+03  0.7546771E-02  0.1019946E+00
         21   -1    0    0  501  502  0.00000000000E+00  0.00000000000E+00  0.16973987903E+03  0.16973987903E+03  0.00000000000E+00 0. -1.
          2   -1    0    0  503    0 -0.00000000000E+00 -0.00000000000E+00 -0.14194508746E+04  0.14194508746E+04  0.00000000000E+00 0. -1.
         24    2    1    2    0    0  0.20621795403E+02 -0.10784510082E+02 -0.12218223779E+03  0.14730323814E+03  0.78918823061E+02 0.  0.
         23    2    1    2    0    0 -0.17714524740E+03 -0.36344667351E+03 -0.72438796767E+03  0.83455926504E+03  0.90979755961E+02 0.  0.
        -13    1    3    3    0    0 -0.55185032797E+01  0.30703724273E+02 -0.32239001157E+02  0.44861183202E+02  0.00000000000E+00 0.  1.
         14    1    3    3    0    0  0.26140298683E+02 -0.41488234355E+02 -0.89943236630E+02  0.10244205494E+03  0.00000000000E+00 0. -1.
        -11    1    4    4    0    0 -0.14894460521E+03 -0.24884700744E+03 -0.57662629701E+03  0.64545117161E+03  0.00000000000E+00 0. -1.
         11    1    4    4    0    0 -0.28200642189E+02 -0.11459966606E+03 -0.14776167066E+03  0.18910809342E+03  0.00000000000E+00 0.  1.
         21    1    1    2  503  502  0.10040705622E+02 -0.18840342274E+02  0.51415019361E+01  0.21959264754E+02  0.00000000000E+00 0. -1.
          1    1    1    2  501    0  0.14648274637E+03  0.39307152586E+03 -0.40828229207E+03  0.58536898572E+03  0.00000000000E+00 0. -1.
<scales pt_clust_5="13000.00000" pt_clust_6="13000.00000" pt_clust_7="13000.00000" pt_clust_8="13000.00000" pt_clust_9="21.34887" pt_clust_10="13000.00000"></scales>
<clustering>
<clus scale="   21.349">  1  9  2 -1</clus>
<clus scale="   78.919">  5  6 -1 -1</clus>
<clus scale="   82.696">  2  5  1 -1</clus>
<clus scale="   90.980">  7  8 -1 -1</clus>
<clus scale="  410.341">  7 10 -1 -1</clus>
<clus scale="   21.349">  1  5  2 -1</clus>
</clustering>
</event>
<event>
10    4  0.2866397E-005  0.3679117E+03  0.7546771E-02  0.1109579E+00
         21   -1    0    0  501  502  0.00000000000E+00  0.00000000000E+00  0.10758090696E+03  0.10758090696E+03  0.00000000000E+00 0. -1.
          2   -1    0    0  503    0 -0.00000000000E+00 -0.00000000000E+00 -0.59411140489E+03  0.59411140489E+03  0.00000000000E+00 0. -1.
         24    2    1    2    0    0  0.96247402856E+01 -0.17054037677E+02 -0.17441509032E+02  0.85382397447E+02  0.81255595068E+02 0.  0.
         23    2    1    2    0    0 -0.32325485577E+02 -0.12481403128E+03 -0.82988717696E+02  0.17858284758E+03  0.91549040208E+02 0.  0.
        -13    1    3    3    0    0 -0.34030296486E+02 -0.11124850877E+02 -0.20436839421E+02  0.41224844347E+02  0.00000000000E+00 0.  1.
         14    1    3    3    0    0  0.43655036772E+02 -0.59291868006E+01  0.29953303885E+01  0.44157553100E+02  0.00000000000E+00 0. -1.
        -13    1    4    4    0    0  0.21334371921E+02 -0.21841661622E+01 -0.70299130932E+00  0.21457404407E+02  0.00000000000E+00 0.  1.
         13    1    4    4    0    0 -0.53659857498E+02 -0.12262986512E+03 -0.82285726387E+02  0.15712544318E+03  0.00000000000E+00 0. -1.
         21    1    1    2  503  502  0.19000809262E+01 -0.29683078593E+02 -0.31872061418E+02  0.43594996976E+02  0.00000000000E+00 0. -1.
          1    1    1    2  501    0  0.20800664365E+02  0.17155114755E+03 -0.35422820979E+03  0.39413206984E+03  0.00000000000E+00 0. -1.
<scales pt_clust_5="13000.00000" pt_clust_6="13000.00000" pt_clust_7="13000.00000" pt_clust_8="13000.00000" pt_clust_9="29.74385" pt_clust_10="13000.00000"></scales>
<clustering>
<clus scale="   29.744">  1  9  2 -1</clus>
<clus scale="   81.256">  5  6 -1 -1</clus>
<clus scale="   86.226">  2  5  1 -1</clus>
<clus scale="   91.549">  7  8 -1 -1</clus>
<clus scale="  150.126">  7 10 -1 -1</clus>
<clus scale="   29.744">  1  5  2 -1</clus>
</clustering>
</event>
<event>
10    4  0.2866397E-005  0.3360853E+03  0.7546771E-02  0.1106779E+00
         21   -1    0    0  501  502  0.00000000000E+00  0.00000000000E+00  0.11081626103E+03  0.11081626103E+03  0.00000000000E+00 0. -1.
          2   -1    0    0  503    0 -0.00000000000E+00 -0.00000000000E+00 -0.67386832501E+03  0.67386832501E+03  0.00000000000E+00 0. -1.
         24    2    1    2    0    0  0.96828776972E+02  0.19128802962E+02 -0.26732235761E+03  0.29257185920E+03  0.66297260626E+02 0.  0.
         23    2    1    2    0    0 -0.67624549158E+02 -0.35341507902E+02 -0.36828915098E+03  0.38704628149E+03  0.91355478503E+02 0.  0.
        -11    1    3    3    0    0  0.30552593441E+02  0.11547513923E+02 -0.24711104664E+02  0.40956620192E+02  0.00000000000E+00 0.  1.
         12    1    3    3    0    0  0.66276183531E+02  0.75812890393E+01 -0.24261125294E+03  0.25161523901E+03  0.00000000000E+00 0. -1.
        -13    1    4    4    0    0 -0.23053502872E+02 -0.62525628689E+02 -0.21705944444E+03  0.22705884845E+03  0.00000000000E+00 0.  1.
         13    1    4    4    0    0 -0.44571046286E+02  0.27184120787E+02 -0.15122970654E+03  0.15998743304E+03  0.00000000000E+00 0. -1.
         21    1    1    2  503  502  0.18542053637E+02  0.18422308429E+02  0.14594553883E+02  0.29936436060E+02  0.00000000000E+00 0. -1.
          1    1    1    2  501    0 -0.47746281451E+02 -0.22096034886E+01  0.57964890720E+02  0.75130009292E+02  0.00000000000E+00 0. -1.
<scales pt_clust_5="13000.00000" pt_clust_6="13000.00000" pt_clust_7="13000.00000" pt_clust_8="13000.00000" pt_clust_9="26.13789" pt_clust_10="13000.00000"></scales>
<clustering>
<clus scale="   26.138">  1  9  2 -1</clus>
<clus scale="   66.297">  5  6 -1 -1</clus>
<clus scale="   91.355">  7  8 -1 -1</clus>
<clus scale="   35.758">  7 10 -1 -1</clus>
<clus scale="  121.505">  2  5  1 -1</clus>
<clus scale="   26.138">  1  5  2 -1</clus>
</clustering>
</event>
<event>
10    4  0.2866397E-005  0.2825394E+03  0.7546771E-02  0.1116883E+00
         21   -1    0    0  501  502  0.00000000000E+00  0.00000000000E+00  0.24944290301E+02  0.24944290301E+02  0.00000000000E+00 0. -1.
          2   -1    0    0  503    0 -0.00000000000E+00 -0.00000000000E+00 -0.25707697939E+04  0.25707697939E+04  0.00000000000E+00 0. -1.
         24    2    1    2    0    0 -0.49579598531E+02 -0.13088034228E+03 -0.13212621844E+04  0.13310860088E+04  0.80426376868E+02 0.  0.
         23    2    1    2    0    0  0.98689209404E+02 -0.11014279922E+02 -0.32138342945E+03  0.34816917831E+03  0.89853177932E+02 0.  0.
        -11    1    3    3    0    0 -0.94269415980E+01 -0.23520771410E+02 -0.67573353499E+02  0.72168220283E+02  0.00000000000E+00 0.  1.
         12    1    3    3    0    0 -0.40152656933E+02 -0.10735957087E+03 -0.12536888309E+04  0.12589177885E+04  0.00000000000E+00 0. -1.
        -11    1    4    4    0    0  0.48023301825E+02  0.34111680878E+02 -0.20659250662E+03  0.21482622764E+03  0.00000000000E+00 0.  1.
         11    1    4    4    0    0  0.50665907579E+02 -0.45125960800E+02 -0.11479092283E+03  0.13334295066E+03  0.00000000000E+00 0. -1.
         21    1    1    2  503  502 -0.24479608201E+02  0.28504028380E+02 -0.16570951882E+03  0.16991578938E+03  0.00000000000E+00 0. -1.
          1    1    1    2  501    0 -0.24630002672E+02  0.11339059383E+03 -0.73747037090E+03  0.74654310777E+03  0.00000000000E+00 0. -1.
<scales pt_clust_5="13000.00000" pt_clust_6="13000.00000" pt_clust_7="13000.00000" pt_clust_8="13000.00000" pt_clust_9="37.57301" pt_clust_10="13000.00000"></scales>
<clustering>
<clus scale="   37.573">  1  9  2 -1</clus>
<clus scale="   80.426">  5  6 -1 -1</clus>
<clus scale="   89.853">  7  8 -1 -1</clus>
<clus scale="  122.650">  7 10 -1 -1</clus>
<clus scale="  158.237">  2  5  1 -1</clus>
<clus scale="   37.573">  1  5  2 -1</clus>
</clustering>
</event>
<event>
10    4  0.2866397E-005  0.4487370E+03  0.7546771E-02  0.1028857E+00
         21   -1    0    0  503  502  0.00000000000E+00  0.00000000000E+00  0.15792899518E+03  0.15792899518E+03  0.00000000000E+00 0. -1.
          2   -1    0    0  502    0 -0.00000000000E+00 -0.00000000000E+00 -0.31385872510E+04  0.31385872510E+04  0.00000000000E+00 0. -1.
         24    2    1    2    0    0  0.35650856778E+03 -0.10745689762E+03 -0.12467440738E+04  0.13034447169E+04  0.77149210452E+02 0.  0.
         23    2    1    2    0    0 -0.44609668389E+03  0.26647330240E+02 -0.13925706426E+04  0.14655028401E+04  0.93451849186E+02 0.  0.
        -13    1    3    3    0    0  0.20310665244E+03 -0.34419575979E+02 -0.77978755465E+03  0.80653930460E+03  0.00000000000E+00 0.  1.
         14    1    3    3    0    0  0.15340191534E+03 -0.73037321641E+02 -0.46695651915E+03  0.49690541229E+03  0.00000000000E+00 0. -1.
        -13    1    4    4    0    0 -0.68816628927E+02  0.27095664846E+02 -0.32244361179E+03  0.33081684699E+03  0.00000000000E+00 0.  1.
         13    1    4    4    0    0 -0.37728005497E+03 -0.44833460643E+00 -0.10701270308E+04  0.11346859931E+04  0.00000000000E+00 0. -1.
         21    1    1    2  503  501  0.17649134032E+03  0.10317158076E+03 -0.33810980984E+02  0.20721184985E+03  0.00000000000E+00 0.  1.
          1    1    1    2  501    0 -0.86903224203E+02 -0.22362013381E+02 -0.30753255841E+03  0.32035683933E+03  0.00000000000E+00 0. -1.
<scales pt_clust_5="13000.00000" pt_clust_6="13000.00000" pt_clust_7="13000.00000" pt_clust_8="13000.00000" pt_clust_9="204.43475" pt_clust_10="13000.00000"></scales>
<clustering>
<clus scale="   77.149">  5  6 -1 -1</clus>
<clus scale="   93.452">  7  8 -1 -1</clus>
<clus scale="   89.734">  7 10 -1 -1</clus>
<clus scale="  204.435">  1  9  2 -1</clus>
<clus scale="  438.726">  2  5  1 -1</clus>
<clus scale="  204.435">  1  5  2 -1</clus>
</clustering>
</event>
<event>
10    4  0.2866397E-005  0.4903829E+03  0.7546771E-02  0.1060106E+00
         21   -1    0    0  501  502  0.00000000000E+00  0.00000000000E+00  0.27786256217E+03  0.27786256217E+03  0.00000000000E+00 0. -1.
          2   -1    0    0  503    0 -0.00000000000E+00 -0.00000000000E+00 -0.45495785581E+03  0.45495785581E+03  0.00000000000E+00 0. -1.
         24    2    1    2    0    0  0.34539553137E+02 -0.11229746301E+03 -0.41577349871E+02  0.14806924590E+03  0.79950763784E+02 0.  0.
         23    2    1    2    0    0  0.16972665120E+03 -0.11135179091E+03 -0.93914682805E+02  0.24445254498E+03  0.98644420202E+02 0.  0.
        -11    1    3    3    0    0  0.25217886141E+02 -0.28937773435E+01 -0.27411456765E+02  0.37359117906E+02  0.00000000000E+00 0.  1.
         12    1    3    3    0    0  0.93216669959E+01 -0.10940368567E+03 -0.14165893107E+02  0.11071012799E+03  0.00000000000E+00 0. -1.
        -13    1    4    4    0    0  0.87319278479E+02 -0.95698678127E+02 -0.94861290250E+02  0.16056636565E+03  0.00000000000E+00 0. -1.
         13    1    4    4    0    0  0.82407372718E+02 -0.15653112788E+02  0.94660744558E+00  0.83886179338E+02  0.00000000000E+00 0.  1.
         21    1    1    2  503  502 -0.43399740836E+02  0.18188306824E+02  0.45245853994E+02  0.65280466553E+02  0.00000000000E+00 0. -1.
          1    1    1    2  501    0 -0.16086646350E+03  0.20546094710E+03 -0.86849114958E+02  0.27501816055E+03  0.00000000000E+00 0. -1.
<scales pt_clust_5="13000.00000" pt_clust_6="13000.00000" pt_clust_7="13000.00000" pt_clust_8="13000.00000" pt_clust_9="47.05690" pt_clust_10="13000.00000"></scales>
<clustering>
<clus scale="   47.057">  1  9  2 -1</clus>
<clus scale="   79.951">  5  6 -1 -1</clus>
<clus scale="   98.644">  7  8 -1 -1</clus>
<clus scale="  136.485">  2  5  1 -1</clus>
<clus scale="  223.906">  7 10 -1 -1</clus>
<clus scale="   47.057">  1  5  2 -1</clus>
</clustering>
</event>
<event>
10    4  0.2866397E-005  0.1866371E+03  0.7546771E-02  0.1176649E+00
         21   -1    0    0  501  502  0.00000000000E+00  0.00000000000E+00  0.31212029954E+02  0.31212029954E+02  0.00000000000E+00 0.  1.
          2   -1    0    0  503    0 -0.00000000000E+00 -0.00000000000E+00 -0.14469270664E+04  0.14469270664E+04  0.00000000000E+00 0. -1.
         24    2    1    2    0    0  0.28894306458E+01 -0.99498664695E+02 -0.49897988231E+03  0.51483246049E+03  0.78506091113E+02 0.  0.
         23    2    1    2    0    0 -0.42393107616E+02  0.11805546435E+03 -0.46905752689E+03  0.49385995670E+03  0.90268627257E+02 0.  0.
        -13    1    3    3    0    0  0.21504706341E+02 -0.76095031786E+02 -0.21145699445E+03  0.22575864715E+03  0.00000000000E+00 0.  1.
         14    1    3    3    0    0 -0.18615275695E+02 -0.23403632908E+02 -0.28752288785E+03  0.28907381334E+03  0.00000000000E+00 0. -1.
        -11    1    4    4    0    0  0.26210995497E+02  0.31204996563E+02 -0.17450307575E+03  0.17919846970E+03  0.00000000000E+00 0.  1.
         11    1    4    4    0    0 -0.68604103114E+02  0.86850467791E+02 -0.29455445114E+03  0.31466148700E+03  0.00000000000E+00 0. -1.
         21    1    1    2  503  502  0.88583943729E+02 -0.43303545216E+01 -0.24979283091E+03  0.26507041598E+03  0.00000000000E+00 0.  1.
          1    1    1    2  501    0 -0.49080266759E+02 -0.14226445138E+02 -0.19788479632E+03  0.20437626315E+03  0.00000000000E+00 0. -1.
<scales pt_clust_5="13000.00000" pt_clust_6="13000.00000" pt_clust_7="13000.00000" pt_clust_8="13000.00000" pt_clust_9="88.68972" pt_clust_10="13000.00000"></scales>
<clustering>
<clus scale="   78.506">  5  6 -1 -1</clus>
<clus scale="   88.690">  1  9  2 -1</clus>
<clus scale="   90.269">  7  8 -1 -1</clus>
<clus scale="   39.750">  7 10 -1 -1</clus>
<clus scale="  131.995">  2  5  1 -1</clus>
<clus scale="   88.690">  1  5  2 -1</clus>
</clustering>
</event>
<event>
10    4  0.2866397E-005  0.1646280E+03  0.7546771E-02  0.1213756E+00
          2   -1    0    0  503    0 -0.00000000000E+00  0.00000000000E+00  0.80631427520E+03  0.80631427520E+03  0.00000000000E+00 0. -1.
         21   -1    0    0  501  502  0.00000000000E+00 -0.00000000000E+00 -0.40542520892E+02  0.40542520892E+02  0.00000000000E+00 0.  1.
         24    2    1    2    0    0 -0.34317670157E+02  0.43655663427E+02  0.83588423583E+02  0.12677949818E+03  0.77475784396E+02 0.  0.
         23    2    1    2    0    0  0.52482899250E+02 -0.13151383614E+01  0.58886730307E+03  0.59846828752E+03  0.92969921133E+02 0.  0.
        -13    1    3    3    0    0 -0.29533017394E+02  0.55179285653E+02  0.25859521751E+02  0.67717557154E+02  0.00000000000E+00 0.  1.
         14    1    3    3    0    0 -0.47846527622E+01 -0.11523622226E+02  0.57728901831E+02  0.59061941027E+02  0.00000000000E+00 0. -1.
        -13    1    4    4    0    0 -0.27107709076E+02  0.12321683100E+01  0.15118544324E+03  0.15360138143E+03  0.00000000000E+00 0.  1.
         13    1    4    4    0    0  0.79590608326E+02 -0.25473066714E+01  0.43768185983E+03  0.44486690609E+03  0.00000000000E+00 0. -1.
         21    1    1    2  503  502  0.17867040296E+02 -0.22525547265E+02  0.13371285315E+02  0.31708400771E+02  0.00000000000E+00 0.  1.
          1    1    1    2  501    0 -0.36032269389E+02 -0.19814977801E+02  0.79944742334E+02  0.89900609617E+02  0.00000000000E+00 0. -1.
<scales pt_clust_5="13000.00000" pt_clust_6="13000.00000" pt_clust_7="13000.00000" pt_clust_8="13000.00000" pt_clust_9="28.75120" pt_clust_10="13000.00000"></scales>
<clustering>
<clus scale="   28.751">  2  9  1 -1</clus>
<clus scale="   77.476">  5  6 -1 -1</clus>
<clus scale="   85.322">  1  5  2 -1</clus>
<clus scale="   92.970">  7  8 -1 -1</clus>
<clus scale="   41.074">  7 10 -1 -1</clus>
<clus scale="   28.751">  2  5  1 -1</clus>
</clustering>
</event>
<event>
10    4  0.2866397E-005  0.2194297E+03  0.7546771E-02  0.1176744E+00
         21   -1    0    0  501  502  0.00000000000E+00  0.00000000000E+00  0.11436997013E+03  0.11436997013E+03  0.00000000000E+00 0.  1.
          2   -1    0    0  503    0 -0.00000000000E+00 -0.00000000000E+00 -0.13370205530E+04  0.13370205530E+04  0.00000000000E+00 0. -1.
         24    2    1    2    0    0 -0.22724714323E+02 -0.36494837067E+02 -0.95476332587E+02  0.13200069110E+03  0.80375161536E+02 0.  0.
         23    2    1    2    0    0 -0.82039200851E+02  0.25058222536E+02 -0.60399572582E+03  0.61686002536E+03  0.91362514669E+02 0.  0.
        -11    1    3    3    0    0  0.16008134937E+02 -0.18147100839E+02  0.32088620472E+01  0.24410539704E+02  0.00000000000E+00 0.  1.
         12    1    3    3    0    0 -0.38732849260E+02 -0.18347736228E+02 -0.98685194635E+02  0.10759015139E+03  0.00000000000E+00 0. -1.
        -13    1    4    4    0    0  0.89999739698E+01  0.32448258527E+02 -0.14414595451E+03  0.14802683951E+03  0.00000000000E+00 0. -1.
         13    1    4    4    0    0 -0.91039174821E+02 -0.73900359909E+01 -0.45984977131E+03  0.46883318586E+03  0.00000000000E+00 0.  1.
         21    1    1    2  503  502  0.20897114872E+02  0.48745331991E+02  0.78033746567E+02  0.94350741408E+02  0.00000000000E+00 0.  1.
          1    1    1    2  501    0  0.83866800303E+02 -0.37308717460E+02 -0.60121227100E+03  0.60817906524E+03  0.00000000000E+00 0. -1.
<scales pt_clust_5="13000.00000" pt_clust_6="13000.00000" pt_clust_7="13000.00000" pt_clust_8="13000.00000" pt_clust_9="53.03581" pt_clust_10="13000.00000"></scales>
<clustering>
<clus scale="   53.036">  1  9  2 -1</clus>
<clus scale="   80.375">  5  6 -1 -1</clus>
<clus scale="   81.046">  2  5  1 -1</clus>
<clus scale="   91.363">  7  8 -1 -1</clus>
<clus scale="   88.551">  7 10 -1 -1</clus>
<clus scale="   53.036">  1  5  2 -1</clus>
</clustering>
</event>
<event>
10    4  0.2866397E-005  0.1922274E+03  0.7546771E-02  0.1193001E+00
          2   -1    0    0  502    0 -0.00000000000E+00  0.00000000000E+00  0.30067237623E+03  0.30067237623E+03  0.00000000000E+00 0. -1.
         21   -1    0    0  503  502  0.00000000000E+00 -0.00000000000E+00 -0.13296547932E+03  0.13296547932E+03  0.00000000000E+00 0.  1.
         24    2    1    2    0    0 -0.18460545050E+02 -0.16368934179E+02  0.13045336754E+03  0.15415781299E+03  0.78344217882E+02 0.  0.
         23    2    1    2    0    0  0.92729764812E+02  0.45471535551E+01  0.51701443187E+02  0.13976151727E+03  0.90778613087E+02 0.  0.
        -13    1    3    3    0    0  0.19547832760E+02  0.21095417478E+02  0.44611577404E+02  0.53078500757E+02  0.00000000000E+00 0.  1.
         14    1    3    3    0    0 -0.38008377810E+02 -0.37464351657E+02  0.85841790134E+02  0.10107931224E+03  0.00000000000E+00 0. -1.
        -11    1    4    4    0    0  0.52565993554E+02 -0.42459495461E+02  0.21206081256E+02  0.70821538499E+02  0.00000000000E+00 0.  1.
         11    1    4    4    0    0  0.40163771259E+02  0.47006649016E+02  0.30495361931E+02  0.68939978770E+02  0.00000000000E+00 0. -1.
         21    1    1    2  503  501 -0.19477746699E+02 -0.30086837260E+02 -0.50467128632E+02  0.61899365627E+02  0.00000000000E+00 0.  1.
          1    1    1    2  501    0 -0.54791473064E+02  0.41908617883E+02  0.36019214822E+02  0.77819159657E+02  0.00000000000E+00 0. -1.
<scales pt_clust_5="13000.00000" pt_clust_6="13000.00000" pt_clust_7="13000.00000" pt_clust_8="13000.00000" pt_clust_9="35.84132" pt_clust_10="13000.00000"></scales>
<clustering>
<clus scale="   35.841">  2  9  1 -1</clus>
<clus scale="   78.344">  5  6 -1 -1</clus>
<clus scale="   83.906">  1  5  2 -1</clus>
<clus scale="   90.779">  7  8 -1 -1</clus>
<clus scale="   73.166">  7 10 -1 -1</clus>
<clus scale="   35.841">  2  5  1 -1</clus>
</clustering>
</event>
<event>
10    4  0.2866397E-005  0.2111352E+03  0.7546771E-02  0.1178505E+00
         21   -1    0    0  503  502  0.00000000000E+00  0.00000000000E+00  0.17616728209E+03  0.17616728209E+03  0.00000000000E+00 0. -1.
         -1   -1    0    0    0  501 -0.00000000000E+00 -0.00000000000E+00 -0.25709002420E+03  0.25709002420E+03  0.00000000000E+00 0.  1.
         24    2    1    2    0    0 -0.15795747113E+02  0.26617540986E+02  0.63213165529E+02  0.10536110168E+03  0.78403178102E+02 0.  0.
         23    2    1    2    0    0  0.14935328453E+02  0.43364975047E+02 -0.19365058885E+02  0.10401279776E+03  0.91323991898E+02 0.  0.
        -13    1    3    3    0    0  0.14222109415E+02 -0.19481000714E+02  0.38451226019E+01  0.24424634139E+02  0.00000000000E+00 0.  1.
         14    1    3    3    0    0 -0.30017856528E+02  0.46098541700E+02  0.59368042927E+02  0.80936467543E+02  0.00000000000E+00 0. -1.
        -13    1    4    4    0    0 -0.36490125244E+02  0.98431680458E+01 -0.19710670468E+02  0.42625435221E+02  0.00000000000E+00 0. -1.
         13    1    4    4    0    0  0.51425453697E+02  0.33521807001E+02  0.34561158336E+00  0.61387362542E+02  0.00000000000E+00 0.  1.
         21    1    1    2  503  501 -0.26810401519E+02 -0.95317285932E+01  0.38339238270E+02  0.47744619285E+02  0.00000000000E+00 0. -1.
         -2    1    1    2    0  502  0.27670820180E+02 -0.60450787440E+02 -0.16311008703E+03  0.17613878756E+03  0.00000000000E+00 0.  1.
<scales pt_clust_5="13000.00000" pt_clust_6="13000.00000" pt_clust_7="13000.00000" pt_clust_8="13000.00000" pt_clust_9="28.45438" pt_clust_10="13000.00000"></scales>
<clustering>
<clus scale="   28.454">  1  9  2 -1</clus>
<clus scale="   78.403">  5  6 -1 -1</clus>
<clus scale="   87.433">  2  5  1 -1</clus>
<clus scale="   91.324">  7  8 -1 -1</clus>
<clus scale="   45.857">  7 10 -1 -1</clus>
<clus scale="   28.454">  1  5  2 -1</clus>
</clustering>
</event>
<event>
10    4  0.2866397E-005  0.1986402E+03  0.7546771E-02  0.1179969E+00
         21   -1    0    0  501  502  0.00000000000E+00  0.00000000000E+00  0.36134950534E+02  0.36134950534E+02  0.00000000000E+00 0. -1.
          2   -1    0    0  503    0 -0.00000000000E+00 -0.00000000000E+00 -0.14380667240E+04  0.14380667240E+04  0.00000000000E+00 0. -1.
         24    2    1    2    0    0 -0.50494199547E+01  0.59585119634E+02 -0.75327260019E+03  0.76009197709E+03  0.82123810829E+02 0.  0.
         23    2    1    2    0    0  0.63150129792E+02 -0.29520598027E+02 -0.41639019031E+03  0.43185663736E+03  0.90884322349E+02 0.  0.
        -11    1    3    3    0    0  0.26971472780E+02  0.20563110019E+02 -0.11690353633E+03  0.12172402657E+03  0.00000000000E+00 0.  1.
         12    1    3    3    0    0 -0.32020892735E+02  0.39022009615E+02 -0.63636906386E+03  0.63836795052E+03  0.00000000000E+00 0. -1.
        -11    1    4    4    0    0 -0.45923391590E+01 -0.32507322099E+02 -0.54152634629E+02  0.63327114306E+02  0.00000000000E+00 0.  1.
         11    1    4    4    0    0  0.67742468951E+02  0.29867240730E+01 -0.36223755568E+03  0.36852952306E+03  0.00000000000E+00 0. -1.
         21    1    1    2  503  502 -0.59517887817E+02 -0.85222146241E+02 -0.16789437212E+03  0.19746825914E+03  0.00000000000E+00 0. -1.
          1    1    1    2  501    0  0.14171779802E+01  0.55157624634E+02 -0.64374610837E+02  0.84784800932E+02  0.00000000000E+00 0. -1.
<scales pt_clust_5="13000.00000" pt_clust_6="13000.00000" pt_clust_7="13000.00000" pt_clust_8="13000.00000" pt_clust_9="92.19833" pt_clust_10="13000.00000"></scales>
<clustering>
<clus scale="   82.124">  5  6 -1 -1</clus>
<clus scale="   90.884">  7  8 -1 -1</clus>
<clus scale="   55.176">  7 10 -1 -1</clus>
<clus scale="  101.588">  2  5  1 -1</clus>
<clus scale="   92.198">  1  9  2 -1</clus>
<clus scale="   92.198">  1  5  2 -1</clus>
</clustering>
</event>
<event>
10    4  0.2866397E-005  0.2625443E+03  0.7546771E-02  0.1140451E+00
          2   -1    0    0  502    0 -0.00000000000E+00  0.00000000000E+00  0.84635600226E+03  0.84635600226E+03  0.00000000000E+00 0. -1.
         21   -1    0    0  503  502  0.00000000000E+00 -0.00000000000E+00 -0.83945928294E+02  0.83945928294E+02  0.00000000000E+00 0. -1.
         24    2    1    2    0    0 -0.61555814859E+02 -0.32520853140E+02  0.84348962072E+02  0.13642407056E+03  0.81547871784E+02 0.  0.
         23    2    1    2    0    0  0.69628963681E+02 -0.38751643173E+02  0.19741282835E+03  0.23445213997E+03  0.98214554446E+02 0.  0.
        -13    1    3    3    0    0 -0.22843206889E+01 -0.35915831174E+02  0.35559179770E+01  0.36163650294E+02  0.00000000000E+00 0.  1.
         14    1    3    3    0    0 -0.59271494170E+02  0.33949780343E+01  0.80793044095E+02  0.10026042026E+03  0.00000000000E+00 0. -1.
        -13    1    4    4    0    0  0.55934906396E+02  0.19865777165E+02  0.59840762099E+02  0.84286889042E+02  0.00000000000E+00 0. -1.
         13    1    4    4    0    0  0.13694057285E+02 -0.58617420337E+02  0.13757206625E+03  0.15016525092E+03  0.00000000000E+00 0.  1.
         21    1    1    2  503  501  0.12787137057E+02 -0.34076339449E+02 -0.23921179658E+02  0.43553767008E+02  0.00000000000E+00 0. -1.
          1    1    1    2  501    0 -0.20860285879E+02  0.10534883576E+03  0.50456946320E+03  0.51587195302E+03  0.00000000000E+00 0. -1.
<scales pt_clust_5="13000.00000" pt_clust_6="13000.00000" pt_clust_7="13000.00000" pt_clust_8="13000.00000" pt_clust_9="36.39654" pt_clust_10="13000.00000"></scales>
<clustering>
<clus scale="   36.397">  2  9  1 -1</clus>
<clus scale="   81.548">  5  6 -1 -1</clus>
<clus scale="   98.215">  7  8 -1 -1</clus>
<clus scale="  103.354">  7 10 -1 -1</clus>
<clus scale="  110.390">  1  5  2 -1</clus>
<clus scale="   36.397">  2  5  1 -1</clus>
</clustering>
</event>
<event>
10    4  0.2866397E-005  0.5471172E+03  0.7546771E-02  0.1041973E+00
         21   -1    0    0  503  502  0.00000000000E+00  0.00000000000E+00  0.36452230613E+03  0.36452230613E+03  0.00000000000E+00 0. -1.
          2   -1    0    0  502    0 -0.00000000000E+00 -0.00000000000E+00 -0.75842128988E+03  0.75842128988E+03  0.00000000000E+00 0. -1.
         24    2    1    2    0    0 -0.96785077015E+02 -0.10125088511E+03 -0.74649161692E+02  0.17825367780E+03  0.81134354246E+02 0.  0.
         23    2    1    2    0    0 -0.11268831061E+03 -0.99329190126E+02 -0.23767610884E+02  0.17751757385E+03  0.91556792977E+02 0.  0.
        -13    1    3    3    0    0 -0.11961710429E+02 -0.21955372704E+02  0.17078117400E+02  0.30278424677E+02  0.00000000000E+00 0.  1.
         14    1    3    3    0    0 -0.84823366586E+02 -0.79295512401E+02 -0.91727279093E+02  0.14797525312E+03  0.00000000000E+00 0. -1.
        -13    1    4    4    0    0 -0.76895821093E+02 -0.74569328918E+01 -0.80573821312E+01  0.77675572457E+02  0.00000000000E+00 0.  1.
         13    1    4    4    0    0 -0.35792489515E+02 -0.91872257234E+02 -0.15710228753E+02  0.99842001395E+02  0.00000000000E+00 0. -1.
         21    1    1    2  503  501 -0.49729096512E+02  0.38070036932E+02  0.18625396387E+03  0.19650152622E+03  0.00000000000E+00 0. -1.
          1    1    1    2  501    0  0.25920248414E+03  0.16251003830E+03 -0.48173617505E+03  0.57067081814E+03  0.00000000000E+00 0. -1.
<scales pt_clust_5="13000.00000" pt_clust_6="13000.00000" pt_clust_7="13000.00000" pt_clust_8="13000.00000" pt_clust_9="62.62835" pt_clust_10="13000.00000"></scales>
<clustering>
<clus scale="   62.628">  1  9  2 -1</clus>
<clus scale="   81.134">  5  6 -1 -1</clus>
<clus scale="   91.557">  7  8 -1 -1</clus>
<clus scale="  164.701">  2  5  1 -1</clus>
<clus scale="  184.082">  7 10 -1 -1</clus>
<clus scale="   62.628">  1  5  2 -1</clus>
</clustering>
</event>
<event>
10    4  0.2866397E-005  0.5083611E+03  0.7546771E-02  0.1074326E+00
         21   -1    0    0  501  502  0.00000000000E+00  0.00000000000E+00  0.68519273046E+02  0.68519273046E+02  0.00000000000E+00 0.  1.
          2   -1    0    0  503    0 -0.00000000000E+00 -0.00000000000E+00 -0.17999357336E+04  0.17999357336E+04  0.00000000000E+00 0. -1.
         24    2    1    2    0    0 -0.95238012534E+01 -0.17373046328E+00 -0.80326599840E+02  0.11269165486E+03  0.78462178539E+02 0.  0.
         23    2    1    2    0    0  0.12182317419E+03  0.18259327153E+03 -0.82752734301E+03  0.86105304599E+03  0.91813158054E+02 0.  0.
        -13    1    3    3    0    0  0.32670327602E+02 -0.65262983004E+01 -0.50993333587E+02  0.60911927776E+02  0.00000000000E+00 0.  1.
         14    1    3    3    0    0 -0.42194128856E+02  0.63525678371E+01 -0.29333266253E+02  0.51779727086E+02  0.00000000000E+00 0. -1.
        -11    1    4    4    0    0  0.72120249252E+02  0.17151326252E+03 -0.61623299658E+03  0.64370896812E+03  0.00000000000E+00 0.  1.
         11    1    4    4    0    0  0.49702924934E+02  0.11080009014E+02 -0.21129434644E+03  0.21734407786E+03  0.00000000000E+00 0. -1.
         21    1    1    2  503  502 -0.27507176509E+02  0.73695794693E+02 -0.15650381833E+03  0.17516038384E+03  0.00000000000E+00 0. -1.
          1    1    1    2  501    0 -0.84792196425E+02 -0.25611533576E+03 -0.66705869941E+03  0.71954992200E+03  0.00000000000E+00 0. -1.
<scales pt_clust_5="13000.00000" pt_clust_6="13000.00000" pt_clust_7="13000.00000" pt_clust_8="13000.00000" pt_clust_9="78.66203" pt_clust_10="13000.00000"></scales>
<clustering>
<clus scale="   78.462">  5  6 -1 -1</clus>
<clus scale="   78.662">  1  9  2 -1</clus>
<clus scale="   82.739">  2  5  1 -1</clus>
<clus scale="   91.813">  7  8 -1 -1</clus>
<clus scale="  239.210">  7 10 -1 -1</clus>
<clus scale="   78.662">  1  5  2 -1</clus>
</clustering>
</event>
<event>
10    4  0.2866397E-005  0.3206469E+03  0.7546771E-02  0.1100640E+00
         21   -1    0    0  503  502  0.00000000000E+00  0.00000000000E+00  0.10181054310E+03  0.10181054310E+03  0.00000000000E+00 0. -1.
          2   -1    0    0  502    0 -0.00000000000E+00 -0.00000000000E+00 -0.88698852967E+03  0.88698852967E+03  0.00000000000E+00 0. -1.
         24    2    1    2    0    0 -0.29354862792E+02  0.14990232697E+03 -0.43629672150E+03  0.46869484916E+03  0.77379692682E+02 0.  0.
         23    2    1    2    0    0 -0.28394062582E+02  0.49169967092E+02 -0.25367815226E+03  0.27540634516E+03  0.90951314249E+02 0.  0.
        -11    1    3    3    0    0  0.23195864898E+02  0.31876294744E+02 -0.70799414427E+02  0.81035198514E+02  0.00000000000E+00 0.  1.
         12    1    3    3    0    0 -0.52550727689E+02  0.11802603222E+03 -0.36549730707E+03  0.38765965065E+03  0.00000000000E+00 0. -1.
        -13    1    4    4    0    0 -0.35122754721E+02 -0.94294313921E+00 -0.19414582334E+03  0.19729951283E+03  0.00000000000E+00 0.  1.
         13    1    4    4    0    0  0.67286921387E+01  0.50112910231E+02 -0.59532328920E+02  0.78106832329E+02  0.00000000000E+00 0. -1.
         21    1    1    2  503  501  0.16500089191E+02 -0.34670990831E+02  0.16405809490E+02  0.41755013274E+02  0.00000000000E+00 0. -1.
          1    1    1    2  501    0  0.41248836182E+02 -0.16440130323E+03 -0.11160892229E+03  0.20294286518E+03  0.00000000000E+00 0. -1.
<scales pt_clust_5="13000.00000" pt_clust_6="13000.00000" pt_clust_7="13000.00000" pt_clust_8="13000.00000" pt_clust_9="38.39701" pt_clust_10="13000.00000"></scales>
<clustering>
<clus scale="   38.397">  1  9  2 -1</clus>
<clus scale="   77.380">  5  6 -1 -1</clus>
<clus scale="   90.951">  7  8 -1 -1</clus>
<clus scale="  163.897">  2  5  1 -1</clus>
<clus scale="  128.639">  7 10 -1 -1</clus>
<clus scale="   38.397">  1  5  2 -1</clus>
</clustering>
</event>
<event>
10    4  0.2866397E-005  0.5706996E+03  0.7546771E-02  0.1046223E+00
         21   -1    0    0  501  502  0.00000000000E+00  0.00000000000E+00  0.58094623370E+03  0.58094623370E+03  0.00000000000E+00 0.  1.
          2   -1    0    0  503    0 -0.00000000000E+00 -0.00000000000E+00 -0.37628462519E+03  0.37628462519E+03  0.00000000000E+00 0. -1.
         24    2    1    2    0    0  0.69817844295E+02  0.63471263910E+02 -0.17731522458E+03  0.21832612653E+03  0.85571466826E+02 0.  0.
         23    2    1    2    0    0  0.17767473048E+03 -0.15928922353E+03  0.21600519454E+03  0.34540213717E+03  0.12531171417E+03 0.  0.
        -13    1    3    3    0    0  0.14687299268E+02 -0.20426308534E+02 -0.51931161825E+02  0.57704388123E+02  0.00000000000E+00 0.  1.
         14    1    3    3    0    0  0.55130545028E+02  0.83897572444E+02 -0.12538406275E+03  0.16062173841E+03  0.00000000000E+00 0. -1.
        -13    1    4    4    0    0  0.13283114464E+03 -0.16484890933E+03  0.21268989761E+03  0.30009376608E+03  0.00000000000E+00 0.  1.
         13    1    4    4    0    0  0.44843585843E+02  0.55596857986E+01  0.33152969324E+01  0.45308371093E+02  0.00000000000E+00 0. -1.
         21    1    1    2  503  502  0.33154298624E+02  0.11184426646E+02  0.81110148189E+02  0.88335468844E+02  0.00000000000E+00 0. -1.
          1    1    1    2  501    0 -0.28064687340E+03  0.84633532977E+02  0.84861490363E+02  0.30516712634E+03  0.00000000000E+00 0. -1.
<scales pt_clust_5="13000.00000" pt_clust_6="13000.00000" pt_clust_7="13000.00000" pt_clust_8="13000.00000" pt_clust_9="34.98998" pt_clust_10="13000.00000"></scales>
<clustering>
<clus scale="   34.990">  1  9  2 -1</clus>
<clus scale="   85.571">  5  6 -1 -1</clus>
<clus scale="  125.312">  7  8 -1 -1</clus>
<clus scale="  128.365">  2  5  1 -1</clus>
<clus scale="  258.771">  7 10 -1 -1</clus>
<clus scale="   34.990">  1  5  2 -1</clus>
</clustering>
</event>
<event>
10    4  0.2866397E-005  0.1761261E+03  0.7546771E-02  0.1191046E+00
          2   -1    0    0  502    0 -0.00000000000E+00  0.00000000000E+00  0.19660551131E+03  0.19660551131E+03  0.00000000000E+00 0. -1.
         21   -1    0    0  503  502  0.00000000000E+00 -0.00000000000E+00 -0.26553597040E+03  0.26553597040E+03  0.00000000000E+00 0.  1.
         24    2    1    2    0    0  0.87252482074E+02  0.34198898776E+02 -0.12682557918E+02  0.12393378932E+03  0.80101039651E+02 0.  0.
         23    2    1    2    0    0  0.90659917399E+01 -0.93702542463E+01  0.68811784944E+02  0.11549284684E+03  0.91834318487E+02 0.  0.
        -11    1    3    3    0    0  0.82050257794E+02  0.39777447825E+02 -0.37032588636E+02  0.98416984208E+02  0.00000000000E+00 0.  1.
         12    1    3    3    0    0  0.52022242800E+01 -0.55785490491E+01  0.24350030717E+02  0.25516805107E+02  0.00000000000E+00 0. -1.
        -13    1    4    4    0    0 -0.41015297821E+02  0.22546558615E+01  0.26246257056E+02  0.48746324353E+02  0.00000000000E+00 0.  1.
         13    1    4    4    0    0  0.50081289561E+02 -0.11624910108E+02  0.42565527888E+02  0.66746522483E+02  0.00000000000E+00 0. -1.
         21    1    1    2  503  501 -0.28668604137E+02  0.79010196085E+01 -0.14249708808E+03  0.14556694365E+03  0.00000000000E+00 0.  1.
          1    1    1    2  501    0 -0.67649869677E+02 -0.32729664138E+02  0.17437401963E+02  0.77147901910E+02  0.00000000000E+00 0. -1.
<scales pt_clust_5="13000.00000" pt_clust_6="13000.00000" pt_clust_7="13000.00000" pt_clust_8="13000.00000" pt_clust_9="29.73743" pt_clust_10="13000.00000"></scales>
<clustering>
<clus scale="   29.737">  2  9  1 -1</clus>
<clus scale="   80.101">  5  6 -1 -1</clus>
<clus scale="   91.834">  7  8 -1 -1</clus>
<clus scale="   80.791">  7 10 -1 -1</clus>
<clus scale="  113.884">  1  5  2 -1</clus>
<clus scale="   29.737">  2  5  1 -1</clus>
</clustering>
</event>
<event>
10    4  0.2866397E-005  0.1252701E+03  0.7546771E-02  0.1255753E+00
         21   -1    0    0  501  502  0.00000000000E+00  0.00000000000E+00  0.33261846098E+03  0.33261846098E+03  0.00000000000E+00 0.  1.
          2   -1    0    0  503    0 -0.00000000000E+00 -0.00000000000E+00 -0.24298089721E+03  0.24298089721E+03  0.00000000000E+00 0. -1.
         24    2    1    2    0    0 -0.27635212546E+02 -0.14169575747E+02  0.79893794938E+02  0.11736165636E+03  0.80163944914E+02 0.  0.
         23    2    1    2    0    0 -0.29682399028E+02 -0.61073178829E+01 -0.12183829352E+03  0.15493408644E+03  0.90783573568E+02 0.  0.
        -11    1    3    3    0    0 -0.35382264449E+02 -0.41674158587E+02  0.65655939440E+02  0.85436189728E+02  0.00000000000E+00 0.  1.
         12    1    3    3    0    0  0.77470519034E+01  0.27504582840E+02  0.14237855498E+02  0.31925466630E+02  0.00000000000E+00 0. -1.
        -13    1    4    4    0    0  0.23374533736E+02  0.17146189882E+02 -0.75101978791E+02  0.80502595443E+02  0.00000000000E+00 0.  1.
         13    1    4    4    0    0 -0.53056932764E+02 -0.23253507765E+02 -0.46736314732E+02  0.74431491000E+02  0.00000000000E+00 0. -1.
         21    1    1    2  503  502  0.40131904728E+02  0.35168819877E+02  0.21257951819E+03  0.21917451317E+03  0.00000000000E+00 0.  1.
          1    1    1    2  501    0  0.17185706845E+02 -0.14891926247E+02 -0.80997455844E+02  0.84129102220E+02  0.00000000000E+00 0. -1.
<scales pt_clust_5="13000.00000" pt_clust_6="13000.00000" pt_clust_7="13000.00000" pt_clust_8="13000.00000" pt_clust_9="53.36118" pt_clust_10="13000.00000"></scales>
<clustering>
<clus scale="   53.361">  1  9  2 -1</clus>
<clus scale="   80.164">  5  6 -1 -1</clus>
<clus scale="   81.897">  2  5  1 -1</clus>
<clus scale="   90.784">  7  8 -1 -1</clus>
<clus scale="   21.834">  7 10 -1 -1</clus>
<clus scale="   53.361">  1  5  2 -1</clus>
</clustering>
</event>
<event>
10    4  0.3521374E-005  0.3164588E+03  0.7546771E-02  0.1122476E+00
         21   -1    0    0  503  502  0.00000000000E+00  0.00000000000E+00  0.38377463289E+03  0.38377463289E+03  0.00000000000E+00 0. -1.
          2   -1    0    0  502    0 -0.00000000000E+00 -0.00000000000E+00 -0.93298344529E+03  0.93298344529E+03  0.00000000000E+00 0. -1.
         24    2    1    2    0    0  0.85447889250E+01 -0.51111407957E+02 -0.11881355998E+02  0.98625295086E+02  0.83068602789E+02 0.  0.
         23    2    1    2    0    0 -0.39376893427E+02 -0.97023254960E+02 -0.26268237101E+03  0.29730488697E+03  0.91782983376E+02 0.  0.
        -13    1    3    3    0    0 -0.20065401005E+02  0.95101176106E+01  0.14573437307E+02  0.26560265989E+02  0.00000000000E+00 0.  1.
         14    1    3    3    0    0  0.28610189930E+02 -0.60621525567E+02 -0.26454793305E+02  0.72065029097E+02  0.00000000000E+00 0. -1.
        -13    1    4    4    0    0 -0.21004692949E+02  0.11220426043E+02 -0.20593837077E+02  0.31483348171E+02  0.00000000000E+00 0. -1.
         13    1    4    4    0    0 -0.18372200478E+02 -0.10824368100E+03 -0.24208853394E+03  0.26582153880E+03  0.00000000000E+00 0.  1.
         21    1    1    2  503  501  0.17978599481E+03  0.15024462598E+03  0.26923882491E+03  0.35691174876E+03  0.00000000000E+00 0. -1.
          1    1    1    2  501    0 -0.14895389031E+03 -0.21099630585E+01 -0.54388391029E+03  0.56391614736E+03  0.00000000000E+00 0. -1.
<scales pt_clust_5="13000.00000" pt_clust_6="13000.00000" pt_clust_7="13000.00000" pt_clust_8="13000.00000" pt_clust_9="233.00118" pt_clust_10="13000.00000"></scales>
<clustering>
<clus scale="   83.069">  5  6 -1 -1</clus>
<clus scale="   91.783">  7  8 -1 -1</clus>
<clus scale="   97.907">  2  5  1 -1</clus>
<clus scale="  147.617">  7 10 -1 -1</clus>
<clus scale="  233.001">  1  9  2 -1</clus>
<clus scale="  233.001">  1  5  2 -1</clus>
</clustering>
</event>
<event>
10    4  0.2866397E-005  0.2259823E+03  0.7546771E-02  0.1155837E+00
         21   -1    0    0  503  502  0.00000000000E+00  0.00000000000E+00  0.95727395237E+02  0.95727395237E+02  0.00000000000E+00 0.  1.
          2   -1    0    0  502    0 -0.00000000000E+00 -0.00000000000E+00 -0.67164333132E+03  0.67164333132E+03  0.00000000000E+00 0. -1.
         24    2    1    2    0    0 -0.58957524288E+02 -0.40064533506E+02  0.22021981242E+02  0.11000788630E+03  0.80843125102E+02 0.  0.
         23    2    1    2    0    0 -0.37744608039E+02  0.17253645964E+02 -0.18710717158E+03  0.21296204475E+03  0.92851468019E+02 0.  0.
        -13    1    3    3    0    0 -0.95609487319E+01 -0.28851308356E+02  0.45067184765E+02  0.54358632039E+02  0.00000000000E+00 0.  1.
         14    1    3    3    0    0 -0.49396575556E+02 -0.11213225150E+02 -0.23045203523E+02  0.55649254266E+02  0.00000000000E+00 0. -1.
        -11    1    4    4    0    0  0.23789446989E+02 -0.17799501346E+02 -0.41415613120E+02  0.50970707728E+02  0.00000000000E+00 0.  1.
         11    1    4    4    0    0 -0.61534055027E+02  0.35053147310E+02 -0.14569155846E+03  0.16199133702E+03  0.00000000000E+00 0. -1.
         21    1    1    2  503  501 -0.12128068377E+02 -0.22367715000E+02 -0.11272846558E+02  0.27829512866E+02  0.00000000000E+00 0.  1.
          1    1    1    2  501    0  0.10883020070E+03  0.45178602541E+02 -0.39955789919E+03  0.41657128264E+03  0.00000000000E+00 0. -1.
<scales pt_clust_5="13000.00000" pt_clust_6="13000.00000" pt_clust_7="13000.00000" pt_clust_8="13000.00000" pt_clust_9="25.44415" pt_clust_10="13000.00000"></scales>
<clustering>
<clus scale="   25.444">  1  9  2 -1</clus>
<clus scale="   80.843">  5  6 -1 -1</clus>
<clus scale="   92.851">  7  8 -1 -1</clus>
<clus scale="  115.922">  7 10 -1 -1</clus>
<clus scale="  120.076">  2  5  1 -1</clus>
<clus scale="   25.444">  1  5  2 -1</clus>
</clustering>
</event>
<event>
10    4  0.2866397E-005  0.4747544E+03  0.7546771E-02  0.1065800E+00
          2   -1    0    0  503    0 -0.00000000000E+00  0.00000000000E+00  0.96396865186E+03  0.96396865186E+03  0.00000000000E+00 0. -1.
         21   -1    0    0  501  502  0.00000000000E+00 -0.00000000000E+00 -0.13690152502E+03  0.13690152502E+03  0.00000000000E+00 0. -1.
         24    2    1    2    0    0  0.87563141209E+02 -0.58276215060E+02  0.17461218163E+03  0.21950400204E+03  0.81419727329E+02 0.  0.
         23    2    1    2    0    0 -0.25334540205E+03  0.76051739787E+02  0.43827519818E+03  0.51995333152E+03  0.91096420078E+02 0.  0.
        -13    1    3    3    0    0  0.30883211632E+02 -0.63647470582E+02  0.12661308072E+03  0.14503670391E+03  0.00000000000E+00 0.  1.
         14    1    3    3    0    0  0.56679929578E+02  0.53712555218E+01  0.47999100919E+02  0.74467298138E+02  0.00000000000E+00 0. -1.
        -11    1    4    4    0    0 -0.35691051423E+02  0.91190663114E+01  0.13957003077E+03  0.14434958265E+03  0.00000000000E+00 0.  1.
         11    1    4    4    0    0 -0.21765435063E+03  0.66932673476E+02  0.29870516741E+03  0.37560374887E+03  0.00000000000E+00 0. -1.
         21    1    1    2  503  502 -0.22126571307E+02  0.12173891051E+02 -0.37921969472E+02  0.45561656574E+02  0.00000000000E+00 0. -1.
          1    1    1    2  501    0  0.18790883215E+03 -0.29949415778E+02  0.25210171650E+03  0.31585118674E+03  0.00000000000E+00 0. -1.
<scales pt_clust_5="13000.00000" pt_clust_6="13000.00000" pt_clust_7="13000.00000" pt_clust_8="13000.00000" pt_clust_9="25.25448" pt_clust_10="13000.00000"></scales>
<clustering>
<clus scale="   25.254">  2  9  1 -1</clus>
<clus scale="   81.420">  5  6 -1 -1</clus>
<clus scale="   91.096">  7  8 -1 -1</clus>
<clus scale="  128.372">  1  5  2 -1</clus>
<clus scale="  213.050">  7 10 -1 -1</clus>
<clus scale="   25.254">  2  5  1 -1</clus>
</clustering>
</event>
<event>
10    4  0.2866397E-005  0.4330391E+03  0.7546771E-02  0.1077127E+00
          4   -1    0    0  503    0 -0.00000000000E+00  0.00000000000E+00  0.68939203999E+03  0.68939203999E+03  0.00000000000E+00 0. -1.
         21   -1    0    0  501  502  0.00000000000E+00 -0.00000000000E+00 -0.13123800493E+03  0.13123800493E+03  0.00000000000E+00 0. -1.
         24    2    1    2    0    0  0.59344235371E+02  0.66490682597E+02  0.11581621625E+03  0.16679772886E+03  0.80407320955E+02 0.  0.
         23    2    1    2    0    0 -0.14357849388E+02  0.45877854518E+01 -0.57211276329E+02  0.10943186260E+03  0.92059800124E+02 0.  0.
        -11    1    3    3    0    0  0.26473221036E+02 -0.14298827909E+02  0.46510935834E+02  0.55394540017E+02  0.00000000000E+00 0.  1.
         12    1    3    3    0    0  0.32871014334E+02  0.80789510506E+02  0.69305280412E+02  0.11140318884E+03  0.00000000000E+00 0. -1.
        -13    1    4    4    0    0 -0.75778258171E+01  0.42700485827E+02 -0.55831907224E+02  0.70696229024E+02  0.00000000000E+00 0. -1.
         13    1    4    4    0    0 -0.67800235705E+01 -0.38112700375E+02 -0.13793691049E+01  0.38735633578E+02  0.00000000000E+00 0.  1.
         21    1    1    2  503  502  0.51012345545E+01  0.27391457422E+02 -0.46430059115E+01  0.28246628782E+02  0.00000000000E+00 0.  1.
          3    1    1    2  501    0 -0.50087620537E+02 -0.98469925471E+02  0.50419210106E+03  0.51615382468E+03  0.00000000000E+00 0. -1.
<scales pt_clust_5="13000.00000" pt_clust_6="13000.00000" pt_clust_7="13000.00000" pt_clust_8="13000.00000" pt_clust_9="27.86242" pt_clust_10="13000.00000"></scales>
<clustering>
<clus scale="   27.862">  2  9  1 -1</clus>
<clus scale="   80.407">  5  6 -1 -1</clus>
<clus scale="   92.060">  7  8 -1 -1</clus>
<clus scale="  109.085">  7 10 -1 -1</clus>
<clus scale="  124.055">  1  5  2 -1</clus>
<clus scale="   27.862">  2  5  1 -1</clus>
</clustering>
</event>
<event>
10    4  0.2866397E-005  0.1588417E+03  0.7546771E-02  0.1218820E+00
         -1   -1    0    0    0  501 -0.00000000000E+00  0.00000000000E+00  0.69229284402E+03  0.69229284402E+03  0.00000000000E+00 0.  1.
         21   -1    0    0  501  502  0.00000000000E+00 -0.00000000000E+00 -0.40031811996E+02  0.40031811996E+02  0.00000000000E+00 0. -1.
         24    2    1    2    0    0 -0.13233061155E+02  0.31062308611E+02  0.33594422054E+03  0.34731332024E+03  0.81412788816E+02 0.  0.
         23    2    1    2    0    0 -0.10978418977E+02  0.49895719420E+02  0.19468040635E+03  0.22017579510E+03  0.89256997647E+02 0.  0.
        -11    1    3    3    0    0  0.30467046981E+02  0.25634728043E+02  0.10690301140E+03  0.11407731623E+03  0.00000000000E+00 0.  1.
         12    1    3    3    0    0 -0.43700108136E+02  0.54275805682E+01  0.22904120914E+03  0.23323600401E+03  0.00000000000E+00 0. -1.
        -11    1    4    4    0    0  0.30961368088E+02  0.66282549689E+01  0.12057658935E+03  0.12466456584E+03  0.00000000000E+00 0.  1.
         11    1    4    4    0    0 -0.41939787065E+02  0.43267464451E+02  0.74103817009E+02  0.95511229258E+02  0.00000000000E+00 0. -1.
         21    1    1    2  503  502  0.37773472076E+02 -0.26824995240E+02  0.23517259133E+02  0.51956491793E+02  0.00000000000E+00 0. -1.
         -2    1    1    2    0  503 -0.13561991943E+02 -0.54133032791E+02  0.98119145995E+02  0.11287904888E+03  0.00000000000E+00 0.  1.
<scales pt_clust_5="13000.00000" pt_clust_6="13000.00000" pt_clust_7="13000.00000" pt_clust_8="13000.00000" pt_clust_9="46.32942" pt_clust_10="13000.00000"></scales>
<clustering>
<clus scale="   46.329">  2  9  1 -1</clus>
<clus scale="   81.413">  5  6 -1 -1</clus>
<clus scale="   85.352">  1  5  2 -1</clus>
<clus scale="   89.257">  7  8 -1 -1</clus>
<clus scale="   52.044">  7 10 -1 -1</clus>
<clus scale="   46.329">  2  5  1 -1</clus>
</clustering>
</event>
<event>
10    4  0.2866397E-005  0.2497238E+03  0.7546771E-02  0.1153746E+00
         21   -1    0    0  501  502  0.00000000000E+00  0.00000000000E+00  0.30827043239E+02  0.30827043239E+02  0.00000000000E+00 0. -1.
          2   -1    0    0  503    0 -0.00000000000E+00 -0.00000000000E+00 -0.14408531127E+04  0.14408531127E+04  0.00000000000E+00 0. -1.
         24    2    1    2    0    0  0.42057676582E+02  0.14735564008E+02 -0.55113636320E+03  0.55847165507E+03  0.78443060107E+02 0.  0.
         23    2    1    2    0    0 -0.14290615254E+03 -0.51394374800E+02 -0.40770479914E+03  0.44369843534E+03  0.87072085552E+02 0.  0.
        -13    1    3    3    0    0 -0.13324535228E+01  0.35549557157E+02 -0.13679840444E+03  0.14134832827E+03  0.00000000000E+00 0.  1.
         14    1    3    3    0    0  0.43390130105E+02 -0.20813993150E+02 -0.41433795876E+03  0.41712332681E+03  0.00000000000E+00 0. -1.
        -11    1    4    4    0    0 -0.58332111762E+02 -0.67224385682E+02 -0.20972052003E+03  0.22782548104E+03  0.00000000000E+00 0.  1.
         11    1    4    4    0    0 -0.84574040782E+02  0.15830010882E+02 -0.19798427911E+03  0.21587295429E+03  0.00000000000E+00 0. -1.
         21    1    1    2  503  502  0.45579540995E+02 -0.38698136416E+01 -0.80909878017E+02  0.92945566735E+02  0.00000000000E+00 0.  1.
          1    1    1    2  501    0  0.55268934967E+02  0.40528624434E+02 -0.37027502910E+03  0.37656449878E+03  0.00000000000E+00 0. -1.
<scales pt_clust_5="13000.00000" pt_clust_6="13000.00000" pt_clust_7="13000.00000" pt_clust_8="13000.00000" pt_clust_9="45.74352" pt_clust_10="13000.00000"></scales>
<clustering>
<clus scale="   45.744">  1  9  2 -1</clus>
<clus scale="   78.443">  5  6 -1 -1</clus>
<clus scale="   87.072">  7  8 -1 -1</clus>
<clus scale="   73.005">  7 10 -1 -1</clus>
<clus scale="   93.461">  2  5  1 -1</clus>
<clus scale="   45.744">  1  5  2 -1</clus>
</clustering>
</event>
<event>
10    4  0.2866397E-005  0.2052516E+03  0.7546771E-02  0.1154536E+00
          4   -1    0    0  502    0 -0.00000000000E+00  0.00000000000E+00  0.84226432864E+03  0.84226432864E+03  0.00000000000E+00 0. -1.
         21   -1    0    0  503  502  0.00000000000E+00 -0.00000000000E+00 -0.38969478993E+03  0.38969478993E+03  0.00000000000E+00 0. -1.
         24    2    1    2    0    0  0.33495027041E+02 -0.13447277824E+03  0.68201221368E+03  0.70079581382E+03  0.82275562200E+02 0.  0.
         23    2    1    2    0    0  0.55812526656E+02  0.13134457986E+03 -0.11068727590E+02  0.16952662459E+03  0.90831288243E+02 0.  0.
        -11    1    3    3    0    0  0.24947560216E+02 -0.55774320226E+00  0.72084029366E+02  0.76281053532E+02  0.00000000000E+00 0.  1.
         12    1    3    3    0    0  0.85474668249E+01 -0.13391503504E+03  0.60992818432E+03  0.62451476029E+03  0.00000000000E+00 0. -1.
        -11    1    4    4    0    0  0.58252996619E+02  0.10373524381E+03 -0.43671510245E+02  0.12673442007E+03  0.00000000000E+00 0. -1.
         11    1    4    4    0    0 -0.24404699632E+01  0.27609336047E+02  0.32602782655E+02  0.42792204517E+02  0.00000000000E+00 0.  1.
         21    1    1    2  503  501 -0.90275753330E+02 -0.12510111459E+03 -0.15465620399E+03  0.21844574141E+03  0.00000000000E+00 0. -1.
          3    1    1    2  501    0  0.96819963336E+00  0.12822931297E+03 -0.63717743398E+02  0.14319093874E+03  0.00000000000E+00 0. -1.
<scales pt_clust_5="13000.00000" pt_clust_6="13000.00000" pt_clust_7="13000.00000" pt_clust_8="13000.00000" pt_clust_9="154.27249" pt_clust_10="13000.00000"></scales>
<clustering>
<clus scale="   82.276">  5  6 -1 -1</clus>
<clus scale="   90.831">  7  8 -1 -1</clus>
<clus scale="  128.233">  7 10 -1 -1</clus>
<clus scale="  154.272">  2  9  1 -1</clus>
<clus scale="  165.230">  1  5  2 -1</clus>
<clus scale="  154.272">  2  5  1 -1</clus>
</clustering>
</event>
<event>
10    4  0.2866397E-005  0.1986741E+03  0.7546771E-02  0.1192710E+00
         21   -1    0    0  503  502  0.00000000000E+00  0.00000000000E+00  0.74958384012E+02  0.74958384012E+02  0.00000000000E+00 0.  1.
         -1   -1    0    0    0  501 -0.00000000000E+00 -0.00000000000E+00 -0.44127202405E+03  0.44127202405E+03  0.00000000000E+00 0.  1.
         24    2    1    2    0    0  0.62695991756E+01  0.20124107435E+02 -0.23118463963E+03  0.24346975931E+03  0.73395493870E+02 0.  0.
         23    2    1    2    0    0  0.64152244951E+02 -0.13899716642E+02 -0.22682712714E+02  0.11399587613E+03  0.90398239279E+02 0.  0.
        -11    1    3    3    0    0  0.33439156944E+02  0.19140444688E+02 -0.19167853384E+03  0.19551264454E+03  0.00000000000E+00 0.  1.
         12    1    3    3    0    0 -0.27169557769E+02  0.98366274716E+00 -0.39506105792E+02  0.47957114765E+02  0.00000000000E+00 0. -1.
        -13    1    4    4    0    0  0.82498806223E+02  0.82884329855E+01 -0.16120542605E+02  0.84466697837E+02  0.00000000000E+00 0.  1.
         13    1    4    4    0    0 -0.18346561272E+02 -0.22188149628E+02 -0.65621701089E+01  0.29529178298E+02  0.00000000000E+00 0. -1.
         21    1    1    2  503  501 -0.20672761210E+02  0.95161846343E+01  0.10604745375E+02  0.25107398322E+02  0.00000000000E+00 0.  1.
         -2    1    1    2    0  502 -0.49749082917E+02 -0.15740575427E+02 -0.12305103307E+03  0.13365737430E+03  0.00000000000E+00 0.  1.
<scales pt_clust_5="13000.00000" pt_clust_6="13000.00000" pt_clust_7="13000.00000" pt_clust_8="13000.00000" pt_clust_9="22.75787" pt_clust_10="13000.00000"></scales>
<clustering>
<clus scale="   22.758">  1  9  2 -1</clus>
<clus scale="   73.395">  5  6 -1 -1</clus>
<clus scale="   76.489">  2  5  1 -1</clus>
<clus scale="   90.398">  7  8 -1 -1</clus>
<clus scale="   48.929">  7 10 -1 -1</clus>
<clus scale="   22.758">  1  5  2 -1</clus>
</clustering>
</event>
<event>
10    4  0.2866397E-005  0.1945001E+03  0.7546771E-02  0.1177571E+00
          4   -1    0    0  502    0 -0.00000000000E+00  0.00000000000E+00  0.86119399900E+03  0.86119399900E+03  0.00000000000E+00 0. -1.
         21   -1    0    0  503  502  0.00000000000E+00 -0.00000000000E+00 -0.53837705298E+02  0.53837705298E+02  0.00000000000E+00 0. -1.
         24    2    1    2    0    0 -0.44836687022E+02  0.32997147271E+02  0.51691370793E+03  0.52922047953E+03  0.98870593597E+02 0.  0.
         23    2    1    2    0    0  0.24886920395E+02  0.29816343498E+02  0.13153569986E+03  0.16353040128E+03  0.89062779311E+02 0.  0.
        -11    1    3    3    0    0 -0.78829970204E+01 -0.35104752806E+02  0.16157682238E+03  0.16553415008E+03  0.00000000000E+00 0.  1.
         12    1    3    3    0    0 -0.36953690002E+02  0.68101900078E+02  0.35533688555E+03  0.36368632945E+03  0.00000000000E+00 0. -1.
        -11    1    4    4    0    0 -0.24526480357E+02  0.35718047162E+02  0.84958747646E+02  0.95369365802E+02  0.00000000000E+00 0. -1.
         11    1    4    4    0    0  0.49413400752E+02 -0.59017036639E+01  0.46576952219E+02  0.68161035482E+02  0.00000000000E+00 0.  1.
         21    1    1    2  503  501  0.21752208582E+02  0.41546402760E+02  0.27140078666E+02  0.54183447939E+02  0.00000000000E+00 0. -1.
          3    1    1    2  501    0 -0.18024419543E+01 -0.10435989353E+03  0.13176680724E+03  0.16809737555E+03  0.00000000000E+00 0. -1.
<scales pt_clust_5="13000.00000" pt_clust_6="13000.00000" pt_clust_7="13000.00000" pt_clust_8="13000.00000" pt_clust_9="46.89629" pt_clust_10="13000.00000"></scales>
<clustering>
<clus scale="   46.896">  2  9  1 -1</clus>
<clus scale="   89.063">  7  8 -1 -1</clus>
<clus scale="   86.013">  7 10 -1 -1</clus>
<clus scale="   98.871">  5  6 -1 -1</clus>
<clus scale="  114.221">  1  5  2 -1</clus>
<clus scale="   46.896">  2  5  1 -1</clus>
</clustering>
</event>
<event>
10    4  0.2866397E-005  0.3368815E+03  0.7546771E-02  0.1096641E+00
         21   -1    0    0  501  502  0.00000000000E+00  0.00000000000E+00  0.86002598676E+03  0.86002598676E+03  0.00000000000E+00 0. -1.
          2   -1    0    0  503    0 -0.00000000000E+00 -0.00000000000E+00 -0.87069065620E+02  0.87069065620E+02  0.00000000000E+00 0. -1.
         24    2    1    2    0    0 -0.10834067629E+03  0.75567866855E+02  0.31595799555E+03  0.35393479510E+03  0.89398991021E+02 0.  0.
         23    2    1    2    0    0 -0.49366073140E+02  0.67035669280E+02  0.11922445906E+03  0.17085025509E+03  0.89691403668E+02 0.  0.
        -13    1    3    3    0    0 -0.89902904553E+02  0.71024594408E+02  0.15981554925E+03  0.19664189544E+03  0.00000000000E+00 0.  1.
         14    1    3    3    0    0 -0.18437771735E+02  0.45432724472E+01  0.15614244629E+03  0.15729289967E+03  0.00000000000E+00 0. -1.
        -13    1    4    4    0    0 -0.28607341628E+02  0.46631196616E+02  0.72869706075E+01  0.55190111737E+02  0.00000000000E+00 0. -1.
         13    1    4    4    0    0 -0.20758731512E+02  0.20404472664E+02  0.11193748845E+03  0.11566014335E+03  0.00000000000E+00 0.  1.
         21    1    1    2  503  502  0.31365746000E+02  0.26743069035E+02  0.42246320055E+02  0.59023328623E+02  0.00000000000E+00 0. -1.
          1    1    1    2  501    0  0.12634100343E+03 -0.16934660517E+03  0.29552814647E+03  0.36328667356E+03  0.00000000000E+00 0. -1.
<scales pt_clust_5="13000.00000" pt_clust_6="13000.00000" pt_clust_7="13000.00000" pt_clust_8="13000.00000" pt_clust_9="41.21897" pt_clust_10="13000.00000"></scales>
<clustering>
<clus scale="   41.219">  1  9  2 -1</clus>
<clus scale="   89.399">  5  6 -1 -1</clus>
<clus scale="   89.691">  7  8 -1 -1</clus>
<clus scale="  156.817">  2  5  1 -1</clus>
<clus scale="  140.520">  7 10 -1 -1</clus>
<clus scale="   41.219">  1  5  2 -1</clus>
</clustering>
</event>
<event>
10    4  0.2866397E-005  0.5088368E+03  0.7546771E-02  0.1025380E+00
          2   -1    0    0  503    0 -0.00000000000E+00  0.00000000000E+00  0.14548525930E+04  0.14548525930E+04  0.00000000000E+00 0. -1.
         21   -1    0    0  501  502  0.00000000000E+00 -0.00000000000E+00 -0.73794833739E+03  0.73794833739E+03  0.00000000000E+00 0. -1.
         24    2    1    2    0    0 -0.27451888975E+02  0.31901924259E+03  0.11603513672E+04  0.12063392134E+04  0.79448845117E+02 0.  0.
         23    2    1    2    0    0  0.21544829075E+03 -0.68883660696E+01 -0.69271648115E+02  0.24370866085E+03  0.90166149795E+02 0.  0.
        -11    1    3    3    0    0 -0.74152045884E+01  0.74440484441E+02  0.16472408942E+03  0.18091544051E+03  0.00000000000E+00 0.  1.
         12    1    3    3    0    0 -0.20036684387E+02  0.24457875815E+03  0.99562727783E+03  0.10254237729E+04  0.00000000000E+00 0. -1.
        -13    1    4    4    0    0  0.14099787434E+03  0.31115299012E+02 -0.17651679255E+02  0.14546526795E+03  0.00000000000E+00 0. -1.
         13    1    4    4    0    0  0.74450416412E+02 -0.38003665082E+02 -0.51619968860E+02  0.98243392901E+02  0.00000000000E+00 0.  1.
         21    1    1    2  503  502 -0.25572062233E+03  0.59181761215E+02 -0.18024384337E+03  0.31840753857E+03  0.00000000000E+00 0. -1.
          1    1    1    2  501    0  0.67724220559E+02 -0.37131263774E+03 -0.19393162013E+03  0.42434551757E+03  0.00000000000E+00 0. -1.
<scales pt_clust_5="13000.00000" pt_clust_6="13000.00000" pt_clust_7="13000.00000" pt_clust_8="13000.00000" pt_clust_9="262.47956" pt_clust_10="13000.00000"></scales>
<clustering>
<clus scale="   79.449">  5  6 -1 -1</clus>
<clus scale="   90.166">  7  8 -1 -1</clus>
<clus scale="  262.480">  2  9  1 -1</clus>
<clus scale="  333.810">  1  5  2 -1</clus>
<clus scale="  183.817">  7 10 -1 -1</clus>
<clus scale="  262.480">  2  5  1 -1</clus>
</clustering>
</event>
<event>
10    4  0.2866397E-005  0.7392855E+03  0.7546771E-02  0.1036255E+00
         21   -1    0    0  501  502  0.00000000000E+00  0.00000000000E+00  0.18187117313E+03  0.18187117313E+03  0.00000000000E+00 0. -1.
          2   -1    0    0  503    0 -0.00000000000E+00 -0.00000000000E+00 -0.11979136719E+04  0.11979136719E+04  0.00000000000E+00 0. -1.
         24    2    1    2    0    0  0.32189710903E+02 -0.58553554730E+01 -0.13237048198E+02  0.80687522507E+02  0.72558901367E+02 0.  0.
         23    2    1    2    0    0 -0.34174936860E+03  0.37796757781E+02 -0.78297658433E+03  0.86015295527E+03  0.92679819802E+02 0.  0.
        -11    1    3    3    0    0 -0.90154430093E+01  0.25389119155E+02  0.12934806002E+01  0.26973295613E+02  0.00000000000E+00 0.  1.
         12    1    3    3    0    0  0.41205153912E+02 -0.31244474628E+02 -0.14530528798E+02  0.53714226895E+02  0.00000000000E+00 0. -1.
        -13    1    4    4    0    0 -0.13758373660E+03  0.30349030473E+02 -0.42787715891E+03  0.45047664906E+03  0.00000000000E+00 0. -1.
         13    1    4    4    0    0 -0.20416563201E+03  0.74477273077E+01 -0.35509942542E+03  0.40967630621E+03  0.00000000000E+00 0.  1.
         21    1    1    2  503  502 -0.13713891615E+02 -0.19691695970E+02  0.23925707377E+02  0.33886179880E+02  0.00000000000E+00 0. -1.
          1    1    1    2  501    0  0.32327354932E+03 -0.12249706338E+02 -0.24375457360E+03  0.40505818735E+03  0.00000000000E+00 0. -1.
<scales pt_clust_5="13000.00000" pt_clust_6="13000.00000" pt_clust_7="13000.00000" pt_clust_8="13000.00000" pt_clust_9="23.99654" pt_clust_10="13000.00000"></scales>
<clustering>
<clus scale="   23.997">  1  9  2 -1</clus>
<clus scale="   72.559">  5  6 -1 -1</clus>
<clus scale="   78.863">  2  5  1 -1</clus>
<clus scale="   92.680">  7  8 -1 -1</clus>
<clus scale="  325.011">  7 10 -1 -1</clus>
<clus scale="   23.997">  1  5  2 -1</clus>
</clustering>
</event>
<event>
10    4  0.2866397E-005  0.2594689E+03  0.7546771E-02  0.1148496E+00
         21   -1    0    0  501  502  0.00000000000E+00  0.00000000000E+00  0.21284463373E+03  0.21284463373E+03  0.00000000000E+00 0. -1.
          2   -1    0    0  503    0 -0.00000000000E+00 -0.00000000000E+00 -0.39064505554E+03  0.39064505554E+03  0.00000000000E+00 0. -1.
         24    2    1    2    0    0  0.26063425356E+02 -0.41910477770E+02 -0.20567063091E+02  0.96551636344E+02  0.80395423429E+02 0.  0.
         23    2    1    2    0    0 -0.26569774534E+02 -0.17500881659E+01 -0.67058552045E+02  0.12814303852E+03  0.10589982622E+03 0.  0.
        -11    1    3    3    0    0 -0.19888760202E+01 -0.56018249909E+02 -0.30246709051E+02  0.63693511122E+02  0.00000000000E+00 0.  1.
         12    1    3    3    0    0  0.28052301376E+02  0.14107772139E+02  0.96796459593E+01  0.32858125222E+02  0.00000000000E+00 0. -1.
        -13    1    4    4    0    0 -0.50812437362E+01 -0.46231652563E+02 -0.63368924615E+02  0.78605377319E+02  0.00000000000E+00 0. -1.
         13    1    4    4    0    0 -0.21488530798E+02  0.44481564397E+02 -0.36896274297E+01  0.49537661205E+02  0.00000000000E+00 0.  1.
         21    1    1    2  503  502 -0.76482574345E+02 -0.93149341390E+02  0.82016264066E+02  0.14578426373E+03  0.00000000000E+00 0. -1.
          1    1    1    2  501    0  0.76988923524E+02  0.13680990733E+03 -0.17219107074E+03  0.23301075067E+03  0.00000000000E+00 0. -1.
<scales pt_clust_5="13000.00000" pt_clust_6="13000.00000" pt_clust_7="13000.00000" pt_clust_8="13000.00000" pt_clust_9="122.12986" pt_clust_10="13000.00000"></scales>
<clustering>
<clus scale="   80.395">  5  6 -1 -1</clus>
<clus scale="   94.336">  2  5  1 -1</clus>
<clus scale="  105.900">  7  8 -1 -1</clus>
<clus scale="  122.130">  1  9  2 -1</clus>
<clus scale="   88.244">  7 10 -1 -1</clus>
<clus scale="  122.130">  1  5  2 -1</clus>
</clustering>
</event>
<event>
10    4  0.2866397E-005  0.3438107E+03  0.7546771E-02  0.1102931E+00
          2   -1    0    0  502    0 -0.00000000000E+00  0.00000000000E+00  0.73100172073E+03  0.73100172073E+03  0.00000000000E+00 0. -1.
         21   -1    0    0  503  502  0.00000000000E+00 -0.00000000000E+00 -0.84458928207E+02  0.84458928207E+02  0.00000000000E+00 0.  1.
         24    2    1    2    0    0 -0.71544322648E+02 -0.61823034334E+02  0.16030026708E+03  0.20264536848E+03  0.80176630403E+02 0.  0.
         23    2    1    2    0    0 -0.73461251663E+02  0.28766085840E+02  0.27442889919E+02  0.12426164926E+03  0.91998924335E+02 0.  0.
        -11    1    3    3    0    0 -0.85704258982E+02 -0.55932501384E+02  0.11083753193E+03  0.15085961422E+03  0.00000000000E+00 0.  1.
         12    1    3    3    0    0  0.14159936335E+02 -0.58905329502E+01  0.49462735153E+02  0.51785754259E+02  0.00000000000E+00 0. -1.
        -13    1    4    4    0    0 -0.35895635178E+02  0.13047221437E+02 -0.33608869775E+02  0.50875168203E+02  0.00000000000E+00 0.  1.
         13    1    4    4    0    0 -0.37565616485E+02  0.15718864403E+02  0.61051759694E+02  0.73386481055E+02  0.00000000000E+00 0. -1.
         21    1    1    2  503  501  0.91516127874E+01 -0.20039228390E+02  0.60445175362E+02  0.64334609003E+02  0.00000000000E+00 0. -1.
          1    1    1    2  501    0  0.13585396152E+03  0.53096176884E+02  0.39835446016E+03  0.42421902219E+03  0.00000000000E+00 0. -1.
<scales pt_clust_5="13000.00000" pt_clust_6="13000.00000" pt_clust_7="13000.00000" pt_clust_8="13000.00000" pt_clust_9="22.03005" pt_clust_10="13000.00000"></scales>
<clustering>
<clus scale="   22.030">  2  9  1 -1</clus>
<clus scale="   80.177">  5  6 -1 -1</clus>
<clus scale="   91.999">  7  8 -1 -1</clus>
<clus scale="  125.302">  1  5  2 -1</clus>
<clus scale="   82.617">  7 10 -1 -1</clus>
<clus scale="   22.030">  2  5  1 -1</clus>
</clustering>
</event>
<event>
10    4  0.2866397E-005  0.2948859E+03  0.7546771E-02  0.1136708E+00
          2   -1    0    0  503    0 -0.00000000000E+00  0.00000000000E+00  0.11779485660E+04  0.11779485660E+04  0.00000000000E+00 0. -1.
         21   -1    0    0  501  502  0.00000000000E+00 -0.00000000000E+00 -0.99301871084E+02  0.99301871084E+02  0.00000000000E+00 0.  1.
         24    2    1    2    0    0  0.67957362905E+01 -0.13997121703E+01  0.60869639289E+02  0.10106058983E+03  0.80374054294E+02 0.  0.
         23    2    1    2    0    0 -0.10148216326E+03  0.53986727305E+02  0.62520327532E+03  0.64232795921E+03  0.92156798634E+02 0.  0.
        -11    1    3    3    0    0 -0.32154648376E+02  0.17602891908E+02  0.21426506796E+02  0.42460315698E+02  0.00000000000E+00 0.  1.
         12    1    3    3    0    0  0.38950384666E+02 -0.19002604079E+02  0.39443132493E+02  0.58600274131E+02  0.00000000000E+00 0. -1.
        -11    1    4    4    0    0 -0.78307867322E+02 -0.68805556507E+01  0.41068225498E+03  0.41813799001E+03  0.00000000000E+00 0.  1.
         11    1    4    4    0    0 -0.23174295934E+02  0.60867282955E+02  0.21452102034E+03  0.22418996921E+03  0.00000000000E+00 0. -1.
         21    1    1    2  503  502 -0.52713587433E+02 -0.40415844038E+02 -0.39427171383E+02  0.77244188083E+02  0.00000000000E+00 0.  1.
          1    1    1    2  501    0  0.14740001440E+03 -0.12171171096E+02  0.43200095167E+03  0.45661769994E+03  0.00000000000E+00 0. -1.
<scales pt_clust_5="13000.00000" pt_clust_6="13000.00000" pt_clust_7="13000.00000" pt_clust_8="13000.00000" pt_clust_9="66.42411" pt_clust_10="13000.00000"></scales>
<clustering>
<clus scale="   66.424">  2  9  1 -1</clus>
<clus scale="   80.374">  5  6 -1 -1</clus>
<clus scale="   85.287">  1  5  2 -1</clus>
<clus scale="   92.157">  7  8 -1 -1</clus>
<clus scale="  128.815">  7 10 -1 -1</clus>
<clus scale="   66.424">  2  5  1 -1</clus>
</clustering>
</event>
<event>
10    4  0.2866397E-005  0.4630760E+03  0.7546771E-02  0.1054636E+00
         21   -1    0    0  501  502  0.00000000000E+00  0.00000000000E+00  0.34293162140E+03  0.34293162140E+03  0.00000000000E+00 0.  1.
         -1   -1    0    0    0  501 -0.00000000000E+00 -0.00000000000E+00 -0.39188903612E+03  0.39188903612E+03  0.00000000000E+00 0.  1.
         24    2    1    2    0    0  0.68531693180E+02  0.16014426208E+03  0.33777498499E+02  0.19364440846E+03  0.77552948864E+02 0.  0.
         23    2    1    2    0    0  0.17215216919E+03 -0.16233209063E+01 -0.39484462188E+02  0.19838888542E+03  0.90333396802E+02 0.  0.
        -11    1    3    3    0    0  0.29077265223E+02  0.13947561137E+03  0.41597725624E+02  0.14842272163E+03  0.00000000000E+00 0.  1.
         12    1    3    3    0    0  0.39454427958E+02  0.20668650711E+02 -0.78202271253E+01  0.45221686832E+02  0.00000000000E+00 0. -1.
        -13    1    4    4    0    0  0.12247055927E+03 -0.31171316048E+02  0.33884478230E+01  0.12642060912E+03  0.00000000000E+00 0.  1.
         13    1    4    4    0    0  0.49681609922E+02  0.29547995142E+02 -0.42872910011E+02  0.71968276304E+02  0.00000000000E+00 0. -1.
         21    1    1    2  503  502 -0.31088146892E+02  0.71318316230E+01  0.50442243200E+02  0.59680447372E+02  0.00000000000E+00 0.  1.
         -2    1    1    2    0  503 -0.20959571548E+03 -0.16565277280E+03 -0.93692694237E+02  0.28310691626E+03  0.00000000000E+00 0.  1.
<scales pt_clust_5="13000.00000" pt_clust_6="13000.00000" pt_clust_7="13000.00000" pt_clust_8="13000.00000" pt_clust_9="31.89570" pt_clust_10="13000.00000"></scales>
<clustering>
<clus scale="   31.896">  1  9  2 -1</clus>
<clus scale="   77.553">  5  6 -1 -1</clus>
<clus scale="   90.333">  7  8 -1 -1</clus>
<clus scale="  189.037">  2  5  1 -1</clus>
<clus scale="  193.057">  7 10 -1 -1</clus>
<clus scale="   31.896">  1  5  2 -1</clus>
</clustering>
</event>
<event>
10    4  0.2866397E-005  0.2000853E+03  0.7546771E-02  0.1166610E+00
          2   -1    0    0  503    0 -0.00000000000E+00  0.00000000000E+00  0.74064423027E+03  0.74064423027E+03  0.00000000000E+00 0. -1.
         21   -1    0    0  501  502  0.00000000000E+00 -0.00000000000E+00 -0.56811091533E+02  0.56811091533E+02  0.00000000000E+00 0.  1.
         24    2    1    2    0    0  0.11269251099E+03 -0.33567679420E+02  0.16997347701E+03  0.22177058778E+03  0.80404101787E+02 0.  0.
         23    2    1    2    0    0 -0.68763875326E+02  0.26674276341E+01  0.14711158725E+03  0.18641301546E+03  0.91500860709E+02 0.  0.
        -13    1    3    3    0    0  0.11407900262E+03 -0.53597366144E+01  0.13647876472E+03  0.17795841883E+03  0.00000000000E+00 0.  1.
         14    1    3    3    0    0 -0.13864916318E+01 -0.28207942806E+02  0.33494712293E+02  0.43812168948E+02  0.00000000000E+00 0. -1.
        -11    1    4    4    0    0 -0.69641418914E+02 -0.22205302295E+02  0.56332662316E+02  0.92284188906E+02  0.00000000000E+00 0.  1.
         11    1    4    4    0    0  0.87754358820E+00  0.24872729929E+02  0.90778924930E+02  0.94128826553E+02  0.00000000000E+00 0. -1.
         21    1    1    2  503  502 -0.85281568375E+01  0.53842325919E+02  0.66103132630E+02  0.85681676354E+02  0.00000000000E+00 0. -1.
          1    1    1    2  501    0 -0.35400478823E+02 -0.22942074133E+02  0.30064494185E+03  0.30359004221E+03  0.00000000000E+00 0. -1.
<scales pt_clust_5="13000.00000" pt_clust_6="13000.00000" pt_clust_7="13000.00000" pt_clust_8="13000.00000" pt_clust_9="54.51354" pt_clust_10="13000.00000"></scales>
<clustering>
<clus scale="   54.514">  2  9  1 -1</clus>
<clus scale="   80.404">  5  6 -1 -1</clus>
<clus scale="   91.501">  7  8 -1 -1</clus>
<clus scale="   41.521">  7 10 -1 -1</clus>
<clus scale="  134.697">  1  5  2 -1</clus>
<clus scale="   54.514">  2  5  1 -1</clus>
</clustering>
</event>
<event>
10    4  0.2866397E-005  0.7126288E+03  0.7546771E-02  0.1007382E+00
          2   -1    0    0  503    0 -0.00000000000E+00  0.00000000000E+00  0.23280586273E+04  0.23280586273E+04  0.00000000000E+00 0. -1.
         21   -1    0    0  501  502  0.00000000000E+00 -0.00000000000E+00 -0.17238024698E+03  0.17238024698E+03  0.00000000000E+00 0. -1.
         24    2    1    2    0    0  0.14924827072E+02 -0.19422039824E+03  0.35575995631E+03  0.41330596498E+03  0.79450365782E+02 0.  0.
         23    2    1    2    0    0  0.10829170753E+03 -0.31692758486E+03  0.49330795931E+03  0.60331092099E+03  0.91984437258E+02 0.  0.
        -11    1    3    3    0    0 -0.32024657988E+02 -0.58172879414E+02  0.10830535124E+03  0.12704216515E+03  0.00000000000E+00 0.  1.
         12    1    3    3    0    0  0.46949485060E+02 -0.13604751882E+03  0.24745460507E+03  0.28626379983E+03  0.00000000000E+00 0. -1.
        -13    1    4    4    0    0  0.51806896507E+02 -0.25631157250E+03  0.33866816883E+03  0.42787346880E+03  0.00000000000E+00 0. -1.
         13    1    4    4    0    0  0.56484811026E+02 -0.60616012366E+02  0.15463979048E+03  0.17543745219E+03  0.00000000000E+00 0.  1.
         21    1    1    2  503  502  0.12840908790E+03  0.27367432356E+03  0.90274882203E+03  0.95201993934E+03  0.00000000000E+00 0. -1.
          1    1    1    2  501    0 -0.25162562250E+03  0.23747365955E+03  0.40386164271E+03  0.53180204901E+03  0.00000000000E+00 0. -1.
<scales pt_clust_5="13000.00000" pt_clust_6="13000.00000" pt_clust_7="13000.00000" pt_clust_8="13000.00000" pt_clust_9="226.11777" pt_clust_10="13000.00000"></scales>
<clustering>
<clus scale="   79.450">  5  6 -1 -1</clus>
<clus scale="   91.984">  7  8 -1 -1</clus>
<clus scale="  210.373">  1  5  2 -1</clus>
<clus scale="  226.118">  2  9  1 -1</clus>
<clus scale="  329.092">  7 10 -1 -1</clus>
<clus scale="  226.118">  2  5  1 -1</clus>
</clustering>
</event>
<event>
10    4  0.2866397E-005  0.3472100E+03  0.7546771E-02  0.1099856E+00
          2   -1    0    0  502    0 -0.00000000000E+00  0.00000000000E+00  0.91014734553E+03  0.91014734553E+03  0.00000000000E+00 0. -1.
         21   -1    0    0  503  502  0.00000000000E+00 -0.00000000000E+00 -0.10172682611E+03  0.10172682611E+03  0.00000000000E+00 0. -1.
         24    2    1    2    0    0 -0.10691593238E+03 -0.14082925263E+02  0.37440686905E+03  0.39813165567E+03  0.81847213012E+02 0.  0.
         23    2    1    2    0    0 -0.57357988121E+02  0.32093901782E+02  0.39327599016E+03  0.40956135324E+03  0.93565700471E+02 0.  0.
        -11    1    3    3    0    0 -0.86312710087E+02 -0.38469520416E+02  0.33115306018E+03  0.34437209119E+03  0.00000000000E+00 0.  1.
         12    1    3    3    0    0 -0.20603222288E+02  0.24386595153E+02  0.43253808873E+02  0.53759564487E+02  0.00000000000E+00 0. -1.
        -11    1    4    4    0    0  0.20253862394E+02  0.30454273294E+02  0.11665817430E+03  0.12225715249E+03  0.00000000000E+00 0.  1.
         11    1    4    4    0    0 -0.77611850516E+02  0.16396284875E+01  0.27661781585E+03  0.28730420075E+03  0.00000000000E+00 0. -1.
         21    1    1    2  503  501  0.23803967152E+02  0.28367997454E+02 -0.22468587606E+02  0.43315234742E+02  0.00000000000E+00 0.  1.
          1    1    1    2  501    0  0.14046995334E+03 -0.46378973973E+02  0.63206247819E+02  0.16086592797E+03  0.00000000000E+00 0. -1.
<scales pt_clust_5="13000.00000" pt_clust_6="13000.00000" pt_clust_7="13000.00000" pt_clust_8="13000.00000" pt_clust_9="37.03204" pt_clust_10="13000.00000"></scales>
<clustering>
<clus scale="   37.032">  2  9  1 -1</clus>
<clus scale="   81.847">  5  6 -1 -1</clus>
<clus scale="   93.566">  7  8 -1 -1</clus>
<clus scale="  131.735">  1  5  2 -1</clus>
<clus scale="  134.158">  7 10 -1 -1</clus>
<clus scale="   37.032">  2  5  1 -1</clus>
</clustering>
</event>
<event>
10    4  0.2866397E-005  0.3721371E+03  0.7546771E-02  0.1079618E+00
         21   -1    0    0  501  502  0.00000000000E+00  0.00000000000E+00  0.86119509795E+02  0.86119509795E+02  0.00000000000E+00 0. -1.
          2   -1    0    0  503    0 -0.00000000000E+00 -0.00000000000E+00 -0.13752579597E+04  0.13752579597E+04  0.00000000000E+00 0. -1.
         24    2    1    2    0    0 -0.17216242370E+03  0.42826315547E+02 -0.50026832616E+03  0.53698505683E+03  0.81305348356E+02 0.  0.
         23    2    1    2    0    0 -0.70731331203E+02  0.69840897867E+02 -0.22349418708E+03  0.26042110352E+03  0.89380239822E+02 0.  0.
        -11    1    3    3    0    0 -0.10816269421E+03  0.65156471362E+02 -0.35180653438E+03  0.37378118173E+03  0.00000000000E+00 0.  1.
         12    1    3    3    0    0 -0.63999729489E+02 -0.22330155815E+02 -0.14846179177E+03  0.16320387511E+03  0.00000000000E+00 0. -1.
        -13    1    4    4    0    0 -0.26418087881E+02  0.32515775072E+02 -0.18769813674E+03  0.19231687791E+03  0.00000000000E+00 0.  1.
         13    1    4    4    0    0 -0.44313243322E+02  0.37325122795E+02 -0.35796050348E+02  0.68104225609E+02  0.00000000000E+00 0. -1.
         21    1    1    2  503  502  0.36156712611E+02 -0.35280149378E+02  0.65338296367E+01  0.50938077473E+02  0.00000000000E+00 0. -1.
          1    1    1    2  501    0  0.20673704229E+03 -0.77387064035E+02 -0.57190976626E+03  0.61303323162E+03  0.00000000000E+00 0. -1.
<scales pt_clust_5="13000.00000" pt_clust_6="13000.00000" pt_clust_7="13000.00000" pt_clust_8="13000.00000" pt_clust_9="50.51729" pt_clust_10="13000.00000"></scales>
<clustering>
<clus scale="   50.517">  1  9  2 -1</clus>
<clus scale="   81.305">  5  6 -1 -1</clus>
<clus scale="   89.380">  7  8 -1 -1</clus>
<clus scale="  182.746">  2  5  1 -1</clus>
<clus scale="  117.861">  7 10 -1 -1</clus>
<clus scale="   50.517">  1  5  2 -1</clus>
</clustering>
</event>
<event>
10    4  0.2866397E-005  0.2973127E+03  0.7546771E-02  0.1121693E+00
         21   -1    0    0  501  502  0.00000000000E+00  0.00000000000E+00  0.14346059779E+03  0.14346059779E+03  0.00000000000E+00 0.  1.
          2   -1    0    0  503    0 -0.00000000000E+00 -0.00000000000E+00 -0.62021017769E+03  0.62021017769E+03  0.00000000000E+00 0. -1.
         24    2    1    2    0    0 -0.30912673808E+02  0.77056230117E+02  0.66830195115E+02  0.13300564803E+03  0.79567401784E+02 0.  0.
         23    2    1    2    0    0  0.56247598523E+02  0.18968099060E+02 -0.59158036030E+02  0.12393361198E+03  0.91303262976E+02 0.  0.
        -11    1    3    3    0    0 -0.51917518611E+01  0.78143401011E+02  0.22063048229E+02  0.81364141402E+02  0.00000000000E+00 0.  1.
         12    1    3    3    0    0 -0.25720921947E+02 -0.10871708940E+01  0.44767146886E+02  0.51641506627E+02  0.00000000000E+00 0. -1.
        -13    1    4    4    0    0  0.41160355375E+02  0.53870268018E+02 -0.51521800287E+02  0.85150904492E+02  0.00000000000E+00 0. -1.
         13    1    4    4    0    0  0.15087243148E+02 -0.34902168958E+02 -0.76362357425E+01  0.38782707488E+02  0.00000000000E+00 0.  1.
         21    1    1    2  503  502  0.13830339568E+02  0.15121535080E+02 -0.24441219838E+02  0.31895334186E+02  0.00000000000E+00 0.  1.
          1    1    1    2  501    0 -0.39165264282E+02 -0.11114586426E+03 -0.45998051915E+03  0.47483618129E+03  0.00000000000E+00 0. -1.
<scales pt_clust_5="13000.00000" pt_clust_6="13000.00000" pt_clust_7="13000.00000" pt_clust_8="13000.00000" pt_clust_9="20.49243" pt_clust_10="13000.00000"></scales>
<clustering>
<clus scale="   20.492">  1  9  2 -1</clus>
<clus scale="   79.567">  5  6 -1 -1</clus>
<clus scale="   91.303">  7  8 -1 -1</clus>
<clus scale="  116.843">  7 10 -1 -1</clus>
<clus scale="  120.391">  2  5  1 -1</clus>
<clus scale="   20.492">  1  5  2 -1</clus>
</clustering>
</event>
<event>
10    4  0.2866397E-005  0.3178992E+03  0.7546771E-02  0.1094587E+00
         21   -1    0    0  501  502  0.00000000000E+00  0.00000000000E+00  0.55156776817E+03  0.55156776817E+03  0.00000000000E+00 0. -1.
          2   -1    0    0  503    0 -0.00000000000E+00 -0.00000000000E+00 -0.50432195786E+03  0.50432195786E+03  0.00000000000E+00 0. -1.
         24    2    1    2    0    0  0.76907384089E+01  0.18225999055E+03 -0.40178711316E+03  0.44848429100E+03  0.80171212803E+02 0.  0.
         23    2    1    2    0    0 -0.47942948647E+02 -0.31228930604E+02  0.24892629906E+03  0.27173720519E+03  0.92752541141E+02 0.  0.
        -13    1    3    3    0    0  0.27608874238E+02  0.24533463910E+02 -0.47557843724E+02  0.60215357574E+02  0.00000000000E+00 0.  1.
         14    1    3    3    0    0 -0.19918135829E+02  0.15772652664E+03 -0.35422926943E+03  0.38826893342E+03  0.00000000000E+00 0. -1.
        -11    1    4    4    0    0  0.17759056542E+02 -0.35741764081E+02  0.63896305397E+02  0.75336549113E+02  0.00000000000E+00 0. -1.
         11    1    4    4    0    0 -0.65702005189E+02  0.45128334764E+01  0.18502999367E+03  0.19640065608E+03  0.00000000000E+00 0.  1.
         21    1    1    2  503  502  0.50064062468E+02 -0.39187072130E+02  0.21334532430E+03  0.22261685555E+03  0.00000000000E+00 0. -1.
          1    1    1    2  501    0 -0.98118522303E+01 -0.11184398781E+03 -0.13238699902E+02  0.11305137429E+03  0.00000000000E+00 0. -1.
<scales pt_clust_5="13000.00000" pt_clust_6="13000.00000" pt_clust_7="13000.00000" pt_clust_8="13000.00000" pt_clust_9="63.57702" pt_clust_10="13000.00000"></scales>
<clustering>
<clus scale="   63.577">  1  9  2 -1</clus>
<clus scale="   80.171">  5  6 -1 -1</clus>
<clus scale="   92.753">  7  8 -1 -1</clus>
<clus scale="  117.730">  7 10 -1 -1</clus>
<clus scale="  196.924">  2  5  1 -1</clus>
<clus scale="   63.577">  1  5  2 -1</clus>
</clustering>
</event>
<event>
10    4  0.2866397E-005  0.3540417E+03  0.7546771E-02  0.1102550E+00
          2   -1    0    0  503    0 -0.00000000000E+00  0.00000000000E+00  0.25057828902E+03  0.25057828902E+03  0.00000000000E+00 0. -1.
         21   -1    0    0  501  502  0.00000000000E+00 -0.00000000000E+00 -0.44260939342E+03  0.44260939342E+03  0.00000000000E+00 0.  1.
         24    2    1    2    0    0  0.49227636859E+02 -0.56275223668E+02  0.77983517462E+02  0.13945970884E+03  0.88189117046E+02 0.  0.
         23    2    1    2    0    0  0.55370257873E+02  0.91689244331E+02 -0.18364996594E+03  0.23056163809E+03  0.89210851283E+02 0.  0.
        -11    1    3    3    0    0  0.14346955481E+02  0.22448110635E+02  0.61893304366E+01  0.27350696772E+02  0.00000000000E+00 0.  1.
         12    1    3    3    0    0  0.34880681378E+02 -0.78723334302E+02  0.71794187025E+02  0.11210901207E+03  0.00000000000E+00 0. -1.
        -11    1    4    4    0    0  0.60268592709E+02  0.32738932080E+02 -0.51477403068E+02  0.85755839262E+02  0.00000000000E+00 0. -1.
         11    1    4    4    0    0 -0.48983348359E+01  0.58950312251E+02 -0.13217256287E+03  0.14480579883E+03  0.00000000000E+00 0.  1.
         21    1    1    2  503  502 -0.16981335308E+02 -0.18711646194E+02 -0.18699622387E+03  0.18869573179E+03  0.00000000000E+00 0.  1.
          1    1    1    2  501    0 -0.87616559424E+02 -0.16702374469E+02  0.10063156795E+03  0.13447060373E+03  0.00000000000E+00 0. -1.
<scales pt_clust_5="13000.00000" pt_clust_6="13000.00000" pt_clust_7="13000.00000" pt_clust_8="13000.00000" pt_clust_9="25.26839" pt_clust_10="13000.00000"></scales>
<clustering>
<clus scale="   25.268">  2  9  1 -1</clus>
<clus scale="   88.189">  5  6 -1 -1</clus>
<clus scale="   89.211">  7  8 -1 -1</clus>
<clus scale="   90.541">  7 10 -1 -1</clus>
<clus scale="  115.885">  1  5  2 -1</clus>
<clus scale="   25.268">  2  5  1 -1</clus>
</clustering>
</event>
<event>
10    4  0.2866397E-005  0.8087217E+03  0.7546771E-02  0.1004778E+00
          2   -1    0    0  503    0 -0.00000000000E+00  0.00000000000E+00  0.25846760289E+04  0.25846760289E+04  0.00000000000E+00 0. -1.
         21   -1    0    0  501  502  0.00000000000E+00 -0.00000000000E+00 -0.13486477364E+03  0.13486477364E+03  0.00000000000E+00 0. -1.
         24    2    1    2    0    0 -0.13126419429E+03  0.75493634231E+01  0.71868213136E+03  0.73513563760E+03  0.81443957078E+02 0.  0.
         23    2    1    2    0    0 -0.27838724309E+03  0.55528250202E+02  0.33991375918E+03  0.45320736925E+03  0.96294922892E+02 0.  0.
        -11    1    3    3    0    0 -0.27278104020E+02  0.31125802599E+02  0.11761369773E+03  0.12468316823E+03  0.00000000000E+00 0.  1.
         12    1    3    3    0    0 -0.10398609027E+03 -0.23576439176E+02  0.60106843363E+03  0.61045246937E+03  0.00000000000E+00 0. -1.
        -13    1    4    4    0    0 -0.23811521490E+03  0.71289896718E+02  0.32105845750E+03  0.40602910988E+03  0.00000000000E+00 0.  1.
         13    1    4    4    0    0 -0.40272028187E+02 -0.15761646516E+02  0.18855301686E+02  0.47178259366E+02  0.00000000000E+00 0. -1.
         21    1    1    2  503  502 -0.20305628939E+02 -0.77556578419E+01 -0.34642864330E+02  0.40897394100E+02  0.00000000000E+00 0. -1.
          1    1    1    2  501    0  0.42995706632E+03 -0.55321955784E+02  0.14258582290E+04  0.14903004016E+04  0.00000000000E+00 0. -1.
<scales pt_clust_5="13000.00000" pt_clust_6="13000.00000" pt_clust_7="13000.00000" pt_clust_8="13000.00000" pt_clust_9="21.73635" pt_clust_10="13000.00000"></scales>
<clustering>
<clus scale="   21.736">  2  9  1 -1</clus>
<clus scale="   81.444">  5  6 -1 -1</clus>
<clus scale="   96.295">  7  8 -1 -1</clus>
<clus scale="  156.095">  1  5  2 -1</clus>
<clus scale="  325.327">  7 10 -1 -1</clus>
<clus scale="   21.736">  2  5  1 -1</clus>
</clustering>
</event>
<event>
10    4  0.2866397E-005  0.7999165E+03  0.7546771E-02  0.9899745E-01
         21   -1    0    0  503  502  0.00000000000E+00  0.00000000000E+00  0.39463090296E+03  0.39463090296E+03  0.00000000000E+00 0. -1.
          2   -1    0    0  502    0 -0.00000000000E+00 -0.00000000000E+00 -0.97921046919E+03  0.97921046919E+03  0.00000000000E+00 0. -1.
         24    2    1    2    0    0  0.12757322198E+03 -0.20713680380E+03 -0.29841017703E+03  0.39344349889E+03  0.81046718704E+02 0.  0.
         23    2    1    2    0    0  0.46272279132E+02 -0.19044210510E+03 -0.37815519154E+03  0.43573249816E+03  0.91935530968E+02 0.  0.
        -11    1    3    3    0    0 -0.11707853589E+02 -0.19299211735E+02 -0.25971989589E+02  0.34410429414E+02  0.00000000000E+00 0.  1.
         12    1    3    3    0    0  0.13928107557E+03 -0.18783759206E+03 -0.27243818744E+03  0.35903306948E+03  0.00000000000E+00 0. -1.
        -13    1    4    4    0    0  0.59991010545E+02 -0.61491867897E+02 -0.17032372739E+03  0.19076253111E+03  0.00000000000E+00 0.  1.
         13    1    4    4    0    0 -0.13718731413E+02 -0.12895023720E+03 -0.20783146415E+03  0.24496996705E+03  0.00000000000E+00 0. -1.
         21    1    1    2  503  501 -0.27093805002E+02 -0.27549415558E+02  0.86665724216E+02  0.94889368850E+02  0.00000000000E+00 0. -1.
          1    1    1    2  501    0 -0.14675169611E+03  0.42512832446E+03  0.53200781199E+01  0.44977600625E+03  0.00000000000E+00 0. -1.
<scales pt_clust_5="13000.00000" pt_clust_6="13000.00000" pt_clust_7="13000.00000" pt_clust_8="13000.00000" pt_clust_9="38.63993" pt_clust_10="13000.00000"></scales>
<clustering>
<clus scale="   38.640">  1  9  2 -1</clus>
<clus scale="   81.047">  5  6 -1 -1</clus>
<clus scale="   91.936">  7  8 -1 -1</clus>
<clus scale="  257.855">  2  5  1 -1</clus>
<clus scale="  355.546">  7 10 -1 -1</clus>
<clus scale="   38.640">  1  5  2 -1</clus>
</clustering>
</event>
<event>
10    4  0.2866397E-005  0.1928128E+03  0.7546771E-02  0.1169753E+00
         -3   -1    0    0    0  501 -0.00000000000E+00  0.00000000000E+00  0.96764105084E+03  0.96764105084E+03  0.00000000000E+00 0.  1.
         21   -1    0    0  501  502  0.00000000000E+00 -0.00000000000E+00 -0.62498850185E+02  0.62498850185E+02  0.00000000000E+00 0.  1.
         24    2    1    2    0    0 -0.62563435534E+02  0.10610946452E+03  0.34225847699E+03  0.37216988982E+03  0.78715690251E+02 0.  0.
         23    2    1    2    0    0  0.48057366869E+02 -0.40888346692E+02  0.21710916820E+03  0.24339509518E+03  0.90129984109E+02 0.  0.
        -13    1    3    3    0    0 -0.37418103605E+02  0.86179363427E+02  0.31898174827E+03  0.33253022853E+03  0.00000000000E+00 0.  1.
         14    1    3    3    0    0 -0.25145331929E+02  0.19930101090E+02  0.23276728722E+02  0.39639661291E+02  0.00000000000E+00 0. -1.
        -13    1    4    4    0    0  0.36811500277E+02  0.24083946005E+02  0.91828188853E+02  0.10182111410E+03  0.00000000000E+00 0.  1.
         13    1    4    4    0    0  0.11245866592E+02 -0.64972292697E+02  0.12528097934E+03  0.14157398108E+03  0.00000000000E+00 0. -1.
         21    1    1    2  503  502 -0.63887787252E+01 -0.21365543830E+02 -0.29046069288E+02  0.36619354142E+02  0.00000000000E+00 0.  1.
         -4    1    1    2    0  503  0.20894847390E+02 -0.43855573995E+02  0.37482062476E+03  0.37795556189E+03  0.00000000000E+00 0.  1.
<scales pt_clust_5="13000.00000" pt_clust_6="13000.00000" pt_clust_7="13000.00000" pt_clust_8="13000.00000" pt_clust_9="22.30029" pt_clust_10="13000.00000"></scales>
<clustering>
<clus scale="   22.300">  2  9  1 -1</clus>
<clus scale="   78.716">  5  6 -1 -1</clus>
<clus scale="   90.130">  7  8 -1 -1</clus>
<clus scale="   49.459">  7 10 -1 -1</clus>
<clus scale="  140.047">  1  5  2 -1</clus>
<clus scale="   22.300">  2  5  1 -1</clus>
</clustering>
</event>
<event>
10    4  0.2866397E-005  0.2468029E+03  0.7546771E-02  0.1148049E+00
          2   -1    0    0  503    0 -0.00000000000E+00  0.00000000000E+00  0.40304268301E+03  0.40304268301E+03  0.00000000000E+00 0. -1.
         21   -1    0    0  501  502  0.00000000000E+00 -0.00000000000E+00 -0.47690953388E+03  0.47690953388E+03  0.00000000000E+00 0. -1.
         24    2    1    2    0    0 -0.20330303819E+02 -0.77183217993E+02  0.18852243088E+03  0.22059064563E+03  0.82152027368E+02 0.  0.
         23    2    1    2    0    0 -0.17176483691E+02 -0.64992348511E+02  0.26581220527E+02  0.11665540861E+03  0.91558102400E+02 0.  0.
        -11    1    3    3    0    0 -0.74501451435E+00 -0.68481172389E+02  0.18695259407E+03  0.19910172889E+03  0.00000000000E+00 0.  1.
         12    1    3    3    0    0 -0.19585289304E+02 -0.87020456047E+01  0.15698368088E+01  0.21488916735E+02  0.00000000000E+00 0. -1.
        -11    1    4    4    0    0  0.33595577868E+02 -0.44964799974E+02  0.26512944805E+02  0.62076020582E+02  0.00000000000E+00 0. -1.
         11    1    4    4    0    0 -0.50772061560E+02 -0.20027548537E+02  0.68275721791E-01  0.54579388023E+02  0.00000000000E+00 0.  1.
         21    1    1    2  503  502  0.10300296450E+03  0.18834150336E+02 -0.36774921839E+03  0.38236608576E+03  0.00000000000E+00 0. -1.
          1    1    1    2  501    0 -0.65496176993E+02  0.12334141617E+03  0.78778716114E+02  0.16034007689E+03  0.00000000000E+00 0. -1.
<scales pt_clust_5="13000.00000" pt_clust_6="13000.00000" pt_clust_7="13000.00000" pt_clust_8="13000.00000" pt_clust_9="104.71072" pt_clust_10="13000.00000"></scales>
<clustering>
<clus scale="   82.152">  5  6 -1 -1</clus>
<clus scale="   91.558">  7  8 -1 -1</clus>
<clus scale="  104.711">  2  9  1 -1</clus>
<clus scale="  110.789">  1  5  2 -1</clus>
<clus scale="   92.687">  7 10 -1 -1</clus>
<clus scale="  104.711">  2  5  1 -1</clus>
</clustering>
</event>
<event>
10    4  0.2866397E-005  0.1285461E+03  0.7546771E-02  0.1250921E+00
         21   -1    0    0  501  502  0.00000000000E+00  0.00000000000E+00  0.16433703902E+03  0.16433703902E+03  0.00000000000E+00 0.  1.
          2   -1    0    0  503    0 -0.00000000000E+00 -0.00000000000E+00 -0.30042226954E+03  0.30042226954E+03  0.00000000000E+00 0. -1.
         24    2    1    2    0    0  0.27092758750E+02  0.34323569723E+02 -0.21189575915E+02  0.92618935427E+02  0.78848868457E+02 0.  0.
         23    2    1    2    0    0 -0.41902238930E+02  0.21880567819E+00 -0.16088376657E+03  0.18948763582E+03  0.90918272526E+02 0.  0.
        -13    1    3    3    0    0 -0.18111766206E+02  0.38322294346E+02 -0.20848580917E+02  0.47236613398E+02  0.00000000000E+00 0.  1.
         14    1    3    3    0    0  0.45204524956E+02 -0.39987246236E+01 -0.34099499750E+00  0.45382322029E+02  0.00000000000E+00 0. -1.
        -13    1    4    4    0    0 -0.65410322161E+02 -0.20389193805E+02 -0.10310616759E+03  0.12379463343E+03  0.00000000000E+00 0. -1.
         13    1    4    4    0    0  0.23508083231E+02  0.20607999484E+02 -0.57777598975E+02  0.65693002391E+02  0.00000000000E+00 0.  1.
         21    1    1    2  503  502 -0.88462197507E+01 -0.24981202802E+02  0.11031335265E+03  0.11345198046E+03  0.00000000000E+00 0.  1.
          1    1    1    2  501    0  0.23655699931E+02 -0.95611725984E+01 -0.64325240679E+02  0.69200756854E+02  0.00000000000E+00 0. -1.
<scales pt_clust_5="13000.00000" pt_clust_6="13000.00000" pt_clust_7="13000.00000" pt_clust_8="13000.00000" pt_clust_9="26.50125" pt_clust_10="13000.00000"></scales>
<clustering>
<clus scale="   26.501">  1  9  2 -1</clus>
<clus scale="   78.849">  5  6 -1 -1</clus>
<clus scale="   83.432">  2  5  1 -1</clus>
<clus scale="   90.918">  7  8 -1 -1</clus>
<clus scale="   29.591">  7 10 -1 -1</clus>
<clus scale="   26.501">  1  5  2 -1</clus>
</clustering>
</event>
<event>
10    4  0.2866397E-005  0.1029097E+04  0.7546771E-02  0.9733597E-01
          2   -1    0    0  503    0 -0.00000000000E+00  0.00000000000E+00  0.11597703121E+04  0.11597703121E+04  0.00000000000E+00 0. -1.
         21   -1    0    0  501  502  0.00000000000E+00 -0.00000000000E+00 -0.36443386489E+03  0.36443386489E+03  0.00000000000E+00 0. -1.
         24    2    1    2    0    0  0.15217345433E+03  0.12015762908E+03  0.19380400371E+03  0.28608171257E+03  0.81781039280E+02 0.  0.
         23    2    1    2    0    0  0.34978741206E+03 -0.37705563779E+01  0.54193400835E+03  0.65119264463E+03  0.89408837801E+02 0.  0.
        -11    1    3    3    0    0  0.93584076706E+02  0.10765532679E+03  0.16923068429E+03  0.22132933223E+03  0.00000000000E+00 0.  1.
         12    1    3    3    0    0  0.58589377626E+02  0.12502302292E+02  0.24573319419E+02  0.64752380347E+02  0.00000000000E+00 0. -1.
        -13    1    4    4    0    0  0.15673462704E+03 -0.66443449605E+01  0.32435834447E+03  0.36030296455E+03  0.00000000000E+00 0. -1.
         13    1    4    4    0    0  0.19305278501E+03  0.28737885826E+01  0.21757566389E+03  0.29088968008E+03  0.00000000000E+00 0.  1.
         21    1    1    2  503  502  0.19581408775E+02 -0.50504264440E+02  0.26231828870E+02  0.60184891311E+02  0.00000000000E+00 0.  1.
          1    1    1    2  501    0 -0.52154227516E+03 -0.65882808263E+02  0.33366606229E+02  0.52674492842E+03  0.00000000000E+00 0. -1.
<scales pt_clust_5="13000.00000" pt_clust_6="13000.00000" pt_clust_7="13000.00000" pt_clust_8="13000.00000" pt_clust_9="54.16745" pt_clust_10="13000.00000"></scales>
<clustering>
<clus scale="   54.167">  2  9  1 -1</clus>
<clus scale="   81.781">  5  6 -1 -1</clus>
<clus scale="   89.409">  7  8 -1 -1</clus>
<clus scale="  208.601">  1  5  2 -1</clus>
<clus scale="  461.931">  7 10 -1 -1</clus>
<clus scale="   54.167">  2  5  1 -1</clus>
</clustering>
</event>
<event>
10    4  0.2866397E-005  0.1727334E+03  0.7546771E-02  0.1206436E+00
         21   -1    0    0  503  502  0.00000000000E+00  0.00000000000E+00  0.31947095757E+03  0.31947095757E+03  0.00000000000E+00 0.  1.
          2   -1    0    0  502    0 -0.00000000000E+00 -0.00000000000E+00 -0.68383360137E+03  0.68383360137E+03  0.00000000000E+00 0. -1.
         24    2    1    2    0    0 -0.59653260477E+01  0.32634131317E+02 -0.44603638575E+03  0.45432001316E+03  0.79734843706E+02 0.  0.
         23    2    1    2    0    0  0.76445409889E+02  0.17640380900E+02 -0.15805821347E+03  0.19772353192E+03  0.89202648498E+02 0.  0.
        -11    1    3    3    0    0  0.19793906767E+02  0.20706172496E+02 -0.52880005468E+02  0.60140163808E+02  0.00000000000E+00 0.  1.
         12    1    3    3    0    0 -0.25759232814E+02  0.11927958821E+02 -0.39315638028E+03  0.39417984935E+03  0.00000000000E+00 0. -1.
        -13    1    4    4    0    0  0.17169027564E+02  0.26234897673E+02 -0.29973508536E+01  0.31496499418E+02  0.00000000000E+00 0. -1.
         13    1    4    4    0    0  0.59276382324E+02 -0.85945167731E+01 -0.15506086261E+03  0.16622703250E+03  0.00000000000E+00 0.  1.
         21    1    1    2  503  501 -0.11709029022E+03 -0.33578650059E+02  0.26790443851E+03  0.29429653409E+03  0.00000000000E+00 0.  1.
          1    1    1    2  501    0  0.46610206381E+02 -0.16695862158E+02 -0.28172483087E+02  0.56964479769E+02  0.00000000000E+00 0. -1.
<scales pt_clust_5="13000.00000" pt_clust_6="13000.00000" pt_clust_7="13000.00000" pt_clust_8="13000.00000" pt_clust_9="121.64001" pt_clust_10="13000.00000"></scales>
<clustering>
<clus scale="   79.735">  5  6 -1 -1</clus>
<clus scale="   86.361">  2  5  1 -1</clus>
<clus scale="   89.203">  7  8 -1 -1</clus>
<clus scale="   46.776">  7 10 -1 -1</clus>
<clus scale="  121.640">  1  9  2 -1</clus>
<clus scale="  121.640">  1  5  2 -1</clus>
</clustering>
</event>
<event>
10    4  0.2866397E-005  0.3070127E+03  0.7546771E-02  0.1125769E+00
          2   -1    0    0  503    0 -0.00000000000E+00  0.00000000000E+00  0.77212655297E+03  0.77212655297E+03  0.00000000000E+00 0. -1.
         21   -1    0    0  501  502  0.00000000000E+00 -0.00000000000E+00 -0.63118029512E+02  0.63118029512E+02  0.00000000000E+00 0.  1.
         24    2    1    2    0    0  0.23494882822E+02  0.50240849950E+02  0.15002364946E+03  0.17849979919E+03  0.79239702112E+02 0.  0.
         23    2    1    2    0    0 -0.64922411210E+02  0.99910935792E+02  0.25623904016E+03  0.29749002934E+03  0.92977186906E+02 0.  0.
        -13    1    3    3    0    0  0.79274611223E+00  0.49324807023E+02  0.14762929310E+03  0.15565337522E+03  0.00000000000E+00 0.  1.
         14    1    3    3    0    0  0.22702136710E+02  0.91604292740E+00  0.23943563532E+01  0.22846423969E+02  0.00000000000E+00 0. -1.
        -11    1    4    4    0    0 -0.87140605424E+02  0.91469411321E+02  0.20171310293E+03  0.23800906330E+03  0.00000000000E+00 0.  1.
         11    1    4    4    0    0  0.22218194213E+02  0.84415244710E+01  0.54525937234E+02  0.59480966038E+02  0.00000000000E+00 0. -1.
         21    1    1    2  503  502  0.23041225299E+02  0.55419379065E+01  0.10106679123E+03  0.10380803162E+03  0.00000000000E+00 0.  1.
          1    1    1    2  501    0  0.18386303090E+02 -0.15569372365E+03  0.20167904260E+03  0.25544672233E+03  0.00000000000E+00 0. -1.
<scales pt_clust_5="13000.00000" pt_clust_6="13000.00000" pt_clust_7="13000.00000" pt_clust_8="13000.00000" pt_clust_9="23.69835" pt_clust_10="13000.00000"></scales>
<clustering>
<clus scale="   23.698">  2  9  1 -1</clus>
<clus scale="   79.240">  5  6 -1 -1</clus>
<clus scale="   92.977">  7  8 -1 -1</clus>
<clus scale="   98.808">  1  5  2 -1</clus>
<clus scale="  136.238">  7 10 -1 -1</clus>
<clus scale="   23.698">  2  5  1 -1</clus>
</clustering>
</event>
<event>
10    4  0.2866397E-005  0.3590948E+03  0.7546771E-02  0.1088310E+00
          2   -1    0    0  502    0 -0.00000000000E+00  0.00000000000E+00  0.17682873836E+04  0.17682873836E+04  0.00000000000E+00 0. -1.
         21   -1    0    0  503  502  0.00000000000E+00 -0.00000000000E+00 -0.43440871961E+02  0.43440871961E+02  0.00000000000E+00 0. -1.
         24    2    1    2    0    0  0.14702577166E+03 -0.29473417316E+02  0.49140834696E+03  0.52003024617E+03  0.80399214034E+02 0.  0.
         23    2    1    2    0    0 -0.10730210515E+02 -0.11716350324E+03  0.30372606737E+03  0.33843791430E+03  0.91914492479E+02 0.  0.
        -11    1    3    3    0    0  0.18875150317E+02 -0.35493449581E+02  0.15065851985E+03  0.15592961831E+03  0.00000000000E+00 0.  1.
         12    1    3    3    0    0  0.12815062134E+03  0.60200322648E+01  0.34074982710E+03  0.36410062786E+03  0.00000000000E+00 0. -1.
        -11    1    4    4    0    0  0.24284638993E+02 -0.35266168185E+01  0.95989389542E+02  0.99076453418E+02  0.00000000000E+00 0.  1.
         11    1    4    4    0    0 -0.35014849507E+02 -0.11363688642E+03  0.20773667783E+03  0.23936146088E+03  0.00000000000E+00 0. -1.
         21    1    1    2  503  501 -0.27089812131E+02  0.11517463833E+02  0.66278863637E+02  0.72521704747E+02  0.00000000000E+00 0.  1.
          1    1    1    2  501    0 -0.10920574901E+03  0.13511945672E+03  0.86343323368E+03  0.88073839035E+03  0.00000000000E+00 0. -1.
<scales pt_clust_5="13000.00000" pt_clust_6="13000.00000" pt_clust_7="13000.00000" pt_clust_8="13000.00000" pt_clust_9="29.43654" pt_clust_10="13000.00000"></scales>
<clustering>
<clus scale="   29.437">  2  9  1 -1</clus>
<clus scale="   80.399">  5  6 -1 -1</clus>
<clus scale="   91.914">  7  8 -1 -1</clus>
<clus scale="  161.215">  1  5  2 -1</clus>
<clus scale="  119.913">  7 10 -1 -1</clus>
<clus scale="   29.437">  2  5  1 -1</clus>
</clustering>
</event>
<event>
10    4  0.2866397E-005  0.9422616E+03  0.7546771E-02  0.9884419E-01
          2   -1    0    0  503    0 -0.00000000000E+00  0.00000000000E+00  0.27981646355E+04  0.27981646355E+04  0.00000000000E+00 0. -1.
         21   -1    0    0  501  502  0.00000000000E+00 -0.00000000000E+00 -0.14568822818E+03  0.14568822818E+03  0.00000000000E+00 0. -1.
         24    2    1    2    0    0 -0.50023461424E+02 -0.13363750632E+03  0.39387071517E+03  0.42624605007E+03  0.78677983837E+02 0.  0.
         23    2    1    2    0    0  0.25212901547E+03 -0.28566676914E+03  0.14856041800E+04  0.15364499918E+04  0.92110011490E+02 0.  0.
        -13    1    3    3    0    0 -0.65690777414E+02 -0.87571456309E+02  0.31598441312E+03  0.33441020847E+03  0.00000000000E+00 0.  1.
         14    1    3    3    0    0  0.15667315990E+02 -0.46066050012E+02  0.77886302055E+02  0.91835841596E+02  0.00000000000E+00 0. -1.
        -13    1    4    4    0    0  0.23020503743E+03 -0.26666775747E+03  0.14394781869E+04  0.14819593458E+04  0.00000000000E+00 0. -1.
         13    1    4    4    0    0  0.21923978045E+02 -0.18999011669E+02  0.46125993067E+02  0.54490645933E+02  0.00000000000E+00 0.  1.
         21    1    1    2  503  502  0.26440107009E+01 -0.24040902582E+02 -0.31697946770E+02  0.39871237992E+02  0.00000000000E+00 0.  1.
          1    1    1    2  501    0 -0.20474956475E+03  0.44334517804E+03  0.80469945900E+03  0.94128558390E+03  0.00000000000E+00 0. -1.
<scales pt_clust_5="13000.00000" pt_clust_6="13000.00000" pt_clust_7="13000.00000" pt_clust_8="13000.00000" pt_clust_9="24.18586" pt_clust_10="13000.00000"></scales>
<clustering>
<clus scale="   24.186">  2  9  1 -1</clus>
<clus scale="   78.678">  5  6 -1 -1</clus>
<clus scale="   92.110">  7  8 -1 -1</clus>
<clus scale="  165.746">  1  5  2 -1</clus>
<clus scale="  439.860">  7 10 -1 -1</clus>
<clus scale="   24.186">  2  5  1 -1</clus>
</clustering>
</event>
<event>
10    4  0.2866397E-005  0.3297625E+03  0.7546771E-02  0.1119934E+00
          2   -1    0    0  502    0 -0.00000000000E+00  0.00000000000E+00  0.79312834814E+03  0.79312834814E+03  0.00000000000E+00 0. -1.
         21   -1    0    0  503  502  0.00000000000E+00 -0.00000000000E+00 -0.22070366746E+03  0.22070366746E+03  0.00000000000E+00 0.  1.
         24    2    1    2    0    0  0.41369353603E+02  0.18993306635E+02  0.26891726546E+03  0.28440005670E+03  0.80589872047E+02 0.  0.
         23    2    1    2    0    0  0.76863690915E+02 -0.20170664167E+01  0.40639115945E+02  0.13367525193E+03  0.10151571157E+03 0.  0.
        -13    1    3    3    0    0  0.45959193642E+02  0.45711321641E+02  0.17378071326E+03  0.18547643707E+03  0.00000000000E+00 0.  1.
         14    1    3    3    0    0 -0.45898400386E+01 -0.26718015006E+02  0.95136552197E+02  0.98923619634E+02  0.00000000000E+00 0. -1.
        -13    1    4    4    0    0 -0.22022373699E+02 -0.73959187874E+01  0.23732600290E+02  0.33210252552E+02  0.00000000000E+00 0. -1.
         13    1    4    4    0    0  0.98886064614E+02  0.53788523707E+01  0.16906515655E+02  0.10046499937E+03  0.00000000000E+00 0.  1.
         21    1    1    2  503  501 -0.21963631934E+02  0.29441827091E+02 -0.15764841352E+03  0.16187107399E+03  0.00000000000E+00 0.  1.
          1    1    1    2  501    0 -0.96269412585E+02 -0.46418067309E+02  0.42051671279E+03  0.43388563299E+03  0.00000000000E+00 0. -1.
<scales pt_clust_5="13000.00000" pt_clust_6="13000.00000" pt_clust_7="13000.00000" pt_clust_8="13000.00000" pt_clust_9="36.73176" pt_clust_10="13000.00000"></scales>
<clustering>
<clus scale="   36.732">  2  9  1 -1</clus>
<clus scale="   80.590">  5  6 -1 -1</clus>
<clus scale="   92.195">  1  5  2 -1</clus>
<clus scale="  101.516">  7  8 -1 -1</clus>
<clus scale="   70.552">  7 10 -1 -1</clus>
<clus scale="   36.732">  2  5  1 -1</clus>
</clustering>
</event>
<event>
10    4  0.2866397E-005  0.1360673E+03  0.7546771E-02  0.1231750E+00
          4   -1    0    0  503    0 -0.00000000000E+00  0.00000000000E+00  0.54677046568E+03  0.54677046568E+03  0.00000000000E+00 0. -1.
         21   -1    0    0  501  502  0.00000000000E+00 -0.00000000000E+00 -0.80943389329E+02  0.80943389329E+02  0.00000000000E+00 0. -1.
         24    2    1    2    0    0 -0.34422155981E+02 -0.63429434543E+02  0.14687838048E+03  0.18248140645E+03  0.80734299139E+02 0.  0.
         23    2    1    2    0    0  0.75132384979E+01  0.52462873155E+02  0.24806051670E+03  0.26892901305E+03  0.89330802645E+02 0.  0.
        -13    1    3    3    0    0 -0.19957455339E+02 -0.79646573547E+02  0.91219995602E+02  0.12273126863E+03  0.00000000000E+00 0.  1.
         14    1    3    3    0    0 -0.14464700642E+02  0.16217139004E+02  0.55658384876E+02  0.59750137817E+02  0.00000000000E+00 0. -1.
        -11    1    4    4    0    0 -0.24531253844E+02 -0.14609020445E+02  0.53308056179E+02  0.60472760373E+02  0.00000000000E+00 0.  1.
         11    1    4    4    0    0  0.32044492342E+02  0.67071893600E+02  0.19475246052E+03  0.20845625268E+03  0.00000000000E+00 0. -1.
         21    1    1    2  503  502  0.58119790359E+02 -0.29911317853E+01 -0.33022227860E+02  0.66912812178E+02  0.00000000000E+00 0. -1.
          3    1    1    2  501    0 -0.31210872876E+02  0.13957693173E+02  0.10391040703E+03  0.10939062333E+03  0.00000000000E+00 0. -1.
<scales pt_clust_5="13000.00000" pt_clust_6="13000.00000" pt_clust_7="13000.00000" pt_clust_8="13000.00000" pt_clust_9="58.19671" pt_clust_10="13000.00000"></scales>
<clustering>
<clus scale="   58.197">  2  9  1 -1</clus>
<clus scale="   80.734">  5  6 -1 -1</clus>
<clus scale="   89.331">  7  8 -1 -1</clus>
<clus scale="   29.447">  7 10 -1 -1</clus>
<clus scale="  103.747">  1  5  2 -1</clus>
<clus scale="   58.197">  2  5  1 -1</clus>
</clustering>
</event>
<event>
10    4  0.2866397E-005  0.5037710E+03  0.7546771E-02  0.1054419E+00
         21   -1    0    0  503  502  0.00000000000E+00  0.00000000000E+00  0.39766181330E+03  0.39766181330E+03  0.00000000000E+00 0.  1.
          2   -1    0    0  502    0 -0.00000000000E+00 -0.00000000000E+00 -0.41785265784E+03  0.41785265784E+03  0.00000000000E+00 0. -1.
         24    2    1    2    0    0  0.29598137506E+02  0.11372921212E+03 -0.65647562184E+02  0.15631169854E+03  0.79456662688E+02 0.  0.
         23    2    1    2    0    0 -0.12316508814E+03  0.14210100379E+03 -0.29642929643E+02  0.21197061404E+03  0.93222871263E+02 0.  0.
        -11    1    3    3    0    0  0.89527929065E+01  0.88084987502E+02 -0.80986828549E+02  0.11999159938E+03  0.00000000000E+00 0.  1.
         12    1    3    3    0    0  0.20645344600E+02  0.25644224618E+02  0.15339266365E+02  0.36320099154E+02  0.00000000000E+00 0. -1.
        -13    1    4    4    0    0  0.11647021068E+02  0.26124656545E+02  0.90019458391E+01  0.29986427067E+02  0.00000000000E+00 0.  1.
         13    1    4    4    0    0 -0.13481210920E+03  0.11597634724E+03 -0.38644875483E+02  0.18198418698E+03  0.00000000000E+00 0. -1.
         21    1    1    2  503  501  0.17109194475E+02  0.37492181054E+02  0.13246560128E+03  0.13872823684E+03  0.00000000000E+00 0.  1.
          1    1    1    2  501    0  0.76457756154E+02 -0.29332239696E+03 -0.57365953997E+02  0.30850392172E+03  0.00000000000E+00 0. -1.
<scales pt_clust_5="13000.00000" pt_clust_6="13000.00000" pt_clust_7="13000.00000" pt_clust_8="13000.00000" pt_clust_9="41.21151" pt_clust_10="13000.00000"></scales>
<clustering>
<clus scale="   41.212">  1  9  2 -1</clus>
<clus scale="   79.457">  5  6 -1 -1</clus>
<clus scale="   93.223">  7  8 -1 -1</clus>
<clus scale="  147.733">  2  5  1 -1</clus>
<clus scale="  231.868">  7 10 -1 -1</clus>
<clus scale="   41.212">  1  5  2 -1</clus>
</clustering>
</event>
<event>
10    4  0.2866397E-005  0.5497891E+03  0.7546771E-02  0.1030800E+00
         21   -1    0    0  501  502  0.00000000000E+00  0.00000000000E+00  0.10431547301E+04  0.10431547301E+04  0.00000000000E+00 0. -1.
          2   -1    0    0  503    0 -0.00000000000E+00 -0.00000000000E+00 -0.33076789424E+03  0.33076789424E+03  0.00000000000E+00 0. -1.
         24    2    1    2    0    0  0.11280078934E+03 -0.17607696478E+03 -0.17599431967E+03  0.28448525879E+03  0.78935076553E+02 0.  0.
         23    2    1    2    0    0  0.12893046266E+03 -0.68988898529E+02  0.28414366216E+03  0.33255485218E+03  0.92046600378E+02 0.  0.
        -13    1    3    3    0    0  0.13608985711E+02 -0.90567549707E+02 -0.85571160771E+02  0.12533997410E+03  0.00000000000E+00 0.  1.
         14    1    3    3    0    0  0.99191803628E+02 -0.85509415075E+02 -0.90423158899E+02  0.15914528469E+03  0.00000000000E+00 0. -1.
        -11    1    4    4    0    0  0.22216683666E+02 -0.15942897748E+02  0.33881456342E+01  0.27554247451E+02  0.00000000000E+00 0.  1.
         11    1    4    4    0    0  0.10671377899E+03 -0.53046000780E+02  0.28075551652E+03  0.30500060473E+03  0.00000000000E+00 0. -1.
         21    1    1    2  503  502  0.65860222882E+02  0.61691898813E+01  0.95835629117E+02  0.11644782381E+03  0.00000000000E+00 0. -1.
          1    1    1    2  501    0 -0.30759147488E+03  0.23889667343E+03  0.50840186422E+03  0.64043468952E+03  0.00000000000E+00 0. -1.
<scales pt_clust_5="13000.00000" pt_clust_6="13000.00000" pt_clust_7="13000.00000" pt_clust_8="13000.00000" pt_clust_9="66.14853" pt_clust_10="13000.00000"></scales>
<clustering>
<clus scale="   66.149">  1  9  2 -1</clus>
<clus scale="   78.935">  5  6 -1 -1</clus>
<clus scale="   92.047">  7  8 -1 -1</clus>
<clus scale="  225.182">  2  5  1 -1</clus>
<clus scale="  234.321">  7 10 -1 -1</clus>
<clus scale="   66.149">  1  5  2 -1</clus>
</clustering>
</event>
<event>
10    4  0.2866397E-005  0.2998085E+03  0.7546771E-02  0.1134501E+00
         21   -1    0    0  501  502  0.00000000000E+00  0.00000000000E+00  0.81259248012E+02  0.81259248012E+02  0.00000000000E+00 0. -1.
          2   -1    0    0  503    0 -0.00000000000E+00 -0.00000000000E+00 -0.12158934757E+04  0.12158934757E+04  0.00000000000E+00 0. -1.
         24    2    1    2    0    0 -0.25188693180E+02  0.11302074007E+02 -0.20357796904E+03  0.22085327444E+03  0.81055365086E+02 0.  0.
         23    2    1    2    0    0  0.58856441964E+02  0.19964742708E+02 -0.10785491443E+03  0.15270590660E+03  0.88451905756E+02 0.  0.
        -13    1    3    3    0    0 -0.18650390538E+02 -0.21163801074E+02 -0.20670016821E+02  0.34971318799E+02  0.00000000000E+00 0.  1.
         14    1    3    3    0    0 -0.65383026420E+01  0.32465875081E+02 -0.18290795222E+03  0.18588195564E+03  0.00000000000E+00 0. -1.
        -11    1    4    4    0    0  0.48051525085E+02 -0.78575655108E+01 -0.90916973327E+01  0.49531296764E+02  0.00000000000E+00 0. -1.
         11    1    4    4    0    0  0.10804916879E+02  0.27822308219E+02 -0.98763217100E+02  0.10317460984E+03  0.00000000000E+00 0.  1.
         21    1    1    2  503  502 -0.17475946330E+03 -0.32638656444E+02 -0.14087253658E+03  0.22682862136E+03  0.00000000000E+00 0. -1.
          1    1    1    2  501    0  0.14109171451E+03  0.13718397289E+01 -0.68232880766E+03  0.69676492134E+03  0.00000000000E+00 0. -1.
<scales pt_clust_5="13000.00000" pt_clust_6="13000.00000" pt_clust_7="13000.00000" pt_clust_8="13000.00000" pt_clust_9="181.95950" pt_clust_10="13000.00000"></scales>
<clustering>
<clus scale="   81.055">  5  6 -1 -1</clus>
<clus scale="   85.628">  2  5  1 -1</clus>
<clus scale="   88.452">  7  8 -1 -1</clus>
<clus scale="  124.123">  7 10 -1 -1</clus>
<clus scale="  181.960">  1  9  2 -1</clus>
<clus scale="  181.960">  1  5  2 -1</clus>
</clustering>
</event>
<event>
10    4  0.2866397E-005  0.2087617E+03  0.7546771E-02  0.1168791E+00
         21   -1    0    0  503  502  0.00000000000E+00  0.00000000000E+00  0.77201046145E+03  0.77201046145E+03  0.00000000000E+00 0.  1.
          2   -1    0    0  502    0 -0.00000000000E+00 -0.00000000000E+00 -0.13153596604E+03  0.13153596604E+03  0.00000000000E+00 0. -1.
         24    2    1    2    0    0 -0.10121553616E+02 -0.12958526407E+03  0.50789763005E+02  0.16026488466E+03  0.78806387546E+02 0.  0.
         23    2    1    2    0    0 -0.18404215650E+01  0.28363903772E+02  0.11097853923E+03  0.14586526278E+03  0.90291420018E+02 0.  0.
        -11    1    3    3    0    0 -0.32689022929E+02 -0.12164588185E+03  0.32321050664E+02  0.13004208207E+03  0.00000000000E+00 0.  1.
         12    1    3    3    0    0  0.22567469313E+02 -0.79393822126E+01  0.18468712340E+02  0.30222802593E+02  0.00000000000E+00 0. -1.
        -11    1    4    4    0    0  0.17366386146E+02  0.35139147097E+02  0.11798625225E+03  0.12432661319E+03  0.00000000000E+00 0.  1.
         11    1    4    4    0    0 -0.19206807711E+02 -0.67752433249E+01 -0.70077130234E+01  0.21538649595E+02  0.00000000000E+00 0. -1.
         21    1    1    2  503  501 -0.39330122896E+02  0.12660632022E+03  0.51356830925E+03  0.53040402256E+03  0.00000000000E+00 0.  1.
          1    1    1    2  501    0  0.51292098077E+02 -0.25384959924E+02 -0.34862116071E+02  0.67012257479E+02  0.00000000000E+00 0. -1.
<scales pt_clust_5="13000.00000" pt_clust_6="13000.00000" pt_clust_7="13000.00000" pt_clust_8="13000.00000" pt_clust_9="132.57458" pt_clust_10="13000.00000"></scales>
<clustering>
<clus scale="   78.806">  5  6 -1 -1</clus>
<clus scale="   90.291">  7  8 -1 -1</clus>
<clus scale="   57.230">  7 10 -1 -1</clus>
<clus scale="  132.575">  1  9  2 -1</clus>
<clus scale="  112.797">  2  5  1 -1</clus>
<clus scale="  132.575">  1  5  2 -1</clus>
</clustering>
</event>
<event>
10    4  0.2866397E-005  0.3549475E+03  0.7546771E-02  0.1106067E+00
         -1   -1    0    0    0  501 -0.00000000000E+00  0.00000000000E+00  0.52864583346E+03  0.52864583346E+03  0.00000000000E+00 0.  1.
         21   -1    0    0  503  502  0.00000000000E+00 -0.00000000000E+00 -0.12515537648E+03  0.12515537648E+03  0.00000000000E+00 0.  1.
         24    2    1    2    0    0 -0.50717128370E+02 -0.37089592695E+02  0.10986424525E+03  0.14947528953E+03  0.79528892848E+02 0.  0.
         23    2    1    2    0    0 -0.34130130009E+01 -0.10872578348E+03  0.41541274564E+02  0.14688452481E+03  0.89534582610E+02 0.  0.
        -11    1    3    3    0    0  0.71184343687E+01 -0.23316750452E+02  0.78618671652E+02  0.82311836887E+02  0.00000000000E+00 0.  1.
         12    1    3    3    0    0 -0.57835562739E+02 -0.13772842243E+02  0.31245573603E+02  0.67163452640E+02  0.00000000000E+00 0. -1.
        -13    1    4    4    0    0  0.22379181863E+02 -0.97283230144E+01  0.37201090995E+02  0.44490327271E+02  0.00000000000E+00 0. -1.
         13    1    4    4    0    0 -0.25792194863E+02 -0.98997460470E+02  0.43401835696E+01  0.10239419754E+03  0.00000000000E+00 0.  1.
         21    1    1    2  503  501 -0.55934083730E+01 -0.43679077785E+02  0.11675635839E+02  0.45557310343E+02  0.00000000000E+00 0.  1.
         -2    1    1    2    0  502  0.59723549744E+02  0.18949445396E+03  0.24040930132E+03  0.31188408526E+03  0.00000000000E+00 0.  1.
<scales pt_clust_5="13000.00000" pt_clust_6="13000.00000" pt_clust_7="13000.00000" pt_clust_8="13000.00000" pt_clust_9="44.03576" pt_clust_10="13000.00000"></scales>
<clustering>
<clus scale="   44.036">  2  9  1 -1</clus>
<clus scale="   79.529">  5  6 -1 -1</clus>
<clus scale="   89.535">  7  8 -1 -1</clus>
<clus scale="  105.045">  1  5  2 -1</clus>
<clus scale="  148.255">  7 10 -1 -1</clus>
<clus scale="   44.036">  2  5  1 -1</clus>
</clustering>
</event>
<event>
10    4  0.2866397E-005  0.2629140E+03  0.7546771E-02  0.1141094E+00
         21   -1    0    0  501  502  0.00000000000E+00  0.00000000000E+00  0.22588540733E+03  0.22588540733E+03  0.00000000000E+00 0. -1.
          2   -1    0    0  503    0 -0.00000000000E+00 -0.00000000000E+00 -0.24574596898E+03  0.24574596898E+03  0.00000000000E+00 0. -1.
         24    2    1    2    0    0  0.24612131981E+01  0.68804025411E+02 -0.10606217813E+03  0.15041853152E+03  0.81464701006E+02 0.  0.
         23    2    1    2    0    0 -0.74065930988E+02  0.26751523375E+02 -0.28623066723E+02  0.12444027277E+03  0.92003779284E+02 0.  0.
        -11    1    3    3    0    0 -0.15663118386E+01  0.33146270990E+02 -0.10945453483E+03  0.11437405216E+03  0.00000000000E+00 0.  1.
         12    1    3    3    0    0  0.40275250367E+01  0.35657754421E+02  0.33923566917E+01  0.36044479358E+02  0.00000000000E+00 0. -1.
        -13    1    4    4    0    0 -0.80113010370E+02  0.73091375762E+01 -0.50159668409E+02  0.94802480229E+02  0.00000000000E+00 0. -1.
         13    1    4    4    0    0  0.60470793821E+01  0.19442385799E+02  0.21536601686E+02  0.29637792542E+02  0.00000000000E+00 0.  1.
         21    1    1    2  503  502  0.12041039524E+02  0.18948589454E+02  0.44366975189E+02  0.49723879199E+02  0.00000000000E+00 0. -1.
          1    1    1    2  501    0  0.59563678266E+02 -0.11450413824E+03  0.70457708012E+02  0.14704869282E+03  0.00000000000E+00 0. -1.
<scales pt_clust_5="13000.00000" pt_clust_6="13000.00000" pt_clust_7="13000.00000" pt_clust_8="13000.00000" pt_clust_9="22.45074" pt_clust_10="13000.00000"></scales>
<clustering>
<clus scale="   22.451">  1  9  2 -1</clus>
<clus scale="   81.465">  5  6 -1 -1</clus>
<clus scale="   92.004">  7  8 -1 -1</clus>
<clus scale="  108.236">  2  5  1 -1</clus>
<clus scale="  105.246">  7 10 -1 -1</clus>
<clus scale="   22.451">  1  5  2 -1</clus>
</clustering>
</event>
<event>
10    4  0.2866397E-005  0.6083418E+03  0.7546771E-02  0.1033329E+00
         21   -1    0    0  503  502  0.00000000000E+00  0.00000000000E+00  0.71508330214E+03  0.71508330214E+03  0.00000000000E+00 0. -1.
          2   -1    0    0  502    0 -0.00000000000E+00 -0.00000000000E+00 -0.61065384823E+03  0.61065384823E+03  0.00000000000E+00 0. -1.
         24    2    1    2    0    0  0.75997608866E+02  0.10767803614E+03 -0.65223462938E+02  0.16747420899E+03  0.80145583416E+02 0.  0.
         23    2    1    2    0    0  0.82868809112E+02  0.39911346564E+02 -0.22238574276E+03  0.25701309243E+03  0.90222813033E+02 0.  0.
        -13    1    3    3    0    0 -0.87470159527E+01  0.29744049208E+02  0.67053446383E+01  0.31720346753E+02  0.00000000000E+00 0.  1.
         14    1    3    3    0    0  0.84744624819E+02  0.77933986928E+02 -0.71928807577E+02  0.13575386224E+03  0.00000000000E+00 0. -1.
        -11    1    4    4    0    0  0.27826503463E+01  0.19855523424E+02 -0.27132253409E+00  0.20051398189E+02  0.00000000000E+00 0.  1.
         11    1    4    4    0    0  0.80086158766E+02  0.20055823140E+02 -0.22211442023E+03  0.23696169425E+03  0.00000000000E+00 0. -1.
         21    1    1    2  503  501  0.23557525123E+03  0.39495853749E+02  0.39854173021E+03  0.46464086365E+03  0.00000000000E+00 0. -1.
          1    1    1    2  501    0 -0.39444166920E+03 -0.18708523645E+03 -0.65030706071E+01  0.43660898528E+03  0.00000000000E+00 0. -1.
<scales pt_clust_5="13000.00000" pt_clust_6="13000.00000" pt_clust_7="13000.00000" pt_clust_8="13000.00000" pt_clust_9="245.14486" pt_clust_10="13000.00000"></scales>
<clustering>
<clus scale="   80.146">  5  6 -1 -1</clus>
<clus scale="   90.223">  7  8 -1 -1</clus>
<clus scale="  154.251">  2  5  1 -1</clus>
<clus scale="  245.145">  1  9  2 -1</clus>
<clus scale="  216.262">  7 10 -1 -1</clus>
<clus scale="  245.145">  1  5  2 -1</clus>
</clustering>
</event>
<event>
10    4  0.2866397E-005  0.4061469E+03  0.7546771E-02  0.1078426E+00
          2   -1    0    0  503    0 -0.00000000000E+00  0.00000000000E+00  0.13667424015E+04  0.13667424015E+04  0.00000000000E+00 0. -1.
         21   -1    0    0  501  502  0.00000000000E+00 -0.00000000000E+00 -0.13998178004E+03  0.13998178004E+03  0.00000000000E+00 0.  1.
         24    2    1    2    0    0  0.11586639549E+03  0.40561842952E+02  0.22820792350E+03  0.27047031451E+03  0.77492257527E+02 0.  0.
         23    2    1    2    0    0 -0.56674658906E+02  0.11281377960E+03  0.30512120996E+03  0.34280087274E+03  0.92057154808E+02 0.  0.
        -11    1    3    3    0    0  0.10658792859E+03  0.54756384244E+01  0.14835624365E+03  0.18275815759E+03  0.00000000000E+00 0.  1.
         12    1    3    3    0    0  0.92784668990E+01  0.35086204528E+02  0.79851679853E+02  0.87712156920E+02  0.00000000000E+00 0. -1.
        -13    1    4    4    0    0  0.11798644975E+02  0.67038500614E+02  0.92992889748E+02  0.11524342121E+03  0.00000000000E+00 0.  1.
         13    1    4    4    0    0 -0.68473303881E+02  0.45775278990E+02  0.21212832021E+03  0.22755745153E+03  0.00000000000E+00 0. -1.
         21    1    1    2  503  502 -0.17716920924E+03  0.25619539294E+02  0.12359338039E+02  0.17943813066E+03  0.00000000000E+00 0.  1.
          1    1    1    2  501    0  0.11797747266E+03 -0.17899516185E+03  0.68107214994E+03  0.71401486360E+03  0.00000000000E+00 0. -1.
<scales pt_clust_5="13000.00000" pt_clust_6="13000.00000" pt_clust_7="13000.00000" pt_clust_8="13000.00000" pt_clust_9="169.73840" pt_clust_10="13000.00000"></scales>
<clustering>
<clus scale="   77.492">  5  6 -1 -1</clus>
<clus scale="   92.057">  7  8 -1 -1</clus>
<clus scale="  145.173">  1  5  2 -1</clus>
<clus scale="  169.738">  2  9  1 -1</clus>
<clus scale="  172.387">  7 10 -1 -1</clus>
<clus scale="  169.738">  2  5  1 -1</clus>
</clustering>
</event>
<event>
10    4  0.2866397E-005  0.2747349E+03  0.7546771E-02  0.1138387E+00
         21   -1    0    0  501  502  0.00000000000E+00  0.00000000000E+00  0.46676305749E+03  0.46676305749E+03  0.00000000000E+00 0. -1.
          4   -1    0    0  503    0 -0.00000000000E+00 -0.00000000000E+00 -0.29322674219E+03  0.29322674219E+03  0.00000000000E+00 0. -1.
         24    2    1    2    0    0  0.60279929394E+02  0.40218788222E+01 -0.23123561073E+03  0.25234641933E+03  0.80987420522E+02 0.  0.
         23    2    1    2    0    0 -0.23312868598E+02  0.10243715088E+03  0.94666414364E+02  0.17255549593E+03  0.98877750002E+02 0.  0.
        -11    1    3    3    0    0  0.54119494310E+02 -0.17852631406E+02 -0.73613452234E+02  0.93094449149E+02  0.00000000000E+00 0.  1.
         12    1    3    3    0    0  0.61604350844E+01  0.21874510229E+02 -0.15762215850E+03  0.15925197018E+03  0.00000000000E+00 0. -1.
        -11    1    4    4    0    0 -0.41798601573E+02  0.25927601742E+02 -0.32871541458E+00  0.49188125390E+02  0.00000000000E+00 0.  1.
         11    1    4    4    0    0  0.18485732976E+02  0.76509549138E+02  0.94995129778E+02  0.12336737054E+03  0.00000000000E+00 0. -1.
         21    1    1    2  503  502  0.15003252507E+02 -0.14999199054E+02  0.64610791979E+02  0.68004617477E+02  0.00000000000E+00 0.  1.
          3    1    1    2  501    0 -0.51970313304E+02 -0.91459830649E+02  0.24549471968E+03  0.26708326694E+03  0.00000000000E+00 0. -1.
<scales pt_clust_5="13000.00000" pt_clust_6="13000.00000" pt_clust_7="13000.00000" pt_clust_8="13000.00000" pt_clust_9="21.21494" pt_clust_10="13000.00000"></scales>
<clustering>
<clus scale="   21.215">  1  9  2 -1</clus>
<clus scale="   80.987">  5  6 -1 -1</clus>
<clus scale="   98.878">  7  8 -1 -1</clus>
<clus scale="  101.260">  2  5  1 -1</clus>
<clus scale="  103.665">  7 10 -1 -1</clus>
<clus scale="   21.215">  1  5  2 -1</clus>
</clustering>
</event>
<event>
10    4  0.2866397E-005  0.4054350E+03  0.7546771E-02  0.1069257E+00
         21   -1    0    0  503  502  0.00000000000E+00  0.00000000000E+00  0.97309574492E+03  0.97309574492E+03  0.00000000000E+00 0.  1.
          4   -1    0    0  502    0 -0.00000000000E+00 -0.00000000000E+00 -0.71454881899E+03  0.71454881899E+03  0.00000000000E+00 0. -1.
         24    2    1    2    0    0 -0.16984009041E+03 -0.26422246337E+02 -0.14303410247E+03  0.23572222035E+03  0.74581628313E+02 0.  0.
         23    2    1    2    0    0  0.42154542287E+02  0.96969025640E+02 -0.11673108292E+03  0.18255482233E+03  0.92304496465E+02 0.  0.
        -13    1    3    3    0    0 -0.13981719137E+03 -0.16761740438E+02 -0.14743292461E+03  0.20387807681E+03  0.00000000000E+00 0.  1.
         14    1    3    3    0    0 -0.30022899044E+02 -0.96605058998E+01  0.43988221394E+01  0.31844143534E+02  0.00000000000E+00 0. -1.
        -13    1    4    4    0    0  0.30829216570E+02  0.56444093701E+02 -0.65919153845E+01  0.64651602118E+02  0.00000000000E+00 0.  1.
         13    1    4    4    0    0  0.11325325717E+02  0.40524931939E+02 -0.11013916753E+03  0.11790322021E+03  0.00000000000E+00 0. -1.
         21    1    1    2  503  501  0.57057155235E+02 -0.36150242655E+03  0.78645666313E+03  0.86744083737E+03  0.00000000000E+00 0.  1.
          3    1    1    2  501    0  0.70628392891E+02  0.29095564724E+03 -0.26814455180E+03  0.40192668387E+03  0.00000000000E+00 0. -1.
<scales pt_clust_5="13000.00000" pt_clust_6="13000.00000" pt_clust_7="13000.00000" pt_clust_8="13000.00000" pt_clust_9="366.18812" pt_clust_10="13000.00000"></scales>
<clustering>
<clus scale="   74.582">  5  6 -1 -1</clus>
<clus scale="   92.304">  7  8 -1 -1</clus>
<clus scale="  187.367">  2  5  1 -1</clus>
<clus scale="  276.683">  7 10 -1 -1</clus>
<clus scale="  366.188">  1  9  2 -1</clus>
<clus scale="  366.188">  1  5  2 -1</clus>
</clustering>
</event>
<event>
10    4  0.2866397E-005  0.6447800E+03  0.7546771E-02  0.1014303E+00
          2   -1    0    0  503    0 -0.00000000000E+00  0.00000000000E+00  0.20755963431E+04  0.20755963431E+04  0.00000000000E+00 0. -1.
         21   -1    0    0  501  502  0.00000000000E+00 -0.00000000000E+00 -0.15324829894E+03  0.15324829894E+03  0.00000000000E+00 0. -1.
         24    2    1    2    0    0 -0.54286751588E+02  0.22988175683E+03  0.42903075862E+03  0.49627723381E+03  0.80193686963E+02 0.  0.
         23    2    1    2    0    0  0.23545251593E+03  0.11629883801E+03  0.45323934836E+03  0.53232274572E+03  0.94753848106E+02 0.  0.
        -13    1    3    3    0    0  0.52907539263E+01  0.30215391719E+02  0.11785963841E+03  0.12178610898E+03  0.00000000000E+00 0.  1.
         14    1    3    3    0    0 -0.59577505514E+02  0.19966636512E+03  0.31117112021E+03  0.37449112483E+03  0.00000000000E+00 0. -1.
        -11    1    4    4    0    0  0.78813236480E+02  0.54325753992E+02  0.25386391687E+03  0.27131107991E+03  0.00000000000E+00 0.  1.
         11    1    4    4    0    0  0.15663927945E+03  0.61973084019E+02  0.19937543148E+03  0.26101166581E+03  0.00000000000E+00 0. -1.
         21    1    1    2  503  502 -0.19799847210E+02 -0.68410237228E+02 -0.34171840182E+02  0.78991829758E+02  0.00000000000E+00 0. -1.
          1    1    1    2  501    0 -0.16136591713E+03 -0.27777035762E+03  0.10742497773E+04  0.11212528327E+04  0.00000000000E+00 0. -1.
<scales pt_clust_5="13000.00000" pt_clust_6="13000.00000" pt_clust_7="13000.00000" pt_clust_8="13000.00000" pt_clust_9="71.21794" pt_clust_10="13000.00000"></scales>
<clustering>
<clus scale="   71.218">  2  9  1 -1</clus>
<clus scale="   80.194">  5  6 -1 -1</clus>
<clus scale="   94.754">  7  8 -1 -1</clus>
<clus scale="  229.445">  1  5  2 -1</clus>
<clus scale="  255.213">  7 10 -1 -1</clus>
<clus scale="   71.218">  2  5  1 -1</clus>
</clustering>
</event>
<event>
10    4  0.2866397E-005  0.4193739E+03  0.7546771E-02  0.1073065E+00
          2   -1    0    0  502    0 -0.00000000000E+00  0.00000000000E+00  0.68266951454E+03  0.68266951454E+03  0.00000000000E+00 0. -1.
         21   -1    0    0  503  502  0.00000000000E+00 -0.00000000000E+00 -0.23068715326E+03  0.23068715326E+03  0.00000000000E+00 0.  1.
         24    2    1    2    0    0  0.12999040987E+03 -0.16667117049E+02  0.10560147730E+03  0.18666598772E+03  0.80729297747E+02 0.  0.
         23    2    1    2    0    0  0.51707591915E+02 -0.28911663719E+02 -0.29136807366E+02  0.11416101865E+03  0.93135521012E+02 0.  0.
        -11    1    3    3    0    0  0.11379423314E+03 -0.23280927461E+02  0.46642947158E+02  0.12516666329E+03  0.00000000000E+00 0.  1.
         12    1    3    3    0    0  0.16196176726E+02  0.66138104126E+01  0.58958530139E+02  0.61499324426E+02  0.00000000000E+00 0. -1.
        -11    1    4    4    0    0  0.11372123697E+02  0.33306155771E+02 -0.16780884442E+02  0.38990040937E+02  0.00000000000E+00 0.  1.
         11    1    4    4    0    0  0.40335468218E+02 -0.62217819490E+02 -0.12355922925E+02  0.75170977709E+02  0.00000000000E+00 0. -1.
         21    1    1    2  503  501 -0.56933213881E+01  0.11048008788E+03 -0.68772134261E+02  0.13026077759E+03  0.00000000000E+00 0.  1.
          1    1    1    2  501    0 -0.17600468039E+03 -0.64901307113E+02  0.44428982562E+03  0.48226888385E+03  0.00000000000E+00 0. -1.
<scales pt_clust_5="13000.00000" pt_clust_6="13000.00000" pt_clust_7="13000.00000" pt_clust_8="13000.00000" pt_clust_9="110.62669" pt_clust_10="13000.00000"></scales>
<clustering>
<clus scale="   80.729">  5  6 -1 -1</clus>
<clus scale="   93.136">  7  8 -1 -1</clus>
<clus scale="  110.627">  2  9  1 -1</clus>
<clus scale="  152.531">  1  5  2 -1</clus>
<clus scale="   75.145">  7 10 -1 -1</clus>
<clus scale="  110.627">  2  5  1 -1</clus>
</clustering>
</event>
<event>
10    4  0.2866397E-005  0.1749809E+03  0.7546771E-02  0.1207262E+00
          2   -1    0    0  503    0 -0.00000000000E+00  0.00000000000E+00  0.83604093734E+02  0.83604093734E+02  0.00000000000E+00 0. -1.
         21   -1    0    0  501  502  0.00000000000E+00 -0.00000000000E+00 -0.30518407887E+03  0.30518407887E+03  0.00000000000E+00 0. -1.
         24    2    1    2    0    0 -0.43664741807E+01  0.21539031677E+02 -0.53903403471E+02  0.99577682634E+02  0.80790729608E+02 0.  0.
         23    2    1    2    0    0 -0.33407709949E+02 -0.43751809381E+02 -0.48186544276E+02  0.11682550014E+03  0.91082152620E+02 0.  0.
        -13    1    3    3    0    0 -0.37654353062E+02  0.13253503387E+02 -0.55657038106E+01  0.40304872106E+02  0.00000000000E+00 0.  1.
         14    1    3    3    0    0  0.33287878881E+02  0.82855282899E+01 -0.48337699660E+02  0.59272810528E+02  0.00000000000E+00 0. -1.
        -13    1    4    4    0    0 -0.63862445778E+02 -0.24560371097E+02 -0.42044727595E+02  0.80308050205E+02  0.00000000000E+00 0. -1.
         13    1    4    4    0    0  0.30454735828E+02 -0.19191438284E+02 -0.61418166809E+01  0.36517449937E+02  0.00000000000E+00 0.  1.
         21    1    1    2  503  502 -0.45849999485E+01 -0.31732843085E+02 -0.93824323347E+02  0.99151395382E+02  0.00000000000E+00 0.  1.
          1    1    1    2  501    0  0.42359184079E+02  0.53945620789E+02 -0.25665714042E+02  0.73233594446E+02  0.00000000000E+00 0. -1.
<scales pt_clust_5="13000.00000" pt_clust_6="13000.00000" pt_clust_7="13000.00000" pt_clust_8="13000.00000" pt_clust_9="32.06237" pt_clust_10="13000.00000"></scales>
<clustering>
<clus scale="   32.062">  2  9  1 -1</clus>
<clus scale="   80.791">  5  6 -1 -1</clus>
<clus scale="   81.616">  1  5  2 -1</clus>
<clus scale="   91.082">  7  8 -1 -1</clus>
<clus scale="   63.367">  7 10 -1 -1</clus>
<clus scale="   32.062">  2  5  1 -1</clus>
</clustering>
</event>
<event>
10    4  0.2866397E-005  0.1592498E+03  0.7546771E-02  0.1201923E+00
          4   -1    0    0  503    0 -0.00000000000E+00  0.00000000000E+00  0.27730735673E+03  0.27730735673E+03  0.00000000000E+00 0. -1.
         21   -1    0    0  501  502  0.00000000000E+00 -0.00000000000E+00 -0.23059217886E+03  0.23059217886E+03  0.00000000000E+00 0.  1.
         24    2    1    2    0    0  0.55934850216E+02 -0.88732724168E+02 -0.71691878523E+02  0.14979783940E+03  0.79356558865E+02 0.  0.
         23    2    1    2    0    0 -0.67744973166E+02  0.23814273637E+02  0.10841510399E+03  0.15901187240E+03  0.91511965179E+02 0.  0.
        -13    1    3    3    0    0  0.50880718458E+02 -0.96350582409E+02 -0.38804740088E+02  0.11566369393E+03  0.00000000000E+00 0.  1.
         14    1    3    3    0    0  0.50541317584E+01  0.76178582410E+01 -0.32887138435E+02  0.34134145462E+02  0.00000000000E+00 0. -1.
        -13    1    4    4    0    0 -0.73928226644E+01  0.48650963054E+02  0.60834503879E+02  0.78245810720E+02  0.00000000000E+00 0.  1.
         13    1    4    4    0    0 -0.60352150501E+02 -0.24836689417E+02  0.47580600114E+02  0.80766061675E+02  0.00000000000E+00 0. -1.
         21    1    1    2  503  502  0.20972540223E+02  0.40464929891E+02 -0.87231475277E+02  0.98420466740E+02  0.00000000000E+00 0.  1.
          3    1    1    2  501    0 -0.91624172732E+01  0.24453520640E+02  0.97223427678E+02  0.10066935706E+03  0.00000000000E+00 0. -1.
<scales pt_clust_5="13000.00000" pt_clust_6="13000.00000" pt_clust_7="13000.00000" pt_clust_8="13000.00000" pt_clust_9="45.57695" pt_clust_10="13000.00000"></scales>
<clustering>
<clus scale="   45.577">  2  9  1 -1</clus>
<clus scale="   79.357">  5  6 -1 -1</clus>
<clus scale="   91.512">  7  8 -1 -1</clus>
<clus scale="   26.499">  7 10 -1 -1</clus>
<clus scale="  121.472">  1  5  2 -1</clus>
<clus scale="   45.577">  2  5  1 -1</clus>
</clustering>
</event>
<event>
10    4  0.2866397E-005  0.3634723E+03  0.7546771E-02  0.1109796E+00
          2   -1    0    0  502    0 -0.00000000000E+00  0.00000000000E+00  0.17525953226E+04  0.17525953226E+04  0.00000000000E+00 0. -1.
         21   -1    0    0  503  502  0.00000000000E+00 -0.00000000000E+00 -0.96850231285E+02  0.96850231285E+02  0.00000000000E+00 0.  1.
         24    2    1    2    0    0 -0.34197355891E+02 -0.90217260275E+01  0.16202159017E+03  0.18482305926E+03  0.81594833557E+02 0.  0.
         23    2    1    2    0    0 -0.51517618822E+02  0.85569579542E+02  0.41301350086E+03  0.43327185148E+03  0.84664794341E+02 0.  0.
        -11    1    3    3    0    0 -0.40666238334E+02  0.24725108398E+02  0.12759768324E+03  0.13618459051E+03  0.00000000000E+00 0.  1.
         12    1    3    3    0    0  0.64688824437E+01 -0.33746834425E+02  0.34423906935E+02  0.48638468751E+02  0.00000000000E+00 0. -1.
        -11    1    4    4    0    0 -0.26459290304E+02  0.71530627106E+02  0.38724496065E+03  0.39468390416E+03  0.00000000000E+00 0. -1.
         11    1    4    4    0    0 -0.25058328518E+02  0.14038952437E+02  0.25768540214E+02  0.38587947320E+02  0.00000000000E+00 0.  1.
         21    1    1    2  503  501 -0.13356975453E+03 -0.19188911736E+03  0.17412125179E+03  0.29151419007E+03  0.00000000000E+00 0.  1.
          1    1    1    2  501    0  0.21928472924E+03  0.11534126385E+03  0.90658874852E+03  0.93983645309E+03  0.00000000000E+00 0. -1.
<scales pt_clust_5="13000.00000" pt_clust_6="13000.00000" pt_clust_7="13000.00000" pt_clust_8="13000.00000" pt_clust_9="237.79571" pt_clust_10="13000.00000"></scales>
<clustering>
<clus scale="   81.595">  5  6 -1 -1</clus>
<clus scale="   84.665">  7  8 -1 -1</clus>
<clus scale="   88.930">  1  5  2 -1</clus>
<clus scale="  227.667">  7 10 -1 -1</clus>
<clus scale="  237.796">  2  9  1 -1</clus>
<clus scale="  237.796">  2  5  1 -1</clus>
</clustering>
</event>
<event>
10    4  0.2866397E-005  0.3430988E+03  0.7546771E-02  0.1074671E+00
         21   -1    0    0  501  502  0.00000000000E+00  0.00000000000E+00  0.25043432675E+03  0.25043432675E+03  0.00000000000E+00 0.  1.
          2   -1    0    0  503    0 -0.00000000000E+00 -0.00000000000E+00 -0.67116477281E+03  0.67116477281E+03  0.00000000000E+00 0. -1.
         24    2    1    2    0    0 -0.24714026419E+03 -0.25136965623E+02 -0.25245335272E+03  0.36412356319E+03  0.84516842947E+02 0.  0.
         23    2    1    2    0    0  0.13468665525E+03  0.95918321513E+02 -0.13586881378E+03  0.23299500490E+03  0.92116872746E+02 0.  0.
        -13    1    3    3    0    0 -0.18880309363E+03  0.14157479402E+02 -0.20621579253E+03  0.27994998745E+03  0.00000000000E+00 0.  1.
         14    1    3    3    0    0 -0.58337170562E+02 -0.39294445026E+02 -0.46237560195E+02  0.84173575734E+02  0.00000000000E+00 0. -1.
        -13    1    4    4    0    0  0.13236082146E+03  0.54047257118E+02 -0.82306843509E+02  0.16496942004E+03  0.00000000000E+00 0. -1.
         13    1    4    4    0    0  0.23258337951E+01  0.41871064394E+02 -0.53561970269E+02  0.68025584859E+02  0.00000000000E+00 0.  1.
         21    1    1    2  503  502 -0.13294781836E+02  0.25992098586E+02  0.10844584873E+03  0.11230691217E+03  0.00000000000E+00 0. -1.
          1    1    1    2  501    0  0.12574839077E+03 -0.96773454475E+02 -0.14085412829E+03  0.21217361930E+03  0.00000000000E+00 0. -1.
<scales pt_clust_5="13000.00000" pt_clust_6="13000.00000" pt_clust_7="13000.00000" pt_clust_8="13000.00000" pt_clust_9="29.19487" pt_clust_10="13000.00000"></scales>
<clustering>
<clus scale="   29.195">  1  9  2 -1</clus>
<clus scale="   84.517">  5  6 -1 -1</clus>
<clus scale="   92.117">  7  8 -1 -1</clus>
<clus scale="  151.990">  7 10 -1 -1</clus>
<clus scale="  266.622">  2  5  1 -1</clus>
<clus scale="   29.195">  1  5  2 -1</clus>
</clustering>
</event>
<event>
10    4  0.2866397E-005  0.3061406E+03  0.7546771E-02  0.1103822E+00
          2   -1    0    0  502    0 -0.00000000000E+00  0.00000000000E+00  0.12188459469E+04  0.12188459469E+04  0.00000000000E+00 0. -1.
         21   -1    0    0  503  502  0.00000000000E+00 -0.00000000000E+00 -0.17061548138E+03  0.17061548138E+03  0.00000000000E+00 0.  1.
         24    2    1    2    0    0  0.24929853934E+02  0.14706728340E+03  0.26500550629E+03  0.31472751818E+03  0.81087661671E+02 0.  0.
         23    2    1    2    0    0 -0.48211059874E+02  0.40221932099E+02  0.24831810013E+03  0.27228008277E+03  0.92371286174E+02 0.  0.
        -13    1    3    3    0    0 -0.54770986582E+01  0.66767100110E+02  0.51174922497E+02  0.84301346131E+02  0.00000000000E+00 0.  1.
         14    1    3    3    0    0  0.30406952592E+02  0.80300183285E+02  0.21383058379E+03  0.23042617205E+03  0.00000000000E+00 0. -1.
        -11    1    4    4    0    0 -0.62090086382E+02  0.15163133766E+02  0.84358475546E+02  0.10583691156E+03  0.00000000000E+00 0.  1.
         11    1    4    4    0    0  0.13879026508E+02  0.25058798333E+02  0.16395962458E+03  0.16644317121E+03  0.00000000000E+00 0. -1.
         21    1    1    2  503  501  0.22820693649E+02  0.39419457577E+01 -0.11896171313E+03  0.12119493465E+03  0.00000000000E+00 0.  1.
          1    1    1    2  501    0  0.46051229066E+00 -0.19123116125E+03  0.65386857227E+03  0.68125889272E+03  0.00000000000E+00 0. -1.
<scales pt_clust_5="13000.00000" pt_clust_6="13000.00000" pt_clust_7="13000.00000" pt_clust_8="13000.00000" pt_clust_9="23.15865" pt_clust_10="13000.00000"></scales>
<clustering>
<clus scale="   23.159">  2  9  1 -1</clus>
<clus scale="   81.088">  5  6 -1 -1</clus>
<clus scale="   92.371">  7  8 -1 -1</clus>
<clus scale="  173.452">  1  5  2 -1</clus>
<clus scale="   88.665">  7 10 -1 -1</clus>
<clus scale="   23.159">  2  5  1 -1</clus>
</clustering>
</event>
<event>
10    4  0.2866397E-005  0.6055792E+03  0.7546771E-02  0.1042005E+00
         21   -1    0    0  503  502  0.00000000000E+00  0.00000000000E+00  0.28546073981E+03  0.28546073981E+03  0.00000000000E+00 0. -1.
          2   -1    0    0  502    0 -0.00000000000E+00 -0.00000000000E+00 -0.86067889187E+03  0.86067889187E+03  0.00000000000E+00 0. -1.
         24    2    1    2    0    0 -0.31758856915E+02 -0.85007453588E+02 -0.46180843480E+03  0.47747016892E+03  0.80472601571E+02 0.  0.
         23    2    1    2    0    0 -0.21471351029E+03 -0.11651920312E+03 -0.17409010533E+03  0.31372324006E+03  0.91849280794E+02 0.  0.
        -11    1    3    3    0    0 -0.21640747453E+02  0.66689228689E+01 -0.42702149968E+02  0.48334977960E+02  0.00000000000E+00 0.  1.
         12    1    3    3    0    0 -0.10118109463E+02 -0.91676376457E+02 -0.41910628483E+03  0.42913519096E+03  0.00000000000E+00 0. -1.
        -13    1    4    4    0    0 -0.14457963425E+03 -0.26765027338E+02 -0.95166234137E+02  0.17514636579E+03  0.00000000000E+00 0.  1.
         13    1    4    4    0    0 -0.70133876036E+02 -0.89754175785E+02 -0.78923871193E+02  0.13857687427E+03  0.00000000000E+00 0. -1.
         21    1    1    2  503  501  0.18787702899E+02 -0.95054319300E+01  0.38289412505E+02  0.43696797667E+02  0.00000000000E+00 0.  1.
          1    1    1    2  501    0  0.22768466430E+03  0.21103208864E+03  0.22390975563E+02  0.31124942503E+03  0.00000000000E+00 0. -1.
<scales pt_clust_5="13000.00000" pt_clust_6="13000.00000" pt_clust_7="13000.00000" pt_clust_8="13000.00000" pt_clust_9="21.05543" pt_clust_10="13000.00000"></scales>
<clustering>
<clus scale="   21.055">  1  9  2 -1</clus>
<clus scale="   80.473">  5  6 -1 -1</clus>
<clus scale="   91.849">  7  8 -1 -1</clus>
<clus scale="  121.345">  2  5  1 -1</clus>
<clus scale="  285.664">  7 10 -1 -1</clus>
<clus scale="   21.055">  1  5  2 -1</clus>
</clustering>
</event>
<event>
10    4  0.2866397E-005  0.1821709E+03  0.7546771E-02  0.1199605E+00
          2   -1    0    0  502    0 -0.00000000000E+00  0.00000000000E+00  0.43636505130E+03  0.43636505130E+03  0.00000000000E+00 0. -1.
         21   -1    0    0  503  502  0.00000000000E+00 -0.00000000000E+00 -0.87666573183E+02  0.87666573183E+02  0.00000000000E+00 0. -1.
         24    2    1    2    0    0 -0.23009385073E+02  0.15837995520E+02  0.21362044948E+03  0.22978320658E+03  0.79914652525E+02 0.  0.
         23    2    1    2    0    0 -0.21264066820E+02  0.11579718204E+02  0.32190937650E+02  0.99332032008E+02  0.90798379416E+02 0.  0.
        -11    1    3    3    0    0 -0.39644818160E+02 -0.83901788900E+01  0.18263570450E+03  0.18707727619E+03  0.00000000000E+00 0.  1.
         12    1    3    3    0    0  0.16635433087E+02  0.24228174410E+02  0.30984744980E+02  0.42705930393E+02  0.00000000000E+00 0. -1.
        -13    1    4    4    0    0 -0.30551664497E+01 -0.33885159092E+02 -0.91601927500E+01  0.35234176306E+02  0.00000000000E+00 0.  1.
         13    1    4    4    0    0 -0.18208900370E+02  0.45464877296E+02  0.41351130400E+02  0.64097855702E+02  0.00000000000E+00 0. -1.
         21    1    1    2  503  501  0.92520236633E+01  0.30544161500E+02 -0.31241952206E+02  0.44661004481E+02  0.00000000000E+00 0. -1.
          1    1    1    2  501    0  0.35021428230E+02 -0.57961875225E+02  0.13412904319E+03  0.15025538141E+03  0.00000000000E+00 0. -1.
<scales pt_clust_5="13000.00000" pt_clust_6="13000.00000" pt_clust_7="13000.00000" pt_clust_8="13000.00000" pt_clust_9="31.91466" pt_clust_10="13000.00000"></scales>
<clustering>
<clus scale="   31.915">  2  9  1 -1</clus>
<clus scale="   79.915">  5  6 -1 -1</clus>
<clus scale="   85.332">  1  5  2 -1</clus>
<clus scale="   90.798">  7  8 -1 -1</clus>
<clus scale="   46.339">  7 10 -1 -1</clus>
<clus scale="   31.915">  2  5  1 -1</clus>
</clustering>
</event>
<event>
10    4  0.2866397E-005  0.3359550E+03  0.7546771E-02  0.1118847E+00
         21   -1    0    0  503  502  0.00000000000E+00  0.00000000000E+00  0.15212320466E+03  0.15212320466E+03  0.00000000000E+00 0. -1.
          2   -1    0    0  502    0 -0.00000000000E+00 -0.00000000000E+00 -0.47997646184E+03  0.47997646184E+03  0.00000000000E+00 0. -1.
         24    2    1    2    0    0  0.52402446896E+01 -0.38406066411E+02 -0.47611739170E+02  0.10142144722E+03  0.80727604623E+02 0.  0.
         23    2    1    2    0    0  0.30654862802E+02 -0.54317662988E+02 -0.35853998335E+03  0.37479702574E+03  0.89620096607E+02 0.  0.
        -13    1    3    3    0    0 -0.95379840522E+01  0.23258027350E+02 -0.20589050286E+02  0.32493352669E+02  0.00000000000E+00 0.  1.
         14    1    3    3    0    0  0.14778228742E+02 -0.61664093761E+02 -0.27022688884E+02  0.68928094553E+02  0.00000000000E+00 0. -1.
        -13    1    4    4    0    0  0.15131744362E+01 -0.56541070828E+02 -0.32676824640E+03  0.33162730473E+03  0.00000000000E+00 0. -1.
         13    1    4    4    0    0  0.29141688365E+02  0.22234078393E+01 -0.31771736954E+02  0.43169721012E+02  0.00000000000E+00 0.  1.
         21    1    1    2  503  501 -0.20643918260E+02 -0.16449594321E+01  0.53140106473E+02  0.57032869195E+02  0.00000000000E+00 0. -1.
          1    1    1    2  501    0 -0.15251189231E+02  0.94368688831E+02  0.25158358873E+02  0.98848324346E+02  0.00000000000E+00 0. -1.
<scales pt_clust_5="13000.00000" pt_clust_6="13000.00000" pt_clust_7="13000.00000" pt_clust_8="13000.00000" pt_clust_9="20.70935" pt_clust_10="13000.00000"></scales>
<clustering>
<clus scale="   20.709">  1  9  2 -1</clus>
<clus scale="   80.728">  5  6 -1 -1</clus>
<clus scale="   89.596">  2  5  1 -1</clus>
<clus scale="   89.620">  7  8 -1 -1</clus>
<clus scale="   93.884">  7 10 -1 -1</clus>
<clus scale="   20.709">  1  5  2 -1</clus>
</clustering>
</event>
<event>
10    4  0.2866397E-005  0.3806911E+03  0.7546771E-02  0.1073599E+00
          2   -1    0    0  503    0 -0.00000000000E+00  0.00000000000E+00  0.15722177171E+04  0.15722177171E+04  0.00000000000E+00 0. -1.
         21   -1    0    0  501  502  0.00000000000E+00 -0.00000000000E+00 -0.94872565269E+02  0.94872565269E+02  0.00000000000E+00 0. -1.
         24    2    1    2    0    0 -0.59060270206E+02 -0.16727924374E+03  0.97367692500E+03  0.99342016603E+03  0.85827799061E+02 0.  0.
         23    2    1    2    0    0 -0.91402059566E+02  0.20617582833E+01  0.25049176197E+03  0.28163277721E+03  0.90621802247E+02 0.  0.
        -11    1    3    3    0    0 -0.66223298230E+02 -0.59457149530E+02  0.44538083491E+03  0.45418582756E+03  0.00000000000E+00 0.  1.
         12    1    3    3    0    0  0.71630280238E+01 -0.10782209421E+03  0.52829609009E+03  0.53923433846E+03  0.00000000000E+00 0. -1.
        -13    1    4    4    0    0  0.31012425643E+01 -0.28206830867E+02  0.72372745977E+02  0.77737104225E+02  0.00000000000E+00 0.  1.
         13    1    4    4    0    0 -0.94503302130E+02  0.30268589150E+02  0.17811901599E+03  0.20389567298E+03  0.00000000000E+00 0. -1.
         21    1    1    2  503  502 -0.83368725252E+01 -0.33423547038E+02  0.18618804850E+01  0.34497877312E+02  0.00000000000E+00 0. -1.
          1    1    1    2  501    0  0.15879920230E+03  0.19864103250E+03  0.25131458439E+03  0.35753946183E+03  0.00000000000E+00 0. -1.
<scales pt_clust_5="13000.00000" pt_clust_6="13000.00000" pt_clust_7="13000.00000" pt_clust_8="13000.00000" pt_clust_9="34.44760" pt_clust_10="13000.00000"></scales>
<clustering>
<clus scale="   34.448">  2  9  1 -1</clus>
<clus scale="   85.828">  5  6 -1 -1</clus>
<clus scale="   90.622">  7  8 -1 -1</clus>
<clus scale="  200.959">  1  5  2 -1</clus>
<clus scale="  154.944">  7 10 -1 -1</clus>
<clus scale="   34.448">  2  5  1 -1</clus>
</clustering>
</event>
<event>
10    4  0.2866397E-005  0.1939220E+03  0.7546771E-02  0.1186691E+00
         21   -1    0    0  503  502  0.00000000000E+00  0.00000000000E+00  0.15163643880E+03  0.15163643880E+03  0.00000000000E+00 0.  1.
         -3   -1    0    0    0  501 -0.00000000000E+00 -0.00000000000E+00 -0.16479580581E+03  0.16479580581E+03  0.00000000000E+00 0.  1.
         24    2    1    2    0    0 -0.53627627533E+02  0.19939883670E+02 -0.17085087004E+02  0.99440627931E+02  0.79517399919E+02 0.  0.
         23    2    1    2    0    0  0.24942465232E+02 -0.76904349738E+02  0.32995105890E+01  0.12167863865E+03  0.90875732470E+02 0.  0.
        -11    1    3    3    0    0 -0.73608126888E+02  0.12523074955E+02 -0.21449513213E+02  0.77685683156E+02  0.00000000000E+00 0.  1.
         12    1    3    3    0    0  0.19980499356E+02  0.74168087149E+01  0.43644262089E+01  0.21754944775E+02  0.00000000000E+00 0. -1.
        -13    1    4    4    0    0 -0.48809603137E+01 -0.50517553144E+02  0.42203916314E+02  0.66007707894E+02  0.00000000000E+00 0.  1.
         13    1    4    4    0    0  0.29823425546E+02 -0.26386796595E+02 -0.38904405725E+02  0.55670930751E+02  0.00000000000E+00 0. -1.
         21    1    1    2  503  501  0.20668943335E+02 -0.10510301273E+02  0.12487111298E+02  0.26336279160E+02  0.00000000000E+00 0. -1.
         -4    1    1    2    0  502  0.80162189662E+01  0.67474767342E+02 -0.11860901891E+02  0.68976698877E+02  0.00000000000E+00 0.  1.
<scales pt_clust_5="13000.00000" pt_clust_6="13000.00000" pt_clust_7="13000.00000" pt_clust_8="13000.00000" pt_clust_9="23.18775" pt_clust_10="13000.00000"></scales>
<clustering>
<clus scale="   23.188">  1  9  2 -1</clus>
<clus scale="   79.517">  5  6 -1 -1</clus>
<clus scale="   90.876">  7  8 -1 -1</clus>
<clus scale="   66.388">  7 10 -1 -1</clus>
<clus scale="   93.956">  2  5  1 -1</clus>
<clus scale="   23.188">  1  5  2 -1</clus>
</clustering>
</event>
<event>
10    4  0.2866397E-005  0.1856984E+03  0.7546771E-02  0.1196946E+00
         21   -1    0    0  501  502  0.00000000000E+00  0.00000000000E+00  0.34731100099E+03  0.34731100099E+03  0.00000000000E+00 0. -1.
          4   -1    0    0  503    0 -0.00000000000E+00 -0.00000000000E+00 -0.77092629418E+02  0.77092629418E+02  0.00000000000E+00 0. -1.
         24    2    1    2    0    0 -0.44295904170E+02  0.20419663486E+02  0.50680505190E+02  0.10123584899E+03  0.72808610286E+02 0.  0.
         23    2    1    2    0    0 -0.10018207171E+02  0.39048906257E+01  0.14041374636E+03  0.16527517528E+03  0.86511564269E+02 0.  0.
        -11    1    3    3    0    0 -0.53086035441E+02 -0.11619204638E+02  0.29463626823E+02  0.61816166015E+02  0.00000000000E+00 0.  1.
         12    1    3    3    0    0  0.87901312704E+01  0.32038868124E+02  0.21216878367E+02  0.39419682977E+02  0.00000000000E+00 0. -1.
        -13    1    4    4    0    0  0.24374808956E+00  0.40129255789E+02  0.10929559375E+03  0.11642999354E+03  0.00000000000E+00 0. -1.
         13    1    4    4    0    0 -0.10261955261E+02 -0.36224365163E+02  0.31118152606E+02  0.48845181737E+02  0.00000000000E+00 0.  1.
         21    1    1    2  503  502  0.56666625567E+01 -0.22885655560E+02  0.10158922962E+03  0.10428919344E+03  0.00000000000E+00 0. -1.
          3    1    1    2  501    0  0.48647448785E+02 -0.14388985511E+01 -0.22465109598E+02  0.53603412686E+02  0.00000000000E+00 0. -1.
<scales pt_clust_5="13000.00000" pt_clust_6="13000.00000" pt_clust_7="13000.00000" pt_clust_8="13000.00000" pt_clust_9="23.57677" pt_clust_10="13000.00000"></scales>
<clustering>
<clus scale="   23.577">  1  9  2 -1</clus>
<clus scale="   72.809">  5  6 -1 -1</clus>
<clus scale="   85.366">  2  5  1 -1</clus>
<clus scale="   86.512">  7  8 -1 -1</clus>
<clus scale="   18.915">  7 10 -1 -1</clus>
<clus scale="   23.577">  1  5  2 -1</clus>
</clustering>
</event>
<event>
10    4  0.2866397E-005  0.1684464E+03  0.7546771E-02  0.1201649E+00
         -3   -1    0    0    0  501 -0.00000000000E+00  0.00000000000E+00  0.12566596425E+04  0.12566596425E+04  0.00000000000E+00 0.  1.
         21   -1    0    0  503  502  0.00000000000E+00 -0.00000000000E+00 -0.14239604170E+03  0.14239604170E+03  0.00000000000E+00 0. -1.
         24    2    1    2    0    0  0.27474073970E+02  0.88035808334E+01  0.83365214749E+03  0.83970304502E+03  0.96400067565E+02 0.  0.
         23    2    1    2    0    0 -0.36281747326E+01 -0.75411268568E+01  0.16660928755E+03  0.19016251076E+03  0.91285779590E+02 0.  0.
        -13    1    3    3    0    0  0.43640269362E+02  0.27726971669E+02  0.23892466363E+03  0.24445501214E+03  0.00000000000E+00 0.  1.
         14    1    3    3    0    0 -0.16166195392E+02 -0.18923390836E+02  0.59472748386E+03  0.59524803289E+03  0.00000000000E+00 0. -1.
        -11    1    4    4    0    0 -0.36742434449E+02  0.14437086662E+01  0.14505380224E+03  0.14964189363E+03  0.00000000000E+00 0.  1.
         11    1    4    4    0    0  0.33114259717E+02 -0.89848355230E+01  0.21555485306E+02  0.40520617132E+02  0.00000000000E+00 0. -1.
         21    1    1    2  503  501  0.78397042214E+02 -0.18672908716E+02 -0.10175281266E+03  0.12980141999E+03  0.00000000000E+00 0. -1.
         -4    1    1    2    0  502 -0.10224294145E+03  0.17410454739E+02  0.21575497841E+03  0.23938870842E+03  0.00000000000E+00 0.  1.
<scales pt_clust_5="13000.00000" pt_clust_6="13000.00000" pt_clust_7="13000.00000" pt_clust_8="13000.00000" pt_clust_9="80.59016" pt_clust_10="13000.00000"></scales>
<clustering>
<clus scale="   80.590">  2  9  1 -1</clus>
<clus scale="   91.286">  7  8 -1 -1</clus>
<clus scale="   68.054">  7 10 -1 -1</clus>
<clus scale="   96.400">  5  6 -1 -1</clus>
<clus scale="  103.254">  1  5  2 -1</clus>
<clus scale="   80.590">  2  5  1 -1</clus>
</clustering>
</event>
<event>
10    4  0.2866397E-005  0.1763103E+03  0.7546771E-02  0.1178680E+00
         21   -1    0    0  501  502  0.00000000000E+00  0.00000000000E+00  0.78474892900E+03  0.78474892900E+03  0.00000000000E+00 0.  1.
          2   -1    0    0  503    0 -0.00000000000E+00 -0.00000000000E+00 -0.49060192754E+03  0.49060192754E+03  0.00000000000E+00 0. -1.
         24    2    1    2    0    0 -0.74671093017E+02 -0.88779274185E+02 -0.12336585440E+02  0.14142544056E+03  0.79946433573E+02 0.  0.
         23    2    1    2    0    0  0.94658618716E+02  0.23855889786E+02 -0.26122647991E+03  0.29393924346E+03  0.92906659956E+02 0.  0.
        -13    1    3    3    0    0 -0.40384915607E+02 -0.77424011653E+02  0.23619395983E+02  0.90461565627E+02  0.00000000000E+00 0.  1.
         14    1    3    3    0    0 -0.34286177409E+02 -0.11355262533E+02 -0.35955981422E+02  0.50963874937E+02  0.00000000000E+00 0. -1.
        -13    1    4    4    0    0  0.85541395252E+02  0.54689663357E+02 -0.21323114767E+03  0.23616903251E+03  0.00000000000E+00 0.  1.
         13    1    4    4    0    0  0.91172234635E+01 -0.30833773571E+02 -0.47995332243E+02  0.57770210952E+02  0.00000000000E+00 0. -1.
         21    1    1    2  503  502 -0.65933256113E+02  0.87175431638E+02  0.69463377019E+03  0.70318050658E+03  0.00000000000E+00 0.  1.
          1    1    1    2  501    0  0.45945730413E+02 -0.22252047239E+02 -0.12692370339E+03  0.13680566593E+03  0.00000000000E+00 0. -1.
<scales pt_clust_5="13000.00000" pt_clust_6="13000.00000" pt_clust_7="13000.00000" pt_clust_8="13000.00000" pt_clust_9="109.30119" pt_clust_10="13000.00000"></scales>
<clustering>
<clus scale="   79.946">  5  6 -1 -1</clus>
<clus scale="   92.907">  7  8 -1 -1</clus>
<clus scale="   51.051">  7 10 -1 -1</clus>
<clus scale="  109.301">  1  9  2 -1</clus>
<clus scale="  149.560">  2  5  1 -1</clus>
<clus scale="  109.301">  1  5  2 -1</clus>
</clustering>
</event>
<event>
10    4  0.2866397E-005  0.5252044E+03  0.7546771E-02  0.1030295E+00
          2   -1    0    0  502    0 -0.00000000000E+00  0.00000000000E+00  0.11662483441E+04  0.11662483441E+04  0.00000000000E+00 0. -1.
         21   -1    0    0  503  502  0.00000000000E+00 -0.00000000000E+00 -0.42441981450E+03  0.42441981450E+03  0.00000000000E+00 0.  1.
         24    2    1    2    0    0  0.21257996741E+03  0.22756290571E+03 -0.25165128534E+03  0.40838050507E+03  0.80443451568E+02 0.  0.
         23    2    1    2    0    0  0.10635947123E+03  0.46104621945E+02  0.10287334257E+03  0.17906538214E+03  0.89685635338E+02 0.  0.
        -11    1    3    3    0    0  0.17564522412E+03  0.22336878955E+03 -0.21669015354E+03  0.35735064508E+03  0.00000000000E+00 0.  1.
         12    1    3    3    0    0  0.36934743298E+02  0.41941161633E+01 -0.34961131805E+02  0.51029859984E+02  0.00000000000E+00 0. -1.
        -13    1    4    4    0    0  0.34208171859E+02  0.62401237556E+02  0.62953764285E+02  0.95012051384E+02  0.00000000000E+00 0.  1.
         13    1    4    4    0    0  0.72151299374E+02 -0.16296615611E+02  0.39919578280E+02  0.84053330760E+02  0.00000000000E+00 0. -1.
         21    1    1    2  503  501 -0.11845595839E+03 -0.79338927051E+01  0.15040665267E+03  0.19161660131E+03  0.00000000000E+00 0.  1.
          1    1    1    2  501    0 -0.20048348026E+03 -0.26573363495E+03  0.74019981969E+03  0.81160567006E+03  0.00000000000E+00 0. -1.
<scales pt_clust_5="13000.00000" pt_clust_6="13000.00000" pt_clust_7="13000.00000" pt_clust_8="13000.00000" pt_clust_9="118.72142" pt_clust_10="13000.00000"></scales>
<clustering>
<clus scale="   80.443">  5  6 -1 -1</clus>
<clus scale="   89.686">  7  8 -1 -1</clus>
<clus scale="  118.721">  2  9  1 -1</clus>
<clus scale="  262.203">  1  5  2 -1</clus>
<clus scale="  138.314">  7 10 -1 -1</clus>
<clus scale="  118.721">  2  5  1 -1</clus>
</clustering>
</event>
<event>
10    4  0.2866397E-005  0.2538034E+03  0.7546771E-02  0.1132629E+00
         21   -1    0    0  503  502  0.00000000000E+00  0.00000000000E+00  0.13503162969E+03  0.13503162969E+03  0.00000000000E+00 0. -1.
          2   -1    0    0  502    0 -0.00000000000E+00 -0.00000000000E+00 -0.38516071192E+03  0.38516071192E+03  0.00000000000E+00 0. -1.
         24    2    1    2    0    0 -0.13008935743E+03  0.74569717165E-01 -0.16107114090E+03  0.22185760478E+03  0.79709710153E+02 0.  0.
         23    2    1    2    0    0 -0.66834084600E+00 -0.61209169886E+02 -0.13975869163E+02  0.11750107513E+03  0.99318520837E+02 0.  0.
        -13    1    3    3    0    0 -0.49084955257E+02 -0.14501762236E+02 -0.13575919982E+02  0.52952238327E+02  0.00000000000E+00 0.  1.
         14    1    3    3    0    0 -0.81004402178E+02  0.14576331953E+02 -0.14749522091E+03  0.16890536646E+03  0.00000000000E+00 0. -1.
        -13    1    4    4    0    0 -0.29170440366E+02 -0.66304226639E+01  0.29588179895E+02  0.42075378613E+02  0.00000000000E+00 0. -1.
         13    1    4    4    0    0  0.28502099520E+02 -0.54578747222E+02 -0.43564049059E+02  0.75425696522E+02  0.00000000000E+00 0.  1.
         21    1    1    2  503  501  0.21122437407E+02  0.12307427773E+02  0.16817996082E+02  0.29672801227E+02  0.00000000000E+00 0. -1.
          1    1    1    2  501    0  0.10963526087E+03  0.48827172396E+02 -0.91900068259E+02  0.15116086047E+03  0.00000000000E+00 0. -1.
<scales pt_clust_5="13000.00000" pt_clust_6="13000.00000" pt_clust_7="13000.00000" pt_clust_8="13000.00000" pt_clust_9="24.44648" pt_clust_10="13000.00000"></scales>
<clustering>
<clus scale="   24.446">  1  9  2 -1</clus>
<clus scale="   79.710">  5  6 -1 -1</clus>
<clus scale="   99.319">  7  8 -1 -1</clus>
<clus scale="  126.460">  7 10 -1 -1</clus>
<clus scale="  147.741">  2  5  1 -1</clus>
<clus scale="   24.446">  1  5  2 -1</clus>
</clustering>
</event>
<event>
10    4  0.2866397E-005  0.2337144E+03  0.7546771E-02  0.1165084E+00
         21   -1    0    0  503  502  0.00000000000E+00  0.00000000000E+00  0.96151856649E+02  0.96151856649E+02  0.00000000000E+00 0.  1.
          2   -1    0    0  502    0 -0.00000000000E+00 -0.00000000000E+00 -0.42780581681E+03  0.42780581681E+03  0.00000000000E+00 0. -1.
         24    2    1    2    0    0  0.84763796671E+01  0.26613628131E+02 -0.20156410579E+03  0.21939643629E+03  0.82015689351E+02 0.  0.
         23    2    1    2    0    0 -0.78952779980E+02 -0.43333104608E+02 -0.13340535929E+02  0.12798707339E+03  0.89952329794E+02 0.  0.
        -13    1    3    3    0    0  0.41509703764E+02 -0.31915094146E+01 -0.85516404142E+02  0.95112021408E+02  0.00000000000E+00 0.  1.
         14    1    3    3    0    0 -0.33033324097E+02  0.29805137546E+02 -0.11604770165E+03  0.12428441488E+03  0.00000000000E+00 0. -1.
        -13    1    4    4    0    0 -0.47351507554E+02 -0.28172711716E+01 -0.46827810204E+02  0.66655428083E+02  0.00000000000E+00 0. -1.
         13    1    4    4    0    0 -0.31601272427E+02 -0.40515833437E+02  0.33487274275E+02  0.61331645310E+02  0.00000000000E+00 0.  1.
         21    1    1    2  503  501 -0.18714485436E+02  0.30759160561E+02 -0.11267200211E+02  0.37726750776E+02  0.00000000000E+00 0. -1.
          1    1    1    2  501    0  0.89190885749E+02 -0.14039684084E+02 -0.10548211824E+03  0.13884741300E+03  0.00000000000E+00 0. -1.
<scales pt_clust_5="13000.00000" pt_clust_6="13000.00000" pt_clust_7="13000.00000" pt_clust_8="13000.00000" pt_clust_9="36.00497" pt_clust_10="13000.00000"></scales>
<clustering>
<clus scale="   36.005">  1  9  2 -1</clus>
<clus scale="   82.016">  5  6 -1 -1</clus>
<clus scale="   87.542">  2  5  1 -1</clus>
<clus scale="   89.952">  7  8 -1 -1</clus>
<clus scale="   89.452">  7 10 -1 -1</clus>
<clus scale="   36.005">  1  5  2 -1</clus>
</clustering>
</event>
<event>
10    4  0.2866397E-005  0.4176847E+03  0.7546771E-02  0.1080446E+00
         21   -1    0    0  503  502  0.00000000000E+00  0.00000000000E+00  0.17221152654E+03  0.17221152654E+03  0.00000000000E+00 0. -1.
          2   -1    0    0  502    0 -0.00000000000E+00 -0.00000000000E+00 -0.80906961899E+03  0.80906961899E+03  0.00000000000E+00 0. -1.
         24    2    1    2    0    0  0.22067947753E+02  0.73728079824E+02 -0.15291517130E+02  0.11221972764E+03  0.80228503062E+02 0.  0.
         23    2    1    2    0    0 -0.12309608262E+03  0.82116305103E+02 -0.17276945739E+03  0.24496380648E+03  0.90896908421E+02 0.  0.
        -11    1    3    3    0    0  0.29077295329E+02  0.13401830966E+02 -0.35884260305E+02  0.48091353843E+02  0.00000000000E+00 0.  1.
         12    1    3    3    0    0 -0.70093475759E+01  0.60326248858E+02  0.20592743174E+02  0.64128373800E+02  0.00000000000E+00 0. -1.
        -13    1    4    4    0    0  0.28877446035E+01  0.36611820862E+02 -0.57589438549E+02  0.68303059435E+02  0.00000000000E+00 0.  1.
         13    1    4    4    0    0 -0.12598382722E+03  0.45504484240E+02 -0.11518001884E+03  0.17666074705E+03  0.00000000000E+00 0. -1.
         21    1    1    2  503  501 -0.39316349233E+01  0.49388415777E+02  0.52594015318E+02  0.72255130015E+02  0.00000000000E+00 0.  1.
          1    1    1    2  501    0  0.10495976979E+03 -0.20523280070E+03 -0.50139113326E+03  0.55184248139E+03  0.00000000000E+00 0. -1.
<scales pt_clust_5="13000.00000" pt_clust_6="13000.00000" pt_clust_7="13000.00000" pt_clust_8="13000.00000" pt_clust_9="49.54466" pt_clust_10="13000.00000"></scales>
<clustering>
<clus scale="   49.545">  1  9  2 -1</clus>
<clus scale="   80.229">  5  6 -1 -1</clus>
<clus scale="   90.897">  7  8 -1 -1</clus>
<clus scale="  126.396">  2  5  1 -1</clus>
<clus scale="  175.253">  7 10 -1 -1</clus>
<clus scale="   49.545">  1  5  2 -1</clus>
</clustering>
</event>
<event>
10    4  0.2866397E-005  0.3635674E+03  0.7546771E-02  0.1094565E+00
         21   -1    0    0  503  502  0.00000000000E+00  0.00000000000E+00  0.12211947135E+03  0.12211947135E+03  0.00000000000E+00 0.  1.
          2   -1    0    0  502    0 -0.00000000000E+00 -0.00000000000E+00 -0.22466789061E+04  0.22466789061E+04  0.00000000000E+00 0. -1.
         24    2    1    2    0    0  0.41938971147E+02  0.99869320499E+02 -0.68032337383E+03  0.69355471545E+03  0.80283820726E+02 0.  0.
         23    2    1    2    0    0 -0.68047431245E+02  0.11613263924E+03 -0.60899615957E+03  0.63008487968E+03  0.89517542603E+02 0.  0.
        -11    1    3    3    0    0  0.45473560727E+02  0.10904246054E+03 -0.66453893042E+03  0.67495932690E+03  0.00000000000E+00 0.  1.
         12    1    3    3    0    0 -0.35345895794E+01 -0.91731400393E+01 -0.15784443407E+02  0.18595388550E+02  0.00000000000E+00 0. -1.
        -11    1    4    4    0    0 -0.38563462245E+01  0.92322902616E+02 -0.31876885360E+03  0.33189150604E+03  0.00000000000E+00 0.  1.
         11    1    4    4    0    0 -0.64191085020E+02  0.23809736627E+02 -0.29022730597E+03  0.29819337364E+03  0.00000000000E+00 0. -1.
         21    1    1    2  503  501  0.62344359010E+01 -0.20363772656E+02  0.93466331553E+02  0.95861914032E+02  0.00000000000E+00 0.  1.
          1    1    1    2  501    0  0.19874024196E+02 -0.19563818709E+03 -0.92870623292E+03  0.94929686829E+03  0.00000000000E+00 0. -1.
<scales pt_clust_5="13000.00000" pt_clust_6="13000.00000" pt_clust_7="13000.00000" pt_clust_8="13000.00000" pt_clust_9="21.29675" pt_clust_10="13000.00000"></scales>
<clustering>
<clus scale="   21.297">  1  9  2 -1</clus>
<clus scale="   80.284">  5  6 -1 -1</clus>
<clus scale="   89.518">  7  8 -1 -1</clus>
<clus scale="  131.721">  2  5  1 -1</clus>
<clus scale="  151.057">  7 10 -1 -1</clus>
<clus scale="   21.297">  1  5  2 -1</clus>
</clustering>
</event>
<event>
10    4  0.2866397E-005  0.1605378E+03  0.7546771E-02  0.1211686E+00
         21   -1    0    0  503  502  0.00000000000E+00  0.00000000000E+00  0.21967690042E+03  0.21967690042E+03  0.00000000000E+00 0.  1.
          2   -1    0    0  502    0 -0.00000000000E+00 -0.00000000000E+00 -0.25118198091E+03  0.25118198091E+03  0.00000000000E+00 0. -1.
         24    2    1    2    0    0  0.20397570670E+02  0.24749583386E+02 -0.63917902423E+01  0.86303926798E+02  0.79868078925E+02 0.  0.
         23    2    1    2    0    0 -0.25430234553E+02  0.51502691768E+00 -0.15660883967E+03  0.18273383686E+03  0.90655195044E+02 0.  0.
        -13    1    3    3    0    0  0.24630822426E+02  0.14511375027E+02  0.33999386933E+02  0.44420892949E+02  0.00000000000E+00 0.  1.
         14    1    3    3    0    0 -0.42332517563E+01  0.10238208359E+02 -0.40391177175E+02  0.41883033849E+02  0.00000000000E+00 0. -1.
        -13    1    4    4    0    0 -0.49724047326E+02  0.27214845371E+02 -0.80003313559E+02  0.98049267573E+02  0.00000000000E+00 0.  1.
         13    1    4    4    0    0  0.24293812773E+02 -0.26699818454E+02 -0.76605526114E+02  0.84684569289E+02  0.00000000000E+00 0. -1.
         21    1    1    2  503  501  0.51173055008E+02  0.25741608656E+00  0.13940657191E+03  0.14850232360E+03  0.00000000000E+00 0.  1.
          1    1    1    2  501    0 -0.46140391125E+02 -0.25522026390E+02 -0.79110224850E+01  0.53318794070E+02  0.00000000000E+00 0. -1.
<scales pt_clust_5="13000.00000" pt_clust_6="13000.00000" pt_clust_7="13000.00000" pt_clust_8="13000.00000" pt_clust_9="51.17370" pt_clust_10="13000.00000"></scales>
<clustering>
<clus scale="   51.174">  1  9  2 -1</clus>
<clus scale="   79.868">  5  6 -1 -1</clus>
<clus scale="   90.655">  7  8 -1 -1</clus>
<clus scale="   39.949">  7 10 -1 -1</clus>
<clus scale="   96.151">  2  5  1 -1</clus>
<clus scale="   51.174">  1  5  2 -1</clus>
</clustering>
</event>
<event>
10    4  0.2866397E-005  0.1714863E+03  0.7546771E-02  0.1204359E+00
         -3   -1    0    0    0  501 -0.00000000000E+00  0.00000000000E+00  0.10415068227E+03  0.10415068227E+03  0.00000000000E+00 0.  1.
         21   -1    0    0  503  502  0.00000000000E+00 -0.00000000000E+00 -0.22822619247E+03  0.22822619247E+03  0.00000000000E+00 0.  1.
         24    2    1    2    0    0  0.27913385293E+02  0.20186182414E+02 -0.31941378176E+02  0.10118362188E+03  0.89617156043E+02 0.  0.
         23    2    1    2    0    0 -0.38109937214E+02  0.34288354524E+02 -0.49410964553E+02  0.11513084122E+03  0.90474353334E+02 0.  0.
        -11    1    3    3    0    0 -0.31665710346E+02  0.17786101964E+02 -0.13879823668E+02  0.38880742532E+02  0.00000000000E+00 0.  1.
         12    1    3    3    0    0  0.59579095639E+02  0.24000804500E+01 -0.18061554509E+02  0.62302879345E+02  0.00000000000E+00 0. -1.
        -11    1    4    4    0    0 -0.36139868788E+02  0.62377776129E+02 -0.20901076202E+02  0.75059523428E+02  0.00000000000E+00 0.  1.
         11    1    4    4    0    0 -0.19700684263E+01 -0.28089421605E+02 -0.28509888351E+02  0.40071317791E+02  0.00000000000E+00 0. -1.
         21    1    1    2  503  501 -0.37256194517E+02 -0.10326164070E+02 -0.32378070921E+02  0.50428099021E+02  0.00000000000E+00 0.  1.
         -4    1    1    2    0  502  0.47452746437E+02 -0.44148372868E+02 -0.10345096552E+02  0.65634312627E+02  0.00000000000E+00 0.  1.
<scales pt_clust_5="13000.00000" pt_clust_6="13000.00000" pt_clust_7="13000.00000" pt_clust_8="13000.00000" pt_clust_9="38.66075" pt_clust_10="13000.00000"></scales>
<clustering>
<clus scale="   38.661">  2  9  1 -1</clus>
<clus scale="   89.617">  5  6 -1 -1</clus>
<clus scale="   90.474">  7  8 -1 -1</clus>
<clus scale="   61.066">  7 10 -1 -1</clus>
<clus scale="   92.293">  1  5  2 -1</clus>
<clus scale="   38.661">  2  5  1 -1</clus>
</clustering>
</event>
<event>
10    4  0.2866397E-005  0.3782058E+03  0.7546771E-02  0.1082635E+00
         21   -1    0    0  503  502  0.00000000000E+00  0.00000000000E+00  0.83075845151E+02  0.83075845151E+02  0.00000000000E+00 0. -1.
          2   -1    0    0  502    0 -0.00000000000E+00 -0.00000000000E+00 -0.12345317196E+04  0.12345317196E+04  0.00000000000E+00 0. -1.
         24    2    1    2    0    0 -0.82587322324E+01 -0.12381608110E+03 -0.30344410748E+03  0.33773661895E+03  0.81173079398E+02 0.  0.
         23    2    1    2    0    0 -0.17626586347E+02 -0.41348835853E+02 -0.61246686646E+02  0.11984566948E+03  0.92689832745E+02 0.  0.
        -11    1    3    3    0    0  0.15105783289E+02 -0.49787539374E+02 -0.48110471999E+02  0.70863257627E+02  0.00000000000E+00 0.  1.
         12    1    3    3    0    0 -0.23364515521E+02 -0.74028541722E+02 -0.25533363548E+03  0.26687336132E+03  0.00000000000E+00 0. -1.
        -11    1    4    4    0    0 -0.40487036412E+02  0.10625338200E+01 -0.59063863313E+02  0.71616122801E+02  0.00000000000E+00 0.  1.
         11    1    4    4    0    0  0.22860450065E+02 -0.42411369673E+02 -0.21828233333E+01  0.48229546674E+02  0.00000000000E+00 0. -1.
         21    1    1    2  503  501 -0.54693970288E+02 -0.47228595175E+02 -0.47087552038E+02  0.86250844315E+02  0.00000000000E+00 0. -1.
          1    1    1    2  501    0  0.80579288868E+02  0.21239351212E+03 -0.73967752831E+03  0.77377443203E+03  0.00000000000E+00 0. -1.
<scales pt_clust_5="13000.00000" pt_clust_6="13000.00000" pt_clust_7="13000.00000" pt_clust_8="13000.00000" pt_clust_9="72.26320" pt_clust_10="13000.00000"></scales>
<clustering>
<clus scale="   72.263">  1  9  2 -1</clus>
<clus scale="   81.173">  5  6 -1 -1</clus>
<clus scale="   92.690">  7  8 -1 -1</clus>
<clus scale="  160.533">  2  5  1 -1</clus>
<clus scale="  103.342">  7 10 -1 -1</clus>
<clus scale="   72.263">  1  5  2 -1</clus>
</clustering>
</event>
<event>
10    4  0.2866397E-005  0.6463666E+03  0.7546771E-02  0.1044803E+00
         21   -1    0    0  501  502  0.00000000000E+00  0.00000000000E+00  0.24573424122E+03  0.24573424122E+03  0.00000000000E+00 0. -1.
          2   -1    0    0  503    0 -0.00000000000E+00 -0.00000000000E+00 -0.70829147628E+03  0.70829147628E+03  0.00000000000E+00 0. -1.
         24    2    1    2    0    0  0.28464255201E+02 -0.24849990668E+02 -0.10434489605E+03  0.13769482060E+03  0.81512394325E+02 0.  0.
         23    2    1    2    0    0  0.26479605700E+02  0.21842416284E+03  0.85918565885E+02  0.25331838433E+03  0.91530975316E+02 0.  0.
        -11    1    3    3    0    0 -0.12331718320E+02 -0.19340568276E+02  0.26153289160E+01  0.23086117112E+02  0.00000000000E+00 0.  1.
         12    1    3    3    0    0  0.40795973522E+02 -0.55094223916E+01 -0.10696022497E+03  0.11460870349E+03  0.00000000000E+00 0. -1.
        -11    1    4    4    0    0  0.43294999482E+02  0.40751791409E+02  0.15351618496E+02  0.61407146764E+02  0.00000000000E+00 0.  1.
         11    1    4    4    0    0 -0.16815393782E+02  0.17767237143E+03  0.70566947389E+02  0.19191123756E+03  0.00000000000E+00 0. -1.
         21    1    1    2  503  502  0.51856886509E+02 -0.33523643938E+02  0.16410194254E+02  0.63892611910E+02  0.00000000000E+00 0. -1.
          1    1    1    2  501    0 -0.10680074741E+03 -0.16005052824E+03 -0.46054109914E+03  0.49911990066E+03  0.00000000000E+00 0. -1.
<scales pt_clust_5="13000.00000" pt_clust_6="13000.00000" pt_clust_7="13000.00000" pt_clust_8="13000.00000" pt_clust_9="61.74926" pt_clust_10="13000.00000"></scales>
<clustering>
<clus scale="   61.749">  1  9  2 -1</clus>
<clus scale="   81.512">  5  6 -1 -1</clus>
<clus scale="   91.531">  7  8 -1 -1</clus>
<clus scale="   92.042">  2  5  1 -1</clus>
<clus scale="  200.610">  7 10 -1 -1</clus>
<clus scale="   61.749">  1  5  2 -1</clus>
</clustering>
</event>
<event>
10    4  0.2866397E-005  0.1546319E+03  0.7546771E-02  0.1223732E+00
         21   -1    0    0  503  502  0.00000000000E+00  0.00000000000E+00  0.41038274643E+03  0.41038274643E+03  0.00000000000E+00 0.  1.
          2   -1    0    0  502    0 -0.00000000000E+00 -0.00000000000E+00 -0.63616673032E+02  0.63616673032E+02  0.00000000000E+00 0. -1.
         24    2    1    2    0    0 -0.17816967145E+02  0.30533014982E+01  0.18489808425E+03  0.20345236527E+03  0.82938509791E+02 0.  0.
         23    2    1    2    0    0  0.11609140937E+02  0.49050905241E+02  0.19350245041E+02  0.10803542477E+03  0.93575945438E+02 0.  0.
        -13    1    3    3    0    0 -0.29082503706E+02  0.29992504498E+02  0.15908356398E+03  0.16447772699E+03  0.00000000000E+00 0.  1.
         14    1    3    3    0    0  0.11265536561E+02 -0.26939203000E+02  0.25814520277E+02  0.38974638285E+02  0.00000000000E+00 0. -1.
        -11    1    4    4    0    0 -0.27459862911E+01  0.74138869124E+02  0.17830185546E+01  0.74211127945E+02  0.00000000000E+00 0. -1.
         11    1    4    4    0    0  0.14355127228E+02 -0.25087963883E+02  0.17567226487E+02  0.33824296829E+02  0.00000000000E+00 0.  1.
         21    1    1    2  503  501  0.28128147485E+02 -0.19966853509E+02  0.95194859950E+02  0.10125181125E+03  0.00000000000E+00 0.  1.
          1    1    1    2  501    0 -0.21920321277E+02 -0.32137353230E+02  0.47322884156E+02  0.61259818171E+02  0.00000000000E+00 0. -1.
<scales pt_clust_5="13000.00000" pt_clust_6="13000.00000" pt_clust_7="13000.00000" pt_clust_8="13000.00000" pt_clust_9="34.49446" pt_clust_10="13000.00000"></scales>
<clustering>
<clus scale="   34.494">  1  9  2 -1</clus>
<clus scale="   82.939">  5  6 -1 -1</clus>
<clus scale="   83.466">  2  5  1 -1</clus>
<clus scale="   93.576">  7  8 -1 -1</clus>
<clus scale="   40.778">  7 10 -1 -1</clus>
<clus scale="   34.494">  1  5  2 -1</clus>
</clustering>
</event>
<event>
10    4  0.2866397E-005  0.3260894E+03  0.7546771E-02  0.1115311E+00
          2   -1    0    0  502    0 -0.00000000000E+00  0.00000000000E+00  0.10552813197E+04  0.10552813197E+04  0.00000000000E+00 0. -1.
         21   -1    0    0  503  502  0.00000000000E+00 -0.00000000000E+00 -0.75472812553E+02  0.75472812553E+02  0.00000000000E+00 0.  1.
         24    2    1    2    0    0  0.73462504830E+02 -0.76954346626E+01  0.59895403625E+03  0.60875887296E+03  0.79909126740E+02 0.  0.
         23    2    1    2    0    0 -0.14407490198E+02 -0.96682986786E+02  0.27149591827E+02  0.13873125986E+03  0.94626034576E+02 0.  0.
        -13    1    3    3    0    0  0.34298572908E+02  0.19950841056E+02  0.10118686481E+03  0.10868859081E+03  0.00000000000E+00 0.  1.
         14    1    3    3    0    0  0.39163931921E+02 -0.27646275719E+02  0.49776717144E+03  0.50007028215E+03  0.00000000000E+00 0. -1.
        -11    1    4    4    0    0 -0.22623832904E+02 -0.25657138589E+02  0.52678874777E+02  0.62810750860E+02  0.00000000000E+00 0. -1.
         11    1    4    4    0    0  0.82163427059E+01 -0.71025848198E+02 -0.25529282949E+02  0.75920509005E+02  0.00000000000E+00 0.  1.
         21    1    1    2  503  501 -0.36088668476E+02  0.39745858806E+01  0.44941408877E+02  0.57774731130E+02  0.00000000000E+00 0. -1.
          1    1    1    2  501    0 -0.22966346156E+02  0.10040383557E+03  0.30876347021E+03  0.32548926831E+03  0.00000000000E+00 0. -1.
<scales pt_clust_5="13000.00000" pt_clust_6="13000.00000" pt_clust_7="13000.00000" pt_clust_8="13000.00000" pt_clust_9="36.30688" pt_clust_10="13000.00000"></scales>
<clustering>
<clus scale="   36.307">  2  9  1 -1</clus>
<clus scale="   79.909">  5  6 -1 -1</clus>
<clus scale="   94.626">  7  8 -1 -1</clus>
<clus scale="  104.523">  7 10 -1 -1</clus>
<clus scale="  107.086">  1  5  2 -1</clus>
<clus scale="   36.307">  2  5  1 -1</clus>
</clustering>
</event>
<event>
10    4  0.2866397E-005  0.1284847E+03  0.7546771E-02  0.1259273E+00
          2   -1    0    0  503    0 -0.00000000000E+00  0.00000000000E+00  0.49845951785E+03  0.49845951785E+03  0.00000000000E+00 0. -1.
         21   -1    0    0  501  502  0.00000000000E+00 -0.00000000000E+00 -0.95866185566E+02  0.95866185566E+02  0.00000000000E+00 0.  1.
         24    2    1    2    0    0 -0.26795659730E+01  0.11043925309E+02  0.27885567596E+03  0.28790739154E+03  0.70717959045E+02 0.  0.
         23    2    1    2    0    0  0.39952074660E+01  0.10145601167E+02  0.17822169636E+03  0.20351025090E+03  0.97645042176E+02 0.  0.
        -11    1    3    3    0    0 -0.24791046334E+02 -0.16042064520E+02  0.67460909283E+02  0.73640465056E+02  0.00000000000E+00 0.  1.
         12    1    3    3    0    0  0.22111480361E+02  0.27085989829E+02  0.21139476667E+03  0.21426692648E+03  0.00000000000E+00 0. -1.
        -13    1    4    4    0    0  0.35145685751E+02 -0.27835051566E+02  0.55654402428E+02  0.71466228613E+02  0.00000000000E+00 0.  1.
         13    1    4    4    0    0 -0.31150478285E+02  0.37980652733E+02  0.12256729393E+03  0.13204402228E+03  0.00000000000E+00 0. -1.
         21    1    1    2  503  502  0.73063578453E+01 -0.43765159251E+02 -0.63198026687E+02  0.77218926478E+02  0.00000000000E+00 0.  1.
          1    1    1    2  501    0 -0.86219993383E+01  0.22575632775E+02  0.87139866543E+01  0.25689134497E+02  0.00000000000E+00 0. -1.
<scales pt_clust_5="13000.00000" pt_clust_6="13000.00000" pt_clust_7="13000.00000" pt_clust_8="13000.00000" pt_clust_9="44.37085" pt_clust_10="13000.00000"></scales>
<clustering>
<clus scale="   44.371">  2  9  1 -1</clus>
<clus scale="   70.718">  5  6 -1 -1</clus>
<clus scale="   70.810">  1  5  2 -1</clus>
<clus scale="   97.645">  7  8 -1 -1</clus>
<clus scale="   10.392">  7 10 -1 -1</clus>
<clus scale="   44.371">  2  5  1 -1</clus>
</clustering>
</event>
<event>
10    4  0.2866397E-005  0.5113669E+03  0.7546771E-02  0.1043766E+00
          2   -1    0    0  503    0 -0.00000000000E+00  0.00000000000E+00  0.70239966097E+03  0.70239966097E+03  0.00000000000E+00 0. -1.
         21   -1    0    0  501  502  0.00000000000E+00 -0.00000000000E+00 -0.37169602751E+03  0.37169602751E+03  0.00000000000E+00 0. -1.
         24    2    1    2    0    0 -0.12892882402E+03 -0.12459072674E+03  0.21750025862E+03  0.29295298328E+03  0.79809755429E+02 0.  0.
         23    2    1    2    0    0  0.75502110369E+02 -0.16613202154E+03  0.36101227321E+02  0.20669500130E+03  0.90106091335E+02 0.  0.
        -11    1    3    3    0    0 -0.47293006554E+02 -0.99656431003E+02  0.13374416818E+03  0.17336532303E+03  0.00000000000E+00 0.  1.
         12    1    3    3    0    0 -0.81635817470E+02 -0.24934295736E+02  0.83756090439E+02  0.11958766025E+03  0.00000000000E+00 0. -1.
        -13    1    4    4    0    0 -0.19447294719E+01 -0.91960049000E+02 -0.43502147583E+01  0.92083423879E+02  0.00000000000E+00 0.  1.
         13    1    4    4    0    0  0.77446839841E+02 -0.74171972540E+02  0.40451442080E+02  0.11461157742E+03  0.00000000000E+00 0. -1.
         21    1    1    2  503  502  0.15365437122E+02  0.19866868597E+02 -0.19029138893E+03  0.19194166256E+03  0.00000000000E+00 0. -1.
          1    1    1    2  501    0  0.38061276532E+02  0.27085587968E+03  0.26739353645E+03  0.38250604134E+03  0.00000000000E+00 0. -1.
<scales pt_clust_5="13000.00000" pt_clust_6="13000.00000" pt_clust_7="13000.00000" pt_clust_8="13000.00000" pt_clust_9="25.11552" pt_clust_10="13000.00000"></scales>
<clustering>
<clus scale="   25.116">  2  9  1 -1</clus>
<clus scale="   79.810">  5  6 -1 -1</clus>
<clus scale="   90.106">  7  8 -1 -1</clus>
<clus scale="  191.522">  1  5  2 -1</clus>
<clus scale="  194.162">  7 10 -1 -1</clus>
<clus scale="   25.116">  2  5  1 -1</clus>
</clustering>
</event>
<event>
10    4  0.2866397E-005  0.3704798E+03  0.7546771E-02  0.1064332E+00
          2   -1    0    0  502    0 -0.00000000000E+00  0.00000000000E+00  0.13667283198E+04  0.13667283198E+04  0.00000000000E+00 0. -1.
         21   -1    0    0  503  502  0.00000000000E+00 -0.00000000000E+00 -0.13688908701E+03  0.13688908701E+03  0.00000000000E+00 0. -1.
         24    2    1    2    0    0  0.25398961271E+03  0.30140979372E+02  0.22761897044E+03  0.35151552233E+03  0.79583696401E+02 0.  0.
         23    2    1    2    0    0 -0.50330674345E+02  0.19633866973E+02  0.13899693300E+03  0.17551386411E+03  0.92554327822E+02 0.  0.
        -11    1    3    3    0    0  0.11783114808E+02  0.18761187490E+02  0.36832066564E+02  0.42981683052E+02  0.00000000000E+00 0.  1.
         12    1    3    3    0    0  0.24220649790E+03  0.11379791882E+02  0.19078690387E+03  0.30853383928E+03  0.00000000000E+00 0. -1.
        -13    1    4    4    0    0 -0.30757781788E+02  0.44327291387E+02  0.29330250201E+02  0.61410206636E+02  0.00000000000E+00 0.  1.
         13    1    4    4    0    0 -0.19572892557E+02 -0.24693424414E+02  0.10966668280E+03  0.11410365748E+03  0.00000000000E+00 0. -1.
         21    1    1    2  503  501  0.20718307349E+02  0.81155313728E+01 -0.39098470720E+02  0.44986670487E+02  0.00000000000E+00 0. -1.
          1    1    1    2  501    0 -0.22437724571E+03 -0.57890377718E+02  0.90232180004E+03  0.93160134986E+03  0.00000000000E+00 0. -1.
<scales pt_clust_5="13000.00000" pt_clust_6="13000.00000" pt_clust_7="13000.00000" pt_clust_8="13000.00000" pt_clust_9="22.25107" pt_clust_10="13000.00000"></scales>
<clustering>
<clus scale="   22.251">  2  9  1 -1</clus>
<clus scale="   79.584">  5  6 -1 -1</clus>
<clus scale="   92.554">  7  8 -1 -1</clus>
<clus scale="  228.316">  7 10 -1 -1</clus>
<clus scale="  281.350">  1  5  2 -1</clus>
<clus scale="   22.251">  2  5  1 -1</clus>
</clustering>
</event>
<event>
10    4  0.2866397E-005  0.1671204E+03  0.7546771E-02  0.1211986E+00
          2   -1    0    0  502    0 -0.00000000000E+00  0.00000000000E+00  0.81346798648E+03  0.81346798648E+03  0.00000000000E+00 0. -1.
         21   -1    0    0  503  502  0.00000000000E+00 -0.00000000000E+00 -0.14978725078E+03  0.14978725078E+03  0.00000000000E+00 0.  1.
         24    2    1    2    0    0  0.18700597373E+02  0.42663425829E+01  0.21426150858E+03  0.23058727178E+03  0.83033618654E+02 0.  0.
         23    2    1    2    0    0  0.22928401425E+02  0.93147690703E+02  0.42355870461E+03  0.44402432652E+03  0.92484714505E+02 0.  0.
        -13    1    3    3    0    0 -0.26035143302E+02  0.24543409515E+02  0.80514183595E+02  0.88106420863E+02  0.00000000000E+00 0.  1.
         14    1    3    3    0    0  0.44735740676E+02 -0.20277066932E+02  0.13374732499E+03  0.14248085092E+03  0.00000000000E+00 0. -1.
        -11    1    4    4    0    0  0.34995566358E+02  0.76052670098E+01  0.56170124949E+02  0.66615408786E+02  0.00000000000E+00 0. -1.
         11    1    4    4    0    0 -0.12067164933E+02  0.85542423693E+02  0.36738857966E+03  0.37740891773E+03  0.00000000000E+00 0.  1.
         21    1    1    2  503  501 -0.58479266316E+02 -0.55449886266E+02 -0.11515594079E+03  0.14055392266E+03  0.00000000000E+00 0.  1.
          1    1    1    2  501    0  0.16850267518E+02 -0.41964147020E+02  0.14101646330E+03  0.14808971629E+03  0.00000000000E+00 0. -1.
<scales pt_clust_5="13000.00000" pt_clust_6="13000.00000" pt_clust_7="13000.00000" pt_clust_8="13000.00000" pt_clust_9="80.58855" pt_clust_10="13000.00000"></scales>
<clustering>
<clus scale="   80.589">  2  9  1 -1</clus>
<clus scale="   83.034">  5  6 -1 -1</clus>
<clus scale="   84.688">  1  5  2 -1</clus>
<clus scale="   92.485">  7  8 -1 -1</clus>
<clus scale="   57.210">  7 10 -1 -1</clus>
<clus scale="   80.589">  2  5  1 -1</clus>
</clustering>
</event>
<event>
10    4  0.2866397E-005  0.3505055E+03  0.7546771E-02  0.1101172E+00
         21   -1    0    0  503  502  0.00000000000E+00  0.00000000000E+00  0.12309278641E+03  0.12309278641E+03  0.00000000000E+00 0.  1.
          2   -1    0    0  502    0 -0.00000000000E+00 -0.00000000000E+00 -0.17164881085E+04  0.17164881085E+04  0.00000000000E+00 0. -1.
         24    2    1    2    0    0  0.98093865601E+02 -0.54531254173E+01 -0.42686511391E+03  0.44522837476E+03  0.79764259994E+02 0.  0.
         23    2    1    2    0    0 -0.17562197836E+03  0.11760243839E+03 -0.84079658559E+03  0.87171322705E+03  0.90948551886E+02 0.  0.
        -11    1    3    3    0    0  0.98182891025E+02 -0.27005963891E+02 -0.38368997571E+03  0.39697254267E+03  0.00000000000E+00 0.  1.
         12    1    3    3    0    0 -0.89025424443E-01  0.21552838474E+02 -0.43175138203E+02  0.48255832090E+02  0.00000000000E+00 0. -1.
        -11    1    4    4    0    0 -0.41765265240E+02  0.77765489103E+02 -0.26921484583E+03  0.28331685776E+03  0.00000000000E+00 0. -1.
         11    1    4    4    0    0 -0.13385671312E+03  0.39836949288E+02 -0.57158173976E+03  0.58839636929E+03  0.00000000000E+00 0.  1.
         21    1    1    2  503  501 -0.17751877181E+02 -0.39824553055E+02  0.84627126277E+02  0.95199131673E+02  0.00000000000E+00 0.  1.
          1    1    1    2  501    0  0.95279989942E+02 -0.72324759919E+02 -0.41036074891E+03  0.42744016146E+03  0.00000000000E+00 0. -1.
<scales pt_clust_5="13000.00000" pt_clust_6="13000.00000" pt_clust_7="13000.00000" pt_clust_8="13000.00000" pt_clust_9="43.60188" pt_clust_10="13000.00000"></scales>
<clustering>
<clus scale="   43.602">  1  9  2 -1</clus>
<clus scale="   79.764">  5  6 -1 -1</clus>
<clus scale="   90.949">  7  8 -1 -1</clus>
<clus scale="  122.667">  7 10 -1 -1</clus>
<clus scale="  123.760">  2  5  1 -1</clus>
<clus scale="   43.602">  1  5  2 -1</clus>
</clustering>
</event>
<event>
10    4  0.2866397E-005  0.3507512E+03  0.7546771E-02  0.1111669E+00
         21   -1    0    0  503  502  0.00000000000E+00  0.00000000000E+00  0.54919462704E+02  0.54919462704E+02  0.00000000000E+00 0. -1.
          2   -1    0    0  502    0 -0.00000000000E+00 -0.00000000000E+00 -0.13051873395E+04  0.13051873395E+04  0.00000000000E+00 0. -1.
         24    2    1    2    0    0 -0.33860325649E+02 -0.43423446806E+02 -0.14390014655E+03  0.17424139414E+03  0.81367646339E+02 0.  0.
         23    2    1    2    0    0 -0.14311615731E+03 -0.49538641516E+02 -0.45459227619E+03  0.48809821222E+03  0.93002235020E+02 0.  0.
        -13    1    3    3    0    0 -0.51264425351E+02 -0.10263480242E+01 -0.89124918953E+02  0.10282191340E+03  0.00000000000E+00 0.  1.
         14    1    3    3    0    0  0.17404099702E+02 -0.42397098782E+02 -0.54775227597E+02  0.71419480745E+02  0.00000000000E+00 0. -1.
        -11    1    4    4    0    0 -0.10147703097E+03  0.87434737896E+01 -0.31726141984E+03  0.33320991081E+03  0.00000000000E+00 0.  1.
         11    1    4    4    0    0 -0.41639126340E+02 -0.58282115306E+02 -0.13733085635E+03  0.15488830141E+03  0.00000000000E+00 0. -1.
         21    1    1    2  503  501  0.38982852319E+02  0.10021223803E+00 -0.18756036479E+02  0.43260394379E+02  0.00000000000E+00 0. -1.
          1    1    1    2  501    0  0.13799363064E+03  0.92861876084E+02 -0.63301941761E+03  0.65450680149E+03  0.00000000000E+00 0. -1.
<scales pt_clust_5="13000.00000" pt_clust_6="13000.00000" pt_clust_7="13000.00000" pt_clust_8="13000.00000" pt_clust_9="38.98298" pt_clust_10="13000.00000"></scales>
<clustering>
<clus scale="   38.983">  1  9  2 -1</clus>
<clus scale="   81.368">  5  6 -1 -1</clus>
<clus scale="   93.002">  7  8 -1 -1</clus>
<clus scale="   94.357">  2  5  1 -1</clus>
<clus scale="  150.391">  7 10 -1 -1</clus>
<clus scale="   38.983">  1  5  2 -1</clus>
</clustering>
</event>
<event>
10    4  0.2866397E-005  0.3943689E+03  0.7546771E-02  0.1079239E+00
          2   -1    0    0  502    0 -0.00000000000E+00  0.00000000000E+00  0.14281655901E+04  0.14281655901E+04  0.00000000000E+00 0. -1.
         21   -1    0    0  503  502  0.00000000000E+00 -0.00000000000E+00 -0.33891770602E+03  0.33891770602E+03  0.00000000000E+00 0.  1.
         24    2    1    2    0    0 -0.31228282567E+02 -0.11684150764E+03  0.40311213682E+03  0.42841106305E+03  0.80059356435E+02 0.  0.
         23    2    1    2    0    0 -0.93062370468E+02 -0.58749669212E+02  0.31179992009E+03  0.34286541617E+03  0.90693853195E+02 0.  0.
        -13    1    3    3    0    0 -0.35222394103E+02 -0.47400651698E+02  0.89847911456E+02  0.10751784048E+03  0.00000000000E+00 0.  1.
         14    1    3    3    0    0  0.39941115364E+01 -0.69440855940E+02  0.31326422536E+03  0.32089322257E+03  0.00000000000E+00 0. -1.
        -13    1    4    4    0    0 -0.98490959229E+02 -0.16482280022E+02  0.21160495177E+03  0.23398459398E+03  0.00000000000E+00 0. -1.
         13    1    4    4    0    0  0.54285887614E+01 -0.42267389190E+02  0.10019496831E+03  0.10888082219E+03  0.00000000000E+00 0.  1.
         21    1    1    2  503  501 -0.21430810830E+02 -0.47042453794E+02 -0.28246416203E+03  0.28715548914E+03  0.00000000000E+00 0.  1.
          1    1    1    2  501    0  0.14572146386E+03  0.22263363064E+03  0.65679998921E+03  0.70865132777E+03  0.00000000000E+00 0. -1.
<scales pt_clust_5="13000.00000" pt_clust_6="13000.00000" pt_clust_7="13000.00000" pt_clust_8="13000.00000" pt_clust_9="51.69402" pt_clust_10="13000.00000"></scales>
<clustering>
<clus scale="   51.694">  2  9  1 -1</clus>
<clus scale="   80.059">  5  6 -1 -1</clus>
<clus scale="   90.694">  7  8 -1 -1</clus>
<clus scale="  155.131">  1  5  2 -1</clus>
<clus scale="  168.079">  7 10 -1 -1</clus>
<clus scale="   51.694">  2  5  1 -1</clus>
</clustering>
</event>
<event>
10    4  0.2866397E-005  0.5163784E+03  0.7546771E-02  0.1055105E+00
         21   -1    0    0  501  502  0.00000000000E+00  0.00000000000E+00  0.10331488697E+03  0.10331488697E+03  0.00000000000E+00 0. -1.
          2   -1    0    0  503    0 -0.00000000000E+00 -0.00000000000E+00 -0.18466611904E+04  0.18466611904E+04  0.00000000000E+00 0. -1.
         24    2    1    2    0    0 -0.95884686020E+02 -0.43099367404E+02 -0.10994347454E+04  0.11075574758E+04  0.82917877116E+02 0.  0.
         23    2    1    2    0    0 -0.10645892226E+03  0.14049659070E+03 -0.51618181018E+03  0.55328291144E+03  0.92765967956E+02 0.  0.
        -11    1    3    3    0    0 -0.20106849041E+02  0.16677483499E+02 -0.95975022063E+02  0.99466721542E+02  0.00000000000E+00 0.  1.
         12    1    3    3    0    0 -0.75777836979E+02 -0.59776850904E+02 -0.10034597234E+04  0.10080907543E+04  0.00000000000E+00 0. -1.
        -11    1    4    4    0    0 -0.63182018688E+01  0.55672752736E+02 -0.25379000425E+03  0.25990140694E+03  0.00000000000E+00 0.  1.
         11    1    4    4    0    0 -0.10014072039E+03  0.84823837964E+02 -0.26239180593E+03  0.29338150450E+03  0.00000000000E+00 0. -1.
         21    1    1    2  503  502 -0.14726875714E+02 -0.16610334089E+02 -0.31008563034E+02  0.38135482798E+02  0.00000000000E+00 0.  1.
          1    1    1    2  501    0  0.21707048399E+03 -0.80786889206E+02 -0.96721184827E+02  0.25100020734E+03  0.00000000000E+00 0. -1.
<scales pt_clust_5="13000.00000" pt_clust_6="13000.00000" pt_clust_7="13000.00000" pt_clust_8="13000.00000" pt_clust_9="22.19874" pt_clust_10="13000.00000"></scales>
<clustering>
<clus scale="   22.199">  1  9  2 -1</clus>
<clus scale="   82.918">  5  6 -1 -1</clus>
<clus scale="   92.766">  7  8 -1 -1</clus>
<clus scale="  134.540">  2  5  1 -1</clus>
<clus scale="  208.909">  7 10 -1 -1</clus>
<clus scale="   22.199">  1  5  2 -1</clus>
</clustering>
</event>
<event>
10    4  0.2866397E-005  0.8039106E+03  0.7546771E-02  0.1024060E+00
          2   -1    0    0  503    0 -0.00000000000E+00  0.00000000000E+00  0.11313351235E+04  0.11313351235E+04  0.00000000000E+00 0. -1.
         21   -1    0    0  501  502  0.00000000000E+00 -0.00000000000E+00 -0.40871400722E+03  0.40871400722E+03  0.00000000000E+00 0. -1.
         24    2    1    2    0    0 -0.24402858728E+02  0.10332487527E+02 -0.46836106022E+02  0.96092649503E+02  0.79611033460E+02 0.  0.
         23    2    1    2    0    0  0.24487175412E+03 -0.20144261879E+02  0.11590650809E+02  0.27388319019E+03  0.12045618052E+03 0.  0.
        -13    1    3    3    0    0  0.23638982022E+02 -0.15813778691E+02 -0.99930964215E+01  0.30145298864E+02  0.00000000000E+00 0.  1.
         14    1    3    3    0    0 -0.48041840750E+02  0.26146266217E+02 -0.36843009601E+02  0.65947350638E+02  0.00000000000E+00 0. -1.
        -11    1    4    4    0    0  0.14232989475E+03 -0.17919804852E+02 -0.52706790135E+02  0.15282972247E+03  0.00000000000E+00 0. -1.
         11    1    4    4    0    0  0.10254185938E+03 -0.22244570277E+01  0.64297440944E+02  0.12105346771E+03  0.00000000000E+00 0.  1.
         21    1    1    2  503  502  0.28163516410E+02  0.74114063941E+02 -0.18052840163E+03  0.19717145312E+03  0.00000000000E+00 0. -1.
          1    1    1    2  501    0 -0.24863241181E+03 -0.64302289589E+02  0.93839497311E+03  0.97290183791E+03  0.00000000000E+00 0. -1.
<scales pt_clust_5="13000.00000" pt_clust_6="13000.00000" pt_clust_7="13000.00000" pt_clust_8="13000.00000" pt_clust_9="79.28479" pt_clust_10="13000.00000"></scales>
<clustering>
<clus scale="   79.285">  2  9  1 -1</clus>
<clus scale="   79.611">  5  6 -1 -1</clus>
<clus scale="   88.064">  1  5  2 -1</clus>
<clus scale="  120.456">  7  8 -1 -1</clus>
<clus scale="  260.989">  7 10 -1 -1</clus>
<clus scale="   79.285">  2  5  1 -1</clus>
</clustering>
</event>
<event>
10    4  0.2866397E-005  0.8682483E+03  0.7546771E-02  0.9497952E-01
         21   -1    0    0  501  502  0.00000000000E+00  0.00000000000E+00  0.71766369981E+03  0.71766369981E+03  0.00000000000E+00 0. -1.
          2   -1    0    0  503    0 -0.00000000000E+00 -0.00000000000E+00 -0.11530788948E+04  0.11530788948E+04  0.00000000000E+00 0. -1.
         24    2    1    2    0    0 -0.69110780233E+03  0.34011712865E+03 -0.46378185985E+03  0.90248223971E+03  0.77916133258E+02 0.  0.
         23    2    1    2    0    0  0.25463635923E+02 -0.31529142251E+02 -0.95050371027E+02  0.13371335819E+03  0.84865809131E+02 0.  0.
        -13    1    3    3    0    0 -0.34753258833E+03  0.18366251801E+03 -0.27996937826E+03  0.48259058552E+03  0.00000000000E+00 0.  1.
         14    1    3    3    0    0 -0.34357521400E+03  0.15645461064E+03 -0.18381248159E+03  0.41989165418E+03  0.00000000000E+00 0. -1.
        -13    1    4    4    0    0 -0.22782697797E+02 -0.37832538745E+02 -0.56036384198E+02  0.71347240036E+02  0.00000000000E+00 0. -1.
         13    1    4    4    0    0  0.48246333720E+02  0.63033964945E+01 -0.39013986829E+02  0.62366118150E+02  0.00000000000E+00 0.  1.
         21    1    1    2  503  502  0.43960473603E+01  0.23795108894E+02  0.90554218652E+02  0.93731525941E+02  0.00000000000E+00 0. -1.
          1    1    1    2  501    0  0.66124811904E+03 -0.33238309529E+03  0.32862817243E+02  0.74081547077E+03  0.00000000000E+00 0. -1.
<scales pt_clust_5="13000.00000" pt_clust_6="13000.00000" pt_clust_7="13000.00000" pt_clust_8="13000.00000" pt_clust_9="24.19778" pt_clust_10="13000.00000"></scales>
<clustering>
<clus scale="   24.198">  1  9  2 -1</clus>
<clus scale="   77.916">  5  6 -1 -1</clus>
<clus scale="   84.866">  7  8 -1 -1</clus>
<clus scale="  736.047">  7 10 -1 -1</clus>
<clus scale="  776.529">  2  5  1 -1</clus>
<clus scale="   24.198">  1  5  2 -1</clus>
</clustering>
</event>
<event>
10    4  0.2866397E-005  0.3324663E+03  0.7546771E-02  0.1103328E+00
         21   -1    0    0  501  502  0.00000000000E+00  0.00000000000E+00  0.16332846390E+03  0.16332846390E+03  0.00000000000E+00 0.  1.
          2   -1    0    0  503    0 -0.00000000000E+00 -0.00000000000E+00 -0.47325011685E+03  0.47325011685E+03  0.00000000000E+00 0. -1.
         24    2    1    2    0    0 -0.64062103958E+02  0.10705788096E+03 -0.21743183122E+02  0.15059446169E+03  0.81489771390E+02 0.  0.
         23    2    1    2    0    0  0.38632904304E+02  0.49044389393E+02 -0.27331549222E+03  0.29503178817E+03  0.91894201780E+02 0.  0.
        -11    1    3    3    0    0  0.59511805499E+01  0.55413993146E+02  0.12467502293E+02  0.57110119941E+02  0.00000000000E+00 0.  1.
         12    1    3    3    0    0 -0.70013284508E+02  0.51643887813E+02 -0.34210685416E+02  0.93484341751E+02  0.00000000000E+00 0. -1.
        -13    1    4    4    0    0  0.32619094468E+01  0.67991437106E+02 -0.20254547006E+03  0.21367766147E+03  0.00000000000E+00 0.  1.
         13    1    4    4    0    0  0.35370994858E+02 -0.18947047712E+02 -0.70770022160E+02  0.81354126698E+02  0.00000000000E+00 0. -1.
         21    1    1    2  503  502  0.42627697768E+02 -0.12672861154E+02  0.64320139337E+01  0.44934316842E+02  0.00000000000E+00 0.  1.
          1    1    1    2  501    0 -0.17198498114E+02 -0.14342940920E+03 -0.21294991541E+02  0.14601801404E+03  0.00000000000E+00 0. -1.
<scales pt_clust_5="13000.00000" pt_clust_6="13000.00000" pt_clust_7="13000.00000" pt_clust_8="13000.00000" pt_clust_9="44.47159" pt_clust_10="13000.00000"></scales>
<clustering>
<clus scale="   44.472">  1  9  2 -1</clus>
<clus scale="   81.490">  5  6 -1 -1</clus>
<clus scale="   91.894">  7  8 -1 -1</clus>
<clus scale="  137.160">  2  5  1 -1</clus>
<clus scale="  124.313">  7 10 -1 -1</clus>
<clus scale="   44.472">  1  5  2 -1</clus>
</clustering>
</event>
<event>
10    4  0.2866397E-005  0.2132511E+03  0.7546771E-02  0.1177352E+00
         21   -1    0    0  503  502  0.00000000000E+00  0.00000000000E+00  0.13142535856E+03  0.13142535856E+03  0.00000000000E+00 0.  1.
          2   -1    0    0  502    0 -0.00000000000E+00 -0.00000000000E+00 -0.11231107634E+04  0.11231107634E+04  0.00000000000E+00 0. -1.
         24    2    1    2    0    0 -0.54758761849E+02  0.11101410203E+02 -0.64368475624E+01  0.98491383512E+02  0.80853919582E+02 0.  0.
         23    2    1    2    0    0  0.70609462090E+02 -0.53137535183E+02 -0.57215803942E+03  0.58900595774E+03  0.10841541587E+03 0.  0.
        -13    1    3    3    0    0  0.89029295545E+00  0.31613651577E+02 -0.20303854848E+02  0.37582736852E+02  0.00000000000E+00 0.  1.
         14    1    3    3    0    0 -0.55649054805E+02 -0.20512241375E+02  0.13867007286E+02  0.60908646660E+02  0.00000000000E+00 0. -1.
        -11    1    4    4    0    0 -0.26263006016E+02 -0.27735500643E+02 -0.12187772870E+03  0.12772307635E+03  0.00000000000E+00 0.  1.
         11    1    4    4    0    0  0.96872468105E+02 -0.25402034540E+02 -0.45028031072E+03  0.46128288138E+03  0.00000000000E+00 0. -1.
         21    1    1    2  503  501  0.28458406697E+02 -0.51094703973E+01  0.72033367960E+02  0.77619544569E+02  0.00000000000E+00 0.  1.
          1    1    1    2  501    0 -0.44309106938E+02  0.47145595378E+02 -0.48512388584E+03  0.48941923617E+03  0.00000000000E+00 0. -1.
<scales pt_clust_5="13000.00000" pt_clust_6="13000.00000" pt_clust_7="13000.00000" pt_clust_8="13000.00000" pt_clust_9="28.91345" pt_clust_10="13000.00000"></scales>
<clustering>
<clus scale="   28.913">  1  9  2 -1</clus>
<clus scale="   80.854">  5  6 -1 -1</clus>
<clus scale="   87.093">  2  5  1 -1</clus>
<clus scale="  108.415">  7  8 -1 -1</clus>
<clus scale="   75.954">  7 10 -1 -1</clus>
<clus scale="   28.913">  1  5  2 -1</clus>
</clustering>
</event>
<event>
10    4  0.2866397E-005  0.1750993E+03  0.7546771E-02  0.1186436E+00
          2   -1    0    0  503    0 -0.00000000000E+00  0.00000000000E+00  0.23830784505E+03  0.23830784505E+03  0.00000000000E+00 0. -1.
         21   -1    0    0  501  502  0.00000000000E+00 -0.00000000000E+00 -0.19383000034E+03  0.19383000034E+03  0.00000000000E+00 0. -1.
         24    2    1    2    0    0 -0.62383032065E+02  0.52156137345E+02 -0.12288639036E+03  0.16748136688E+03  0.79605514666E+02 0.  0.
         23    2    1    2    0    0  0.11532144250E+02 -0.22927822454E+02  0.79140832586E+02  0.12388781364E+03  0.91794572790E+02 0.  0.
        -13    1    3    3    0    0  0.19133860723E+02  0.14443428792E+02 -0.25458603182E+02  0.34969382857E+02  0.00000000000E+00 0.  1.
         14    1    3    3    0    0 -0.81516892788E+02  0.37712708554E+02 -0.97427787174E+02  0.13251198402E+03  0.00000000000E+00 0. -1.
        -13    1    4    4    0    0 -0.24750128452E+02 -0.35917198502E+02  0.72749657242E+02  0.84824092306E+02  0.00000000000E+00 0. -1.
         13    1    4    4    0    0  0.36282272702E+02  0.12989376048E+02  0.63911753441E+01  0.39063721339E+02  0.00000000000E+00 0.  1.
         21    1    1    2  503  502 -0.16923701351E+02  0.18257643084E+02  0.97900292903E+01  0.26750661149E+02  0.00000000000E+00 0. -1.
          1    1    1    2  501    0  0.67774589166E+02 -0.47485957975E+02  0.78433373186E+02  0.11401800371E+03  0.00000000000E+00 0. -1.
<scales pt_clust_5="13000.00000" pt_clust_6="13000.00000" pt_clust_7="13000.00000" pt_clust_8="13000.00000" pt_clust_9="24.89486" pt_clust_10="13000.00000"></scales>
<clustering>
<clus scale="   24.895">  2  9  1 -1</clus>
<clus scale="   79.606">  5  6 -1 -1</clus>
<clus scale="   91.795">  7  8 -1 -1</clus>
<clus scale="   80.420">  7 10 -1 -1</clus>
<clus scale="  128.355">  1  5  2 -1</clus>
<clus scale="   24.895">  2  5  1 -1</clus>
</clustering>
</event>
<event>
10    4  0.2866397E-005  0.4656860E+03  0.7546771E-02  0.1074622E+00
         -1   -1    0    0    0  501 -0.00000000000E+00  0.00000000000E+00  0.25523945823E+03  0.25523945823E+03  0.00000000000E+00 0.  1.
         21   -1    0    0  503  502  0.00000000000E+00 -0.00000000000E+00 -0.46149126669E+03  0.46149126669E+03  0.00000000000E+00 0.  1.
         24    2    1    2    0    0 -0.58333728832E+02  0.55859613997E+02 -0.16040883823E+03  0.19705237860E+03  0.81089605584E+02 0.  0.
         23    2    1    2    0    0  0.16071958897E+03  0.16668287690E+03  0.23314771351E+02  0.24898954495E+03  0.88533876024E+02 0.  0.
        -13    1    3    3    0    0 -0.34751596383E+02  0.39944828673E+02 -0.16007140589E+03  0.16860046789E+03  0.00000000000E+00 0.  1.
         14    1    3    3    0    0 -0.23582132449E+02  0.15914785324E+02 -0.33743234693E+00  0.28451910715E+02  0.00000000000E+00 0. -1.
        -13    1    4    4    0    0  0.88213489172E+02  0.86801676695E+02  0.56605639184E+02  0.13608948944E+03  0.00000000000E+00 0.  1.
         13    1    4    4    0    0  0.72506099796E+02  0.79881200202E+02 -0.33290867834E+02  0.11290005551E+03  0.00000000000E+00 0. -1.
         21    1    1    2  503  501  0.32212053954E+01 -0.37178401709E+02 -0.41100762944E+02  0.55514704651E+02  0.00000000000E+00 0. -1.
         -2    1    1    2    0  502 -0.10560706553E+03 -0.18536408919E+03 -0.28056978631E+02  0.21517409672E+03  0.00000000000E+00 0.  1.
<scales pt_clust_5="13000.00000" pt_clust_6="13000.00000" pt_clust_7="13000.00000" pt_clust_8="13000.00000" pt_clust_9="37.31769" pt_clust_10="13000.00000"></scales>
<clustering>
<clus scale="   37.318">  2  9  1 -1</clus>
<clus scale="   81.090">  5  6 -1 -1</clus>
<clus scale="   88.534">  7  8 -1 -1</clus>
<clus scale="  106.771">  1  5  2 -1</clus>
<clus scale="  220.902">  7 10 -1 -1</clus>
<clus scale="   37.318">  2  5  1 -1</clus>
</clustering>
</event>
<event>
10    4  0.2866397E-005  0.1530427E+03  0.7546771E-02  0.1214551E+00
         21   -1    0    0  501  502  0.00000000000E+00  0.00000000000E+00  0.85775509794E+02  0.85775509794E+02  0.00000000000E+00 0.  1.
         -1   -1    0    0    0  501 -0.00000000000E+00 -0.00000000000E+00 -0.49870676006E+03  0.49870676006E+03  0.00000000000E+00 0.  1.
         24    2    1    2    0    0 -0.48036270537E+02  0.23762859494E+02 -0.32769768499E+03  0.34319801992E+03  0.86758004564E+02 0.  0.
         23    2    1    2    0    0  0.29701533700E+01 -0.33954513413E+02 -0.77403824635E+02  0.12486450446E+03  0.91858922343E+02 0.  0.
        -11    1    3    3    0    0 -0.51630355937E+02  0.30869434642E+02 -0.32957184454E+03  0.33501674042E+03  0.00000000000E+00 0.  1.
         12    1    3    3    0    0  0.35940854008E+01 -0.71065751478E+01  0.18741595568E+01  0.81812794992E+01  0.00000000000E+00 0. -1.
        -11    1    4    4    0    0 -0.37818870474E+02  0.84837936623E+01 -0.36005792226E+02  0.52902351485E+02  0.00000000000E+00 0.  1.
         11    1    4    4    0    0  0.40789023844E+02 -0.42438307075E+02 -0.41398032409E+02  0.71962152976E+02  0.00000000000E+00 0. -1.
         21    1    1    2  503  502 -0.16318302988E+02  0.36045170165E+02  0.19878344593E+02  0.44279678052E+02  0.00000000000E+00 0.  1.
         -2    1    1    2    0  503  0.61384420154E+02 -0.25853516246E+02 -0.27708085242E+02  0.72140067423E+02  0.00000000000E+00 0.  1.
<scales pt_clust_5="13000.00000" pt_clust_6="13000.00000" pt_clust_7="13000.00000" pt_clust_8="13000.00000" pt_clust_9="39.56692" pt_clust_10="13000.00000"></scales>
<clustering>
<clus scale="   39.567">  1  9  2 -1</clus>
<clus scale="   86.758">  5  6 -1 -1</clus>
<clus scale="   91.859">  7  8 -1 -1</clus>
<clus scale="   55.718">  7 10 -1 -1</clus>
<clus scale="  104.428">  2  5  1 -1</clus>
<clus scale="   39.567">  1  5  2 -1</clus>
</clustering>
</event>
<event>
10    4  0.2866397E-005  0.4888341E+03  0.7546771E-02  0.1053939E+00
          2   -1    0    0  502    0 -0.00000000000E+00  0.00000000000E+00  0.54987773556E+03  0.54987773556E+03  0.00000000000E+00 0. -1.
         21   -1    0    0  503  502  0.00000000000E+00 -0.00000000000E+00 -0.26010188764E+03  0.26010188764E+03  0.00000000000E+00 0.  1.
         24    2    1    2    0    0 -0.65709447375E+02 -0.12482186343E+03  0.21213536682E+03  0.26973861377E+03  0.88652562511E+02 0.  0.
         23    2    1    2    0    0 -0.19596744210E+03  0.78899182435E+02  0.28060619223E+02  0.23188205027E+03  0.91397853009E+02 0.  0.
        -13    1    3    3    0    0 -0.15744255626E+01 -0.87190385903E+02  0.14682530166E+03  0.17076976143E+03  0.00000000000E+00 0.  1.
         14    1    3    3    0    0 -0.64135021812E+02 -0.37631477528E+02  0.65310065160E+02  0.98968852348E+02  0.00000000000E+00 0. -1.
        -11    1    4    4    0    0 -0.15622055326E+03  0.89299191493E+02  0.47971041055E+02  0.18622681773E+03  0.00000000000E+00 0.  1.
         11    1    4    4    0    0 -0.39746888833E+02 -0.10400009058E+02 -0.19910421832E+02  0.45655232535E+02  0.00000000000E+00 0. -1.
         21    1    1    2  503  501  0.12598187298E+02  0.21050178129E+02 -0.36219277327E+02  0.43745404016E+02  0.00000000000E+00 0. -1.
          1    1    1    2  501    0  0.24907870217E+03  0.24872502867E+02  0.85799139207E+02  0.26461355514E+03  0.00000000000E+00 0. -1.
<scales pt_clust_5="13000.00000" pt_clust_6="13000.00000" pt_clust_7="13000.00000" pt_clust_8="13000.00000" pt_clust_9="24.53211" pt_clust_10="13000.00000"></scales>
<clustering>
<clus scale="   24.532">  2  9  1 -1</clus>
<clus scale="   88.653">  5  6 -1 -1</clus>
<clus scale="   91.398">  7  8 -1 -1</clus>
<clus scale="  163.901">  1  5  2 -1</clus>
<clus scale="  219.973">  7 10 -1 -1</clus>
<clus scale="   24.532">  2  5  1 -1</clus>
</clustering>
</event>
<event>
10    4  0.2866397E-005  0.1786283E+03  0.7546771E-02  0.1198779E+00
          2   -1    0    0  503    0 -0.00000000000E+00  0.00000000000E+00  0.90763750782E+02  0.90763750782E+02  0.00000000000E+00 0. -1.
         21   -1    0    0  501  502  0.00000000000E+00 -0.00000000000E+00 -0.39541718785E+03  0.39541718785E+03  0.00000000000E+00 0.  1.
         24    2    1    2    0    0 -0.21672826934E+01  0.49435436966E+02 -0.11293355739E+03  0.14826888000E+03  0.82347512708E+02 0.  0.
         23    2    1    2    0    0  0.15325706011E+02 -0.47393899019E-01  0.34213280802E+02  0.98400995596E+02  0.90979821060E+02 0.  0.
        -13    1    3    3    0    0  0.30510935257E+02  0.54977553315E+02 -0.71661379429E+02  0.95335207769E+02  0.00000000000E+00 0.  1.
         14    1    3    3    0    0 -0.32678217951E+02 -0.55421163491E+01 -0.41272177966E+02  0.52933672233E+02  0.00000000000E+00 0. -1.
        -13    1    4    4    0    0  0.80637962765E+01 -0.37224263296E+02 -0.10781717707E+02  0.39584290129E+02  0.00000000000E+00 0. -1.
         13    1    4    4    0    0  0.72619097345E+01  0.37176869397E+02  0.44994998509E+02  0.58816705467E+02  0.00000000000E+00 0.  1.
         21    1    1    2  503  502 -0.37306489561E+02 -0.27116701185E+02 -0.14526201596E+03  0.15240781780E+03  0.00000000000E+00 0.  1.
          1    1    1    2  501    0  0.24148066243E+02 -0.22271341882E+02 -0.80671144517E+02  0.87103245234E+02  0.00000000000E+00 0. -1.
<scales pt_clust_5="13000.00000" pt_clust_6="13000.00000" pt_clust_7="13000.00000" pt_clust_8="13000.00000" pt_clust_9="46.12038" pt_clust_10="13000.00000"></scales>
<clustering>
<clus scale="   46.120">  2  9  1 -1</clus>
<clus scale="   82.348">  5  6 -1 -1</clus>
<clus scale="   90.980">  7  8 -1 -1</clus>
<clus scale="   33.515">  7 10 -1 -1</clus>
<clus scale="   92.152">  1  5  2 -1</clus>
<clus scale="   46.120">  2  5  1 -1</clus>
</clustering>
</event>
<event>
10    4  0.2866397E-005  0.3592892E+03  0.7546771E-02  0.1114247E+00
          2   -1    0    0  502    0 -0.00000000000E+00  0.00000000000E+00  0.21833715392E+03  0.21833715392E+03  0.00000000000E+00 0. -1.
         21   -1    0    0  503  502  0.00000000000E+00 -0.00000000000E+00 -0.29274442748E+03  0.29274442748E+03  0.00000000000E+00 0.  1.
         24    2    1    2    0    0 -0.13019834206E+02 -0.81421605883E+01 -0.43027035540E+00  0.80665732829E+02  0.79189421380E+02 0.  0.
         23    2    1    2    0    0 -0.38190836124E+02  0.38265362786E+02 -0.16372226556E+03  0.19554058828E+03  0.92240790716E+02 0.  0.
        -13    1    3    3    0    0  0.27424527911E+02  0.17105383654E+02 -0.52477341211E+01  0.32745039235E+02  0.00000000000E+00 0.  1.
         14    1    3    3    0    0 -0.40444362117E+02 -0.25247544242E+02  0.48174637657E+01  0.47920693593E+02  0.00000000000E+00 0. -1.
        -13    1    4    4    0    0 -0.39224458092E+02 -0.10686018979E+02 -0.12968980723E+03  0.13591245422E+03  0.00000000000E+00 0.  1.
         13    1    4    4    0    0  0.10336219676E+01  0.48951381765E+02 -0.34032458335E+02  0.59628134060E+02  0.00000000000E+00 0. -1.
         21    1    1    2  503  501 -0.33360860251E+02 -0.20258618451E+02 -0.54703349258E+02  0.67199814273E+02  0.00000000000E+00 0. -1.
          1    1    1    2  501    0  0.84571530581E+02 -0.98645837462E+01  0.14444861162E+03  0.16767544602E+03  0.00000000000E+00 0. -1.
<scales pt_clust_5="13000.00000" pt_clust_6="13000.00000" pt_clust_7="13000.00000" pt_clust_8="13000.00000" pt_clust_9="39.03023" pt_clust_10="13000.00000"></scales>
<clustering>
<clus scale="   39.030">  2  9  1 -1</clus>
<clus scale="   79.189">  5  6 -1 -1</clus>
<clus scale="   82.238">  1  5  2 -1</clus>
<clus scale="   92.241">  7  8 -1 -1</clus>
<clus scale="   69.886">  7 10 -1 -1</clus>
<clus scale="   39.030">  2  5  1 -1</clus>
</clustering>
</event>
<event>
10    4  0.2866397E-005  0.1866158E+03  0.7546771E-02  0.1184538E+00
         -1   -1    0    0    0  501 -0.00000000000E+00  0.00000000000E+00  0.45796992787E+03  0.45796992787E+03  0.00000000000E+00 0.  1.
         21   -1    0    0  501  502  0.00000000000E+00 -0.00000000000E+00 -0.63638495103E+02  0.63638495103E+02  0.00000000000E+00 0.  1.
         24    2    1    2    0    0 -0.69106061821E+02 -0.97682796573E+01  0.20568235345E+03  0.23370310041E+03  0.86260312738E+02 0.  0.
         23    2    1    2    0    0 -0.12411764321E+02  0.52487086255E+02  0.13013515534E+03  0.16845822308E+03  0.92380020295E+02 0.  0.
        -13    1    3    3    0    0 -0.44893628442E+02  0.31897890551E+02  0.66097175533E+02  0.86033423213E+02  0.00000000000E+00 0.  1.
         14    1    3    3    0    0 -0.24212433379E+02 -0.41666170208E+02  0.13958517792E+03  0.14766967720E+03  0.00000000000E+00 0. -1.
        -11    1    4    4    0    0  0.10412365715E+02  0.37952938569E+02  0.41197035443E+01  0.39570378606E+02  0.00000000000E+00 0. -1.
         11    1    4    4    0    0 -0.22824130036E+02  0.14534147687E+02  0.12601545180E+03  0.12888784447E+03  0.00000000000E+00 0.  1.
         21    1    1    2  503  502  0.67012842558E+01 -0.23849003464E+02  0.42931402632E+01  0.25141862107E+02  0.00000000000E+00 0.  1.
         -2    1    1    2    0  503  0.74816541886E+02 -0.18869803134E+02  0.54220783710E+02  0.94305237374E+02  0.00000000000E+00 0.  1.
<scales pt_clust_5="13000.00000" pt_clust_6="13000.00000" pt_clust_7="13000.00000" pt_clust_8="13000.00000" pt_clust_9="24.77261" pt_clust_10="13000.00000"></scales>
<clustering>
<clus scale="   24.773">  2  9  1 -1</clus>
<clus scale="   86.260">  5  6 -1 -1</clus>
<clus scale="   92.380">  7  8 -1 -1</clus>
<clus scale="   82.203">  7 10 -1 -1</clus>
<clus scale="  110.604">  1  5  2 -1</clus>
<clus scale="   24.773">  2  5  1 -1</clus>
</clustering>
</event>
<event>
10    4  0.2866397E-005  0.3651248E+03  0.7546771E-02  0.1106171E+00
         21   -1    0    0  501  502  0.00000000000E+00  0.00000000000E+00  0.32025431521E+02  0.32025431521E+02  0.00000000000E+00 0. -1.
          2   -1    0    0  503    0 -0.00000000000E+00 -0.00000000000E+00 -0.18745913031E+04  0.18745913031E+04  0.00000000000E+00 0. -1.
         24    2    1    2    0    0  0.54738243752E+02  0.81099101935E+00 -0.35728516871E+03  0.37056246357E+03  0.81651176308E+02 0.  0.
         23    2    1    2    0    0 -0.18758373671E+03 -0.38452662243E+02 -0.84783898177E+03  0.87390201805E+03  0.90595433842E+02 0.  0.
        -11    1    3    3    0    0  0.19955358752E+02 -0.39456463704E+02 -0.18706251583E+03  0.19221710044E+03  0.00000000000E+00 0.  1.
         12    1    3    3    0    0  0.34782885000E+02  0.40267454723E+02 -0.17022265288E+03  0.17834536313E+03  0.00000000000E+00 0. -1.
        -11    1    4    4    0    0 -0.15097775904E+03 -0.58661294422E+02 -0.75348907513E+03  0.77070176951E+03  0.00000000000E+00 0. -1.
         11    1    4    4    0    0 -0.36605977667E+02  0.20208632178E+02 -0.94349906640E+02  0.10320024854E+03  0.00000000000E+00 0.  1.
         21    1    1    2  503  502 -0.17803737757E+02  0.17727429649E+02 -0.59946688418E+02  0.64998771469E+02  0.00000000000E+00 0.  1.
          1    1    1    2  501    0  0.15064923071E+03  0.19914241575E+02 -0.57749503264E+03  0.59715348149E+03  0.00000000000E+00 0. -1.
<scales pt_clust_5="13000.00000" pt_clust_6="13000.00000" pt_clust_7="13000.00000" pt_clust_8="13000.00000" pt_clust_9="25.12439" pt_clust_10="13000.00000"></scales>
<clustering>
<clus scale="   25.124">  1  9  2 -1</clus>
<clus scale="   81.651">  5  6 -1 -1</clus>
<clus scale="   90.595">  7  8 -1 -1</clus>
<clus scale="   96.248">  2  5  1 -1</clus>
<clus scale="  166.467">  7 10 -1 -1</clus>
<clus scale="   25.124">  1  5  2 -1</clus>
</clustering>
</event>
<event>
10    4  0.2866397E-005  0.3145554E+03  0.7546771E-02  0.1089873E+00
         21   -1    0    0  503  502  0.00000000000E+00  0.00000000000E+00  0.81907205851E+02  0.81907205851E+02  0.00000000000E+00 0.  1.
         -3   -1    0    0    0  501 -0.00000000000E+00 -0.00000000000E+00 -0.12745097580E+04  0.12745097580E+04  0.00000000000E+00 0.  1.
         24    2    1    2    0    0  0.20739375208E+03  0.24836483796E+02 -0.43797002526E+03  0.49210115157E+03  0.81955970017E+02 0.  0.
         23    2    1    2    0    0 -0.13080065488E+03 -0.73264756210E+02 -0.27583333072E+03  0.32691202717E+03  0.91164199948E+02 0.  0.
        -13    1    3    3    0    0  0.20187721501E+03  0.27120076593E+02 -0.44073023746E+03  0.48552348111E+03  0.00000000000E+00 0.  1.
         14    1    3    3    0    0  0.55165370670E+01 -0.22835927967E+01  0.27602122028E+01  0.65776704597E+01  0.00000000000E+00 0. -1.
        -11    1    4    4    0    0 -0.22929928701E+02 -0.60262384471E+02 -0.12937646474E+03  0.14455312602E+03  0.00000000000E+00 0. -1.
         11    1    4    4    0    0 -0.10787072618E+03 -0.13002371739E+02 -0.14645686598E+03  0.18235890115E+03  0.00000000000E+00 0.  1.
         21    1    1    2  503  501  0.15089938471E+02 -0.16215818719E+02  0.17721856389E+02  0.28367643781E+02  0.00000000000E+00 0. -1.
         -4    1    1    2    0  502 -0.91683035673E+02  0.64644091133E+02 -0.49652105253E+03  0.50903614131E+03  0.00000000000E+00 0.  1.
<scales pt_clust_5="13000.00000" pt_clust_6="13000.00000" pt_clust_7="13000.00000" pt_clust_8="13000.00000" pt_clust_9="22.15082" pt_clust_10="13000.00000"></scales>
<clustering>
<clus scale="   22.151">  1  9  2 -1</clus>
<clus scale="   81.956">  5  6 -1 -1</clus>
<clus scale="   91.164">  7  8 -1 -1</clus>
<clus scale="  109.878">  7 10 -1 -1</clus>
<clus scale="  230.124">  2  5  1 -1</clus>
<clus scale="   22.151">  1  5  2 -1</clus>
</clustering>
</event>
<event>
10    4  0.2866397E-005  0.3606856E+03  0.7546771E-02  0.1094651E+00
         21   -1    0    0  503  502  0.00000000000E+00  0.00000000000E+00  0.10431797789E+03  0.10431797789E+03  0.00000000000E+00 0.  1.
          4   -1    0    0  502    0 -0.00000000000E+00 -0.00000000000E+00 -0.90405444725E+03  0.90405444725E+03  0.00000000000E+00 0. -1.
         24    2    1    2    0    0 -0.86103153076E+01 -0.10468798652E+03 -0.16464760239E+03  0.21135763051E+03  0.80805339860E+02 0.  0.
         23    2    1    2    0    0  0.54820473767E+02 -0.51713443059E+02 -0.73049898158E+02  0.13818811953E+03  0.89889399932E+02 0.  0.
        -11    1    3    3    0    0  0.22964011682E+02 -0.94436252254E+02 -0.10486438417E+03  0.14297583936E+03  0.00000000000E+00 0.  1.
         12    1    3    3    0    0 -0.31574326990E+02 -0.10251734266E+02 -0.59783218222E+02  0.68381791153E+02  0.00000000000E+00 0. -1.
        -11    1    4    4    0    0  0.65459340930E+02 -0.44733520766E+01 -0.57744925339E+02  0.87403733309E+02  0.00000000000E+00 0. -1.
         11    1    4    4    0    0 -0.10638867163E+02 -0.47240090982E+02 -0.15304972819E+02  0.50784386218E+02  0.00000000000E+00 0.  1.
         21    1    1    2  503  501  0.37915851770E+02 -0.86785825094E+01  0.22974132747E+02  0.45174554622E+02  0.00000000000E+00 0.  1.
          3    1    1    2  501    0 -0.84126010230E+02  0.16508001209E+03 -0.58501310155E+03  0.61365212048E+03  0.00000000000E+00 0. -1.
<scales pt_clust_5="13000.00000" pt_clust_6="13000.00000" pt_clust_7="13000.00000" pt_clust_8="13000.00000" pt_clust_9="38.89640" pt_clust_10="13000.00000"></scales>
<clustering>
<clus scale="   38.896">  1  9  2 -1</clus>
<clus scale="   80.805">  5  6 -1 -1</clus>
<clus scale="   89.889">  7  8 -1 -1</clus>
<clus scale="  134.601">  2  5  1 -1</clus>
<clus scale="  105.765">  7 10 -1 -1</clus>
<clus scale="   38.896">  1  5  2 -1</clus>
</clustering>
</event>
<event>
10    4  0.2866397E-005  0.5318078E+03  0.7546771E-02  0.1029028E+00
         21   -1    0    0  503  502  0.00000000000E+00  0.00000000000E+00  0.55055587411E+03  0.55055587411E+03  0.00000000000E+00 0. -1.
          2   -1    0    0  502    0 -0.00000000000E+00 -0.00000000000E+00 -0.55918724029E+03  0.55918724029E+03  0.00000000000E+00 0. -1.
         24    2    1    2    0    0 -0.24307216297E+03 -0.18575405641E+03  0.64645995200E+02  0.32088687726E+03  0.72115445085E+02 0.  0.
         23    2    1    2    0    0  0.13257853775E+02 -0.12516704411E+03  0.21016130796E+02  0.15564025202E+03  0.89104717485E+02 0.  0.
        -11    1    3    3    0    0 -0.49001480317E+02 -0.69102222000E+02  0.38163182753E+02  0.92912274089E+02  0.00000000000E+00 0.  1.
         12    1    3    3    0    0 -0.19407068265E+03 -0.11665183441E+03  0.26482812447E+02  0.22797460317E+03  0.00000000000E+00 0. -1.
        -13    1    4    4    0    0 -0.18261225342E+02 -0.36435144300E+02 -0.28035044266E+02  0.49466714042E+02  0.00000000000E+00 0.  1.
         13    1    4    4    0    0  0.31519079117E+02 -0.88731899810E+02  0.49051175062E+02  0.10617353798E+03  0.00000000000E+00 0. -1.
         21    1    1    2  503  501  0.11109435386E+03  0.20901038298E+02  0.18278166683E+03  0.21491381200E+03  0.00000000000E+00 0. -1.
          1    1    1    2  501    0  0.11871995534E+03  0.29002006222E+03 -0.27707515901E+03  0.41830217311E+03  0.00000000000E+00 0. -1.
<scales pt_clust_5="13000.00000" pt_clust_6="13000.00000" pt_clust_7="13000.00000" pt_clust_8="13000.00000" pt_clust_9="113.04339" pt_clust_10="13000.00000"></scales>
<clustering>
<clus scale="   72.115">  5  6 -1 -1</clus>
<clus scale="   89.105">  7  8 -1 -1</clus>
<clus scale="  113.043">  1  9  2 -1</clus>
<clus scale="  262.243">  2  5  1 -1</clus>
<clus scale="  149.408">  7 10 -1 -1</clus>
<clus scale="  113.043">  1  5  2 -1</clus>
</clustering>
</event>
<event>
10    4  0.2866397E-005  0.5443926E+03  0.7546771E-02  0.1008730E+00
         21   -1    0    0  503  502  0.00000000000E+00  0.00000000000E+00  0.33812679728E+03  0.33812679728E+03  0.00000000000E+00 0.  1.
          2   -1    0    0  502    0 -0.00000000000E+00 -0.00000000000E+00 -0.11150677989E+04  0.11150677989E+04  0.00000000000E+00 0. -1.
         24    2    1    2    0    0 -0.46243265325E+03 -0.17814640994E+03 -0.63605859763E+02  0.50593281451E+03  0.79637963522E+02 0.  0.
         23    2    1    2    0    0  0.39162368693E+03  0.10868590328E+02 -0.44972948115E+03  0.60315947653E+03  0.89763631240E+02 0.  0.
        -13    1    3    3    0    0 -0.33721643699E+03 -0.90744494542E+02 -0.45057871390E+02  0.35210751262E+03  0.00000000000E+00 0.  1.
         14    1    3    3    0    0 -0.12521621626E+03 -0.87401915402E+02 -0.18547988372E+02  0.15382530190E+03  0.00000000000E+00 0. -1.
        -13    1    4    4    0    0  0.30309254911E+02 -0.16690904727E+02 -0.71096311212E+02  0.79069100803E+02  0.00000000000E+00 0.  1.
         13    1    4    4    0    0  0.36131443202E+03  0.27559495056E+02 -0.37863316993E+03  0.52409037572E+03  0.00000000000E+00 0. -1.
         21    1    1    2  503  501  0.55586719024E+02  0.53512307601E+02 -0.28101624523E+02  0.82116695608E+02  0.00000000000E+00 0. -1.
          1    1    1    2  501    0  0.15222247300E+02  0.11376551201E+03 -0.23550403615E+03  0.26198560949E+03  0.00000000000E+00 0. -1.
<scales pt_clust_5="13000.00000" pt_clust_6="13000.00000" pt_clust_7="13000.00000" pt_clust_8="13000.00000" pt_clust_9="77.15861" pt_clust_10="13000.00000"></scales>
<clustering>
<clus scale="   77.159">  1  9  2 -1</clus>
<clus scale="   79.638">  5  6 -1 -1</clus>
<clus scale="   89.764">  7  8 -1 -1</clus>
<clus scale="  117.368">  7 10 -1 -1</clus>
<clus scale="  452.584">  2  5  1 -1</clus>
<clus scale="   77.159">  1  5  2 -1</clus>
</clustering>
</event>
<event>
10    4  0.2866397E-005  0.3001765E+03  0.7546771E-02  0.1129719E+00
          2   -1    0    0  503    0 -0.00000000000E+00  0.00000000000E+00  0.14920368819E+04  0.14920368819E+04  0.00000000000E+00 0. -1.
         21   -1    0    0  501  502  0.00000000000E+00 -0.00000000000E+00 -0.61818690552E+02  0.61818690552E+02  0.00000000000E+00 0. -1.
         24    2    1    2    0    0  0.14493099535E+00 -0.55640441361E+02  0.71699140012E+03  0.72366810371E+03  0.80764947625E+02 0.  0.
         23    2    1    2    0    0  0.14080475984E+02 -0.11545702998E+03  0.49205820931E+03  0.51426097181E+03  0.93885463184E+02 0.  0.
        -13    1    3    3    0    0  0.32415580093E+02 -0.15025515462E+02  0.14531119701E+03  0.14963916575E+03  0.00000000000E+00 0.  1.
         14    1    3    3    0    0 -0.32270649098E+02 -0.40614925899E+02  0.57168020310E+03  0.57402893796E+03  0.00000000000E+00 0. -1.
        -11    1    4    4    0    0  0.47277758890E+02 -0.94812342978E+02  0.29718162415E+03  0.31550195657E+03  0.00000000000E+00 0. -1.
         11    1    4    4    0    0 -0.33197282906E+02 -0.20644686997E+02  0.19487658516E+03  0.19875901524E+03  0.00000000000E+00 0.  1.
         21    1    1    2  503  502  0.89144883513E+01  0.38057697587E+02 -0.16616466712E+02  0.42473090471E+02  0.00000000000E+00 0. -1.
          1    1    1    2  501    0 -0.23139895331E+02  0.13303977375E+03  0.23778504864E+03  0.27345340648E+03  0.00000000000E+00 0. -1.
<scales pt_clust_5="13000.00000" pt_clust_6="13000.00000" pt_clust_7="13000.00000" pt_clust_8="13000.00000" pt_clust_9="39.08780" pt_clust_10="13000.00000"></scales>
<clustering>
<clus scale="   39.088">  2  9  1 -1</clus>
<clus scale="   80.765">  5  6 -1 -1</clus>
<clus scale="   93.885">  7  8 -1 -1</clus>
<clus scale="   95.903">  1  5  2 -1</clus>
<clus scale="  132.802">  7 10 -1 -1</clus>
<clus scale="   39.088">  2  5  1 -1</clus>
</clustering>
</event>
<event>
10    4  0.2866397E-005  0.3863612E+03  0.7546771E-02  0.1088406E+00
          2   -1    0    0  502    0 -0.00000000000E+00  0.00000000000E+00  0.93282104930E+03  0.93282104930E+03  0.00000000000E+00 0. -1.
         21   -1    0    0  503  502  0.00000000000E+00 -0.00000000000E+00 -0.44975454556E+03  0.44975454556E+03  0.00000000000E+00 0. -1.
         24    2    1    2    0    0 -0.17659387783E+02 -0.97694563401E+02  0.71845377453E+03  0.73045434879E+03  0.86785066886E+02 0.  0.
         23    2    1    2    0    0 -0.77893811424E+02 -0.16536821870E+03 -0.96592303945E+01  0.20290399695E+03  0.87536493160E+02 0.  0.
        -13    1    3    3    0    0  0.26797062209E+02 -0.31445731774E+02  0.12473772620E+03  0.13140173867E+03  0.00000000000E+00 0.  1.
         14    1    3    3    0    0 -0.44456449992E+02 -0.66248831627E+02  0.59371604833E+03  0.59905261011E+03  0.00000000000E+00 0. -1.
        -11    1    4    4    0    0 -0.81507031359E+02 -0.93110772905E+02  0.18789051641E+02  0.12516405496E+03  0.00000000000E+00 0.  1.
         11    1    4    4    0    0  0.36132199350E+01 -0.72257445791E+02 -0.28448282036E+02  0.77739941994E+02  0.00000000000E+00 0. -1.
         21    1    1    2  503  501  0.15953084261E+02  0.11279996824E+03 -0.25256389134E+03  0.27706831819E+03  0.00000000000E+00 0. -1.
          1    1    1    2  501    0  0.79600114946E+02  0.15026281386E+03  0.26835850952E+02  0.17214893094E+03  0.00000000000E+00 0. -1.
<scales pt_clust_5="13000.00000" pt_clust_6="13000.00000" pt_clust_7="13000.00000" pt_clust_8="13000.00000" pt_clust_9="113.92249" pt_clust_10="13000.00000"></scales>
<clustering>
<clus scale="   86.785">  5  6 -1 -1</clus>
<clus scale="   87.536">  7  8 -1 -1</clus>
<clus scale="  113.922">  2  9  1 -1</clus>
<clus scale="  129.105">  1  5  2 -1</clus>
<clus scale="  149.743">  7 10 -1 -1</clus>
<clus scale="  113.922">  2  5  1 -1</clus>
</clustering>
</event>
<event>
10    4  0.2866397E-005  0.5218376E+03  0.7546771E-02  0.1050697E+00
          2   -1    0    0  502    0 -0.00000000000E+00  0.00000000000E+00  0.23681592378E+03  0.23681592378E+03  0.00000000000E+00 0. -1.
         21   -1    0    0  503  502  0.00000000000E+00 -0.00000000000E+00 -0.63085039974E+03  0.63085039974E+03  0.00000000000E+00 0. -1.
         24    2    1    2    0    0  0.12161605302E+03 -0.71665390618E+02 -0.19627883733E+02  0.16079443293E+03  0.74452691527E+02 0.  0.
         23    2    1    2    0    0  0.14131437346E+03  0.14095172226E+03  0.13812537048E+02  0.21966093712E+03  0.90680764006E+02 0.  0.
        -13    1    3    3    0    0  0.37803437616E+02 -0.63577494641E+02  0.14980722405E+01  0.73982713797E+02  0.00000000000E+00 0.  1.
         14    1    3    3    0    0  0.83812615406E+02 -0.80878959776E+01 -0.21125955974E+02  0.86811719131E+02  0.00000000000E+00 0. -1.
        -11    1    4    4    0    0  0.55307658145E+02  0.14312350419E+01  0.36512749641E+01  0.55446526420E+02  0.00000000000E+00 0.  1.
         11    1    4    4    0    0  0.86006715314E+02  0.13952048722E+03  0.10161262084E+02  0.16421441070E+03  0.00000000000E+00 0. -1.
         21    1    1    2  503  501 -0.71494358312E+02  0.31394567824E+02 -0.10250923275E+03  0.12886118484E+03  0.00000000000E+00 0.  1.
          1    1    1    2  501    0 -0.19143606817E+03 -0.10068089947E+03 -0.28570989651E+03  0.35834976863E+03  0.00000000000E+00 0. -1.
<scales pt_clust_5="13000.00000" pt_clust_6="13000.00000" pt_clust_7="13000.00000" pt_clust_8="13000.00000" pt_clust_9="78.08369" pt_clust_10="13000.00000"></scales>
<clustering>
<clus scale="   74.453">  5  6 -1 -1</clus>
<clus scale="   78.084">  2  9  1 -1</clus>
<clus scale="   90.681">  7  8 -1 -1</clus>
<clus scale="  147.728">  1  5  2 -1</clus>
<clus scale="  225.084">  7 10 -1 -1</clus>
<clus scale="   78.084">  2  5  1 -1</clus>
</clustering>
</event>
<event>
10    4  0.2866397E-005  0.1417912E+03  0.7546771E-02  0.1222103E+00
          2   -1    0    0  502    0 -0.00000000000E+00  0.00000000000E+00  0.82264321366E+03  0.82264321366E+03  0.00000000000E+00 0. -1.
         21   -1    0    0  503  502  0.00000000000E+00 -0.00000000000E+00 -0.37115116332E+02  0.37115116332E+02  0.00000000000E+00 0. -1.
         24    2    1    2    0    0 -0.86703200427E+02 -0.38246603869E+02  0.40962105246E+03  0.42790459211E+03  0.79578173296E+02 0.  0.
         23    2    1    2    0    0  0.72589487910E+01  0.27912904692E+02  0.22153974389E+03  0.24108862362E+03  0.90620327364E+02 0.  0.
        -13    1    3    3    0    0 -0.19600552047E+02 -0.51534489104E+02  0.17068315879E+03  0.17936757205E+03  0.00000000000E+00 0.  1.
         14    1    3    3    0    0 -0.67102648381E+02  0.13287885236E+02  0.23893789367E+03  0.24853702007E+03  0.00000000000E+00 0. -1.
        -13    1    4    4    0    0  0.12272451572E+01 -0.32782026348E+02  0.59411540920E+02  0.67866770784E+02  0.00000000000E+00 0.  1.
         13    1    4    4    0    0  0.60317036338E+01  0.60694931040E+02  0.16212820297E+03  0.17322185284E+03  0.00000000000E+00 0. -1.
         21    1    1    2  503  501  0.51883839364E+02 -0.15412016710E+02  0.32357727616E+02  0.63059381401E+02  0.00000000000E+00 0. -1.
          1    1    1    2  501    0  0.27560412273E+02  0.25745715886E+02  0.12200957336E+03  0.12770573285E+03  0.00000000000E+00 0. -1.
<scales pt_clust_5="13000.00000" pt_clust_6="13000.00000" pt_clust_7="13000.00000" pt_clust_8="13000.00000" pt_clust_9="54.12451" pt_clust_10="13000.00000"></scales>
<clustering>
<clus scale="   54.125">  2  9  1 -1</clus>
<clus scale="   79.578">  5  6 -1 -1</clus>
<clus scale="   90.620">  7  8 -1 -1</clus>
<clus scale="   41.749">  7 10 -1 -1</clus>
<clus scale="  112.009">  1  5  2 -1</clus>
<clus scale="   54.125">  2  5  1 -1</clus>
</clustering>
</event>
<event>
10    4  0.2866397E-005  0.3170597E+03  0.7546771E-02  0.1118120E+00
          2   -1    0    0  503    0 -0.00000000000E+00  0.00000000000E+00  0.29772100776E+04  0.29772100776E+04  0.00000000000E+00 0. -1.
         21   -1    0    0  501  502  0.00000000000E+00 -0.00000000000E+00 -0.22597602343E+02  0.22597602343E+02  0.00000000000E+00 0. -1.
         24    2    1    2    0    0 -0.75944172791E+01  0.72049075409E+02  0.15214386961E+04  0.15253501256E+04  0.81661222333E+02 0.  0.
         23    2    1    2    0    0 -0.88944844224E+02 -0.19696175775E+01  0.43264495772E+03  0.45963927694E+03  0.12716737300E+03 0.  0.
        -11    1    3    3    0    0 -0.13535674884E+02  0.17277408227E+02  0.82881551234E+02  0.85738409506E+02  0.00000000000E+00 0.  1.
         12    1    3    3    0    0  0.59412576049E+01  0.54771667182E+02  0.14385571449E+04  0.14396117161E+04  0.00000000000E+00 0. -1.
        -13    1    4    4    0    0 -0.68528769577E+02 -0.51863385774E+02  0.35405749689E+03  0.36433873544E+03  0.00000000000E+00 0.  1.
         13    1    4    4    0    0 -0.20416074647E+02  0.49893768196E+02  0.78587460838E+02  0.95300541498E+02  0.00000000000E+00 0. -1.
         21    1    1    2  503  502 -0.26868855266E+02 -0.13245455517E+02  0.11091422390E+03  0.11488839166E+03  0.00000000000E+00 0.  1.
          1    1    1    2  501    0  0.12340811677E+03 -0.56834002314E+02  0.88961459747E+03  0.89992988568E+03  0.00000000000E+00 0. -1.
<scales pt_clust_5="13000.00000" pt_clust_6="13000.00000" pt_clust_7="13000.00000" pt_clust_8="13000.00000" pt_clust_9="29.95626" pt_clust_10="13000.00000"></scales>
<clustering>
<clus scale="   29.956">  2  9  1 -1</clus>
<clus scale="   81.661">  5  6 -1 -1</clus>
<clus scale="  108.550">  1  5  2 -1</clus>
<clus scale="  127.167">  7  8 -1 -1</clus>
<clus scale="  112.210">  7 10 -1 -1</clus>
<clus scale="   29.956">  2  5  1 -1</clus>
</clustering>
</event>
<event>
10    4  0.2866397E-005  0.7625026E+03  0.7546771E-02  0.9858358E-01
         21   -1    0    0  503  502  0.00000000000E+00  0.00000000000E+00  0.70951303314E+03  0.70951303314E+03  0.00000000000E+00 0. -1.
          2   -1    0    0  502    0 -0.00000000000E+00 -0.00000000000E+00 -0.55080900034E+03  0.55080900034E+03  0.00000000000E+00 0. -1.
         24    2    1    2    0    0 -0.26791355864E+03 -0.23889090577E+03 -0.11587902677E+02  0.36789835702E+03  0.79802141858E+02 0.  0.
         23    2    1    2    0    0  0.19995302969E+03 -0.17243320868E+03 -0.15366957533E+03  0.31954579805E+03  0.93705672869E+02 0.  0.
        -11    1    3    3    0    0 -0.29098873635E+02 -0.43429638368E+02  0.23477386762E+02  0.57306767705E+02  0.00000000000E+00 0.  1.
         12    1    3    3    0    0 -0.23881468501E+03 -0.19546126740E+03 -0.35065289439E+02  0.31059158932E+03  0.00000000000E+00 0. -1.
        -11    1    4    4    0    0  0.40761904102E+02 -0.60394034511E+01 -0.55716495967E+02  0.69298882696E+02  0.00000000000E+00 0.  1.
         11    1    4    4    0    0  0.15919112559E+03 -0.16639380523E+03 -0.97953079363E+02  0.25024691535E+03  0.00000000000E+00 0. -1.
         21    1    1    2  503  501  0.82358935905E+02  0.43871520130E+02  0.12115774635E+03  0.15292777414E+03  0.00000000000E+00 0. -1.
          1    1    1    2  501    0 -0.14398406954E+02  0.36745259433E+03  0.20280376447E+03  0.41995010428E+03  0.00000000000E+00 0. -1.
<scales pt_clust_5="13000.00000" pt_clust_6="13000.00000" pt_clust_7="13000.00000" pt_clust_8="13000.00000" pt_clust_9="93.31508" pt_clust_10="13000.00000"></scales>
<clustering>
<clus scale="   79.802">  5  6 -1 -1</clus>
<clus scale="   93.315">  1  9  2 -1</clus>
<clus scale="   93.706">  7  8 -1 -1</clus>
<clus scale="  340.297">  2  5  1 -1</clus>
<clus scale="  318.122">  7 10 -1 -1</clus>
<clus scale="   93.315">  1  5  2 -1</clus>
</clustering>
</event>
<event>
10    4  0.2866397E-005  0.4151041E+03  0.7546771E-02  0.1044179E+00
         -1   -1    0    0    0  501 -0.00000000000E+00  0.00000000000E+00  0.11041959886E+04  0.11041959886E+04  0.00000000000E+00 0.  1.
         21   -1    0    0  501  502  0.00000000000E+00 -0.00000000000E+00 -0.18715592251E+03  0.18715592251E+03  0.00000000000E+00 0.  1.
         24    2    1    2    0    0  0.36666597507E+03  0.11903313208E+03  0.41254136398E+03  0.57016852609E+03  0.79302883586E+02 0.  0.
         23    2    1    2    0    0 -0.64081306158E+02  0.35552378194E+02  0.14162838226E+03  0.18373648435E+03  0.91269445189E+02 0.  0.
        -13    1    3    3    0    0  0.30154325272E+03  0.66149914971E+02  0.34023921284E+03  0.45942014156E+03  0.00000000000E+00 0.  1.
         14    1    3    3    0    0  0.65122722350E+02  0.52883217113E+02  0.72302151136E+02  0.11074838454E+03  0.00000000000E+00 0. -1.
        -13    1    4    4    0    0  0.12853003474E+02 -0.18664705745E+02  0.32603592296E+02  0.39705984051E+02  0.00000000000E+00 0.  1.
         13    1    4    4    0    0 -0.76934309632E+02  0.54217083938E+02  0.10902478996E+03  0.14403050029E+03  0.00000000000E+00 0. -1.
         21    1    1    2  503  502 -0.75994003361E+02 -0.70212838852E+01 -0.98706004116E+01  0.76953334735E+02  0.00000000000E+00 0.  1.
         -2    1    1    2    0  503 -0.22659066555E+03 -0.14756422639E+03  0.37274092028E+03  0.46049356594E+03  0.00000000000E+00 0.  1.
<scales pt_clust_5="13000.00000" pt_clust_6="13000.00000" pt_clust_7="13000.00000" pt_clust_8="13000.00000" pt_clust_9="76.31767" pt_clust_10="13000.00000"></scales>
<clustering>
<clus scale="   76.318">  2  9  1 -1</clus>
<clus scale="   79.303">  5  6 -1 -1</clus>
<clus scale="   91.269">  7  8 -1 -1</clus>
<clus scale="  291.215">  7 10 -1 -1</clus>
<clus scale="  353.809">  1  5  2 -1</clus>
<clus scale="   76.318">  2  5  1 -1</clus>
</clustering>
</event>
<event>
10    4  0.2866397E-005  0.2741470E+03  0.7546771E-02  0.1146542E+00
          2   -1    0    0  502    0 -0.00000000000E+00  0.00000000000E+00  0.10550496150E+04  0.10550496150E+04  0.00000000000E+00 0. -1.
         21   -1    0    0  503  502  0.00000000000E+00 -0.00000000000E+00 -0.10436577175E+03  0.10436577175E+03  0.00000000000E+00 0.  1.
         24    2    1    2    0    0 -0.21469446623E+02 -0.11246657338E+02  0.11023943646E+03  0.13846665168E+03  0.80205086100E+02 0.  0.
         23    2    1    2    0    0  0.98680919703E+02 -0.19152765175E+02  0.21393133234E+03  0.25382764520E+03  0.92504627907E+02 0.  0.
        -11    1    3    3    0    0 -0.42900489244E+02 -0.31674467807E+02  0.61111939537E+02  0.81107293397E+02  0.00000000000E+00 0.  1.
         12    1    3    3    0    0  0.21431042622E+02  0.20427810469E+02  0.49127496927E+02  0.57359358283E+02  0.00000000000E+00 0. -1.
        -11    1    4    4    0    0  0.17770138688E+02  0.34170365464E+02  0.46522824451E+02  0.60396729215E+02  0.00000000000E+00 0.  1.
         11    1    4    4    0    0  0.80910781015E+02 -0.53323130639E+02  0.16740850789E+03  0.19343091599E+03  0.00000000000E+00 0. -1.
         21    1    1    2  503  501 -0.11677880904E+03 -0.55892978281E+02 -0.39747601689E+01  0.12952649915E+03  0.00000000000E+00 0.  1.
          1    1    1    2  501    0  0.39567335963E+02  0.86292400794E+02  0.63048783465E+03  0.63759459075E+03  0.00000000000E+00 0. -1.
<scales pt_clust_5="13000.00000" pt_clust_6="13000.00000" pt_clust_7="13000.00000" pt_clust_8="13000.00000" pt_clust_9="131.09923" pt_clust_10="13000.00000"></scales>
<clustering>
<clus scale="   80.205">  5  6 -1 -1</clus>
<clus scale="   83.787">  1  5  2 -1</clus>
<clus scale="   92.505">  7  8 -1 -1</clus>
<clus scale="   82.491">  7 10 -1 -1</clus>
<clus scale="  131.099">  2  9  1 -1</clus>
<clus scale="  131.099">  2  5  1 -1</clus>
</clustering>
</event>
<event>
10    4  0.2866397E-005  0.2706133E+03  0.7546771E-02  0.1147400E+00
         21   -1    0    0  501  502  0.00000000000E+00  0.00000000000E+00  0.23922326348E+03  0.23922326348E+03  0.00000000000E+00 0.  1.
         -1   -1    0    0    0  501 -0.00000000000E+00 -0.00000000000E+00 -0.28740227336E+03  0.28740227336E+03  0.00000000000E+00 0.  1.
         24    2    1    2    0    0 -0.19766731088E+02 -0.22183161797E+02 -0.18059442664E+03  0.19966865051E+03  0.79814827801E+02 0.  0.
         23    2    1    2    0    0 -0.25273050394E+02 -0.75670781617E+02  0.12807871143E+03  0.17664923437E+03  0.91847707734E+02 0.  0.
        -11    1    3    3    0    0 -0.30590144910E+02 -0.37037339371E+02 -0.17340132455E+03  0.17993204503E+03  0.00000000000E+00 0.  1.
         12    1    3    3    0    0  0.10823413822E+02  0.14854177574E+02 -0.71931020943E+01  0.19736605481E+02  0.00000000000E+00 0. -1.
        -11    1    4    4    0    0  0.25295049795E+01 -0.40391408964E+02  0.12526831779E+03  0.13164351771E+03  0.00000000000E+00 0.  1.
         11    1    4    4    0    0 -0.27802555373E+02 -0.35279372653E+02  0.28103936443E+01  0.45005716665E+02  0.00000000000E+00 0. -1.
         21    1    1    2  503  502 -0.22372891649E+02  0.49619826007E+01  0.24750954058E+02  0.33730954313E+02  0.00000000000E+00 0.  1.
         -2    1    1    2    0  503  0.67412673132E+02  0.92891960814E+02 -0.20414248717E+02  0.11657669764E+03  0.00000000000E+00 0.  1.
<scales pt_clust_5="13000.00000" pt_clust_6="13000.00000" pt_clust_7="13000.00000" pt_clust_8="13000.00000" pt_clust_9="22.91653" pt_clust_10="13000.00000"></scales>
<clustering>
<clus scale="   22.917">  1  9  2 -1</clus>
<clus scale="   79.815">  5  6 -1 -1</clus>
<clus scale="   85.349">  2  5  1 -1</clus>
<clus scale="   91.848">  7  8 -1 -1</clus>
<clus scale="   92.130">  7 10 -1 -1</clus>
<clus scale="   22.917">  1  5  2 -1</clus>
</clustering>
</event>
<event>
10    4  0.2866397E-005  0.6539116E+03  0.7546771E-02  0.1038041E+00
         21   -1    0    0  501  502  0.00000000000E+00  0.00000000000E+00  0.23123065787E+03  0.23123065787E+03  0.00000000000E+00 0. -1.
          2   -1    0    0  503    0 -0.00000000000E+00 -0.00000000000E+00 -0.76017381746E+03  0.76017381746E+03  0.00000000000E+00 0. -1.
         24    2    1    2    0    0  0.43466930594E+02  0.48169338193E+02 -0.90664698107E+02  0.13941552923E+03  0.83707485397E+02 0.  0.
         23    2    1    2    0    0  0.15040268361E+03  0.12680923493E+03  0.41626613135E+02  0.22072072480E+03  0.91012714131E+02 0.  0.
        -13    1    3    3    0    0  0.26643847083E+02  0.37292700969E+01 -0.87780011276E+02  0.91810306733E+02  0.00000000000E+00 0.  1.
         14    1    3    3    0    0  0.16823083511E+02  0.44440068096E+02 -0.28846868313E+01  0.47605222501E+02  0.00000000000E+00 0. -1.
        -13    1    4    4    0    0  0.13162237144E+03  0.56017056986E+02  0.20608062926E+02  0.14452353301E+03  0.00000000000E+00 0. -1.
         13    1    4    4    0    0  0.18780312172E+02  0.70792177941E+02  0.21018550209E+02  0.76197191785E+02  0.00000000000E+00 0.  1.
         21    1    1    2  503  502  0.85755246769E+01  0.30640719010E+02  0.31054375116E+02  0.44460853554E+02  0.00000000000E+00 0. -1.
          1    1    1    2  501    0 -0.20244513889E+03 -0.20561929213E+03 -0.51095944974E+03  0.58680736774E+03  0.00000000000E+00 0. -1.
<scales pt_clust_5="13000.00000" pt_clust_6="13000.00000" pt_clust_7="13000.00000" pt_clust_8="13000.00000" pt_clust_9="31.81813" pt_clust_10="13000.00000"></scales>
<clustering>
<clus scale="   31.818">  1  9  2 -1</clus>
<clus scale="   83.707">  5  6 -1 -1</clus>
<clus scale="   91.013">  7  8 -1 -1</clus>
<clus scale="  108.160">  2  5  1 -1</clus>
<clus scale="  226.604">  7 10 -1 -1</clus>
<clus scale="   31.818">  1  5  2 -1</clus>
</clustering>
</event>
<event>
10    4  0.2866397E-005  0.2338788E+03  0.7546771E-02  0.1168437E+00
         -1   -1    0    0    0  501 -0.00000000000E+00  0.00000000000E+00  0.86264502723E+02  0.86264502723E+02  0.00000000000E+00 0.  1.
         21   -1    0    0  503  502  0.00000000000E+00 -0.00000000000E+00 -0.46298499359E+03  0.46298499359E+03  0.00000000000E+00 0. -1.
         24    2    1    2    0    0 -0.10578567728E+02  0.20099136357E+02 -0.73629165137E+02  0.11079290527E+03  0.79611133157E+02 0.  0.
         23    2    1    2    0    0  0.26709395453E+02 -0.61207583015E+02 -0.16121053806E+03  0.19652387696E+03  0.90404848385E+02 0.  0.
        -11    1    3    3    0    0  0.30997275510E+02 -0.54711362371E+01 -0.42555159264E+02  0.52931143958E+02  0.00000000000E+00 0.  1.
         12    1    3    3    0    0 -0.41575843237E+02  0.25570272594E+02 -0.31074005873E+02  0.57861761315E+02  0.00000000000E+00 0. -1.
        -13    1    4    4    0    0  0.14417899484E+02  0.22591786990E+02 -0.28784753911E+02  0.39329718059E+02  0.00000000000E+00 0.  1.
         13    1    4    4    0    0  0.12291495969E+02 -0.83799370005E+02 -0.13242578415E+03  0.15719415890E+03  0.00000000000E+00 0. -1.
         21    1    1    2  503  501  0.16463337386E+02 -0.22472026986E+02 -0.16461440649E+03  0.16695489301E+03  0.00000000000E+00 0. -1.
         -2    1    1    2    0  502 -0.32594165110E+02  0.63580473644E+02  0.22733618818E+02  0.74977821072E+02  0.00000000000E+00 0.  1.
<scales pt_clust_5="13000.00000" pt_clust_6="13000.00000" pt_clust_7="13000.00000" pt_clust_8="13000.00000" pt_clust_9="27.85738" pt_clust_10="13000.00000"></scales>
<clustering>
<clus scale="   27.857">  2  9  1 -1</clus>
<clus scale="   79.611">  5  6 -1 -1</clus>
<clus scale="   80.871">  1  5  2 -1</clus>
<clus scale="   90.405">  7  8 -1 -1</clus>
<clus scale="   78.596">  7 10 -1 -1</clus>
<clus scale="   27.857">  2  5  1 -1</clus>
</clustering>
</event>
<event>
10    4  0.2866397E-005  0.6394378E+03  0.7546771E-02  0.1050289E+00
         21   -1    0    0  501  502  0.00000000000E+00  0.00000000000E+00  0.25435909801E+03  0.25435909801E+03  0.00000000000E+00 0. -1.
          2   -1    0    0  503    0 -0.00000000000E+00 -0.00000000000E+00 -0.97893524991E+03  0.97893524991E+03  0.00000000000E+00 0. -1.
         24    2    1    2    0    0  0.30264109274E+01  0.84292103137E+01  0.60996544301E+02  0.10158273435E+03  0.80735758812E+02 0.  0.
         23    2    1    2    0    0  0.87368624503E+02  0.42710444197E+02  0.62854110917E+02  0.14823222836E+03  0.92545641030E+02 0.  0.
        -11    1    3    3    0    0 -0.21955482218E+02 -0.26974086545E+02  0.13545107759E+02  0.37324448939E+02  0.00000000000E+00 0.  1.
         12    1    3    3    0    0  0.24981893146E+02  0.35403296858E+02  0.47451436541E+02  0.64258285407E+02  0.00000000000E+00 0. -1.
        -13    1    4    4    0    0  0.55137787038E+02  0.47972479885E+02 -0.46602157985E+01  0.73234226950E+02  0.00000000000E+00 0.  1.
         13    1    4    4    0    0  0.32230837465E+02 -0.52620356871E+01  0.67514326715E+02  0.74998001407E+02  0.00000000000E+00 0. -1.
         21    1    1    2  503  502  0.14942693629E+03 -0.63613821716E+02 -0.85266742314E+02  0.18342721975E+03  0.00000000000E+00 0. -1.
          1    1    1    2  501    0 -0.23982197172E+03  0.12474167205E+02 -0.76316006480E+03  0.80005216547E+03  0.00000000000E+00 0. -1.
<scales pt_clust_5="13000.00000" pt_clust_6="13000.00000" pt_clust_7="13000.00000" pt_clust_8="13000.00000" pt_clust_9="162.33657" pt_clust_10="13000.00000"></scales>
<clustering>
<clus scale="   80.736">  5  6 -1 -1</clus>
<clus scale="   81.231">  2  5  1 -1</clus>
<clus scale="   92.546">  7  8 -1 -1</clus>
<clus scale="  162.337">  1  9  2 -1</clus>
<clus scale="  176.687">  7 10 -1 -1</clus>
<clus scale="  162.337">  1  5  2 -1</clus>
</clustering>
</event>
<event>
10    4  0.2866397E-005  0.4426535E+03  0.7546771E-02  0.1057285E+00
          2   -1    0    0  503    0 -0.00000000000E+00  0.00000000000E+00  0.17448400236E+04  0.17448400236E+04  0.00000000000E+00 0. -1.
         21   -1    0    0  501  502  0.00000000000E+00 -0.00000000000E+00 -0.23846480818E+03  0.23846480818E+03  0.00000000000E+00 0.  1.
         24    2    1    2    0    0  0.12827641991E+03 -0.12790422966E+03  0.96728013028E+03  0.98739439543E+03  0.80638141288E+02 0.  0.
         23    2    1    2    0    0  0.86141473155E+02  0.14793492035E+02  0.65470423573E+02  0.14338839135E+03  0.92922836851E+02 0.  0.
        -11    1    3    3    0    0  0.12854854012E+03 -0.12545007458E+03  0.96822940091E+03  0.98474901430E+03  0.00000000000E+00 0.  1.
         12    1    3    3    0    0 -0.27212021136E+00 -0.24541550856E+01 -0.94927063323E+00  0.26453811311E+01  0.00000000000E+00 0. -1.
        -11    1    4    4    0    0  0.38798602600E+02  0.13620048728E+02 -0.19961325469E+02  0.45708771648E+02  0.00000000000E+00 0.  1.
         11    1    4    4    0    0  0.47342870555E+02  0.11734433076E+01  0.85431749042E+02  0.97679619706E+02  0.00000000000E+00 0. -1.
         21    1    1    2  503  502  0.30636230712E+02  0.79090534023E+00 -0.16054129777E+03  0.16344024123E+03  0.00000000000E+00 0.  1.
          1    1    1    2  501    0 -0.24505412377E+03  0.11231983229E+03  0.63416595932E+03  0.68908180375E+03  0.00000000000E+00 0. -1.
<scales pt_clust_5="13000.00000" pt_clust_6="13000.00000" pt_clust_7="13000.00000" pt_clust_8="13000.00000" pt_clust_9="30.64644" pt_clust_10="13000.00000"></scales>
<clustering>
<clus scale="   30.646">  2  9  1 -1</clus>
<clus scale="   80.638">  5  6 -1 -1</clus>
<clus scale="   92.923">  7  8 -1 -1</clus>
<clus scale="  200.849">  1  5  2 -1</clus>
<clus scale="  124.462">  7 10 -1 -1</clus>
<clus scale="   30.646">  2  5  1 -1</clus>
</clustering>
</event>
<event>
10    4  0.4964945E-005  0.8678210E+03  0.7546771E-02  0.9741613E-01
         21   -1    0    0  503  502  0.00000000000E+00  0.00000000000E+00  0.13214757788E+04  0.13214757788E+04  0.00000000000E+00 0. -1.
          2   -1    0    0  502    0 -0.00000000000E+00 -0.00000000000E+00 -0.89069304410E+03  0.89069304410E+03  0.00000000000E+00 0. -1.
         24    2    1    2    0    0  0.25019448467E+03  0.47016619492E+02  0.93603672518E+03  0.97332624942E+03  0.79946196020E+02 0.  0.
         23    2    1    2    0    0 -0.10032562926E+03 -0.16542412441E+03 -0.77239082982E+03  0.80128500998E+03  0.89664376440E+02 0.  0.
        -13    1    3    3    0    0  0.14780665303E+03 -0.96621447740E+01  0.57637946669E+03  0.59510793419E+03  0.00000000000E+00 0.  1.
         14    1    3    3    0    0  0.10238783164E+03  0.56678764266E+02  0.35965725849E+03  0.37821831522E+03  0.00000000000E+00 0. -1.
        -13    1    4    4    0    0 -0.11460161318E+03 -0.12217668476E+03 -0.62045242077E+03  0.64266778236E+03  0.00000000000E+00 0. -1.
         13    1    4    4    0    0  0.14275983920E+02 -0.43247439648E+02 -0.15193840905E+03  0.15861722762E+03  0.00000000000E+00 0.  1.
         21    1    1    2  503  501  0.80890958431E+02  0.56700926878E+02  0.12600813934E+03  0.16011368912E+03  0.00000000000E+00 0. -1.
          1    1    1    2  501    0 -0.23075981384E+03  0.61706578040E+02  0.14112869998E+03  0.27744387435E+03  0.00000000000E+00 0. -1.
<scales pt_clust_5="13000.00000" pt_clust_6="13000.00000" pt_clust_7="13000.00000" pt_clust_8="13000.00000" pt_clust_9="98.78432" pt_clust_10="13000.00000"></scales>
<clustering>
<clus scale="   79.946">  5  6 -1 -1</clus>
<clus scale="   89.664">  7  8 -1 -1</clus>
<clus scale="   98.784">  1  9  2 -1</clus>
<clus scale="  227.987">  7 10 -1 -1</clus>
<clus scale="  338.697">  2  5  1 -1</clus>
<clus scale="   98.784">  1  5  2 -1</clus>
</clustering>
</event>
<event>
10    4  0.2866397E-005  0.1095348E+04  0.7546771E-02  0.9230693E-01
         21   -1    0    0  501  502  0.00000000000E+00  0.00000000000E+00  0.11746644100E+04  0.11746644100E+04  0.00000000000E+00 0. -1.
          2   -1    0    0  503    0 -0.00000000000E+00 -0.00000000000E+00 -0.26788244056E+04  0.26788244056E+04  0.00000000000E+00 0. -1.
         24    2    1    2    0    0  0.69563527232E+03 -0.89833287990E+03 -0.62335080749E+03  0.12983001698E+04  0.78145419684E+02 0.  0.
         23    2    1    2    0    0  0.34848432872E+03 -0.18062160643E+03 -0.40794183454E+03  0.57301265492E+03  0.88664932495E+02 0.  0.
        -13    1    3    3    0    0  0.73099583679E+02 -0.13726750296E+03 -0.79170255265E+02  0.17451030291E+03  0.00000000000E+00 0.  1.
         14    1    3    3    0    0  0.62253568864E+03 -0.76106537694E+03 -0.54418055223E+03  0.11237898669E+04  0.00000000000E+00 0. -1.
        -13    1    4    4    0    0  0.59075862922E+02 -0.31829218734E+02 -0.12463079200E+03  0.14154819342E+03  0.00000000000E+00 0.  1.
         13    1    4    4    0    0  0.28940846580E+03 -0.14879238769E+03 -0.28331104254E+03  0.43146446150E+03  0.00000000000E+00 0. -1.
         21    1    1    2  503  502 -0.12355325052E+04  0.11099276074E+04 -0.23835590366E+03  0.16778836080E+04  0.00000000000E+00 0. -1.
          1    1    1    2  501    0  0.19141290416E+03 -0.30973121051E+02 -0.23451144990E+03  0.30429238282E+03  0.00000000000E+00 0. -1.
<scales pt_clust_5="13000.00000" pt_clust_6="13000.00000" pt_clust_7="13000.00000" pt_clust_8="13000.00000" pt_clust_9="1043.64305" pt_clust_10="13000.00000"></scales>
<clustering>
<clus scale="   78.145">  5  6 -1 -1</clus>
<clus scale="   88.665">  7  8 -1 -1</clus>
<clus scale="  193.903">  7 10 -1 -1</clus>
<clus scale=" 1138.867">  2  5  1 -1</clus>
<clus scale=" 1043.643">  1  9  2 -1</clus>
<clus scale=" 1043.643">  1  5  2 -1</clus>
</clustering>
</event>
<event>
10    4  0.2866397E-005  0.3145956E+03  0.7546771E-02  0.1086602E+00
          2   -1    0    0  502    0 -0.00000000000E+00  0.00000000000E+00  0.23763347873E+04  0.23763347873E+04  0.00000000000E+00 0. -1.
         21   -1    0    0  503  502  0.00000000000E+00 -0.00000000000E+00 -0.46100235337E+02  0.46100235337E+02  0.00000000000E+00 0.  1.
         24    2    1    2    0    0  0.55667666391E+02 -0.23356067478E+03  0.14577416801E+04  0.14795538233E+04  0.80120110936E+02 0.  0.
         23    2    1    2    0    0  0.10747997903E+02  0.21856009967E+02  0.21150260158E+03  0.23178766496E+03  0.91645875636E+02 0.  0.
        -11    1    3    3    0    0  0.26701432402E+02 -0.19419034459E+03  0.98662673390E+03  0.10059101195E+04  0.00000000000E+00 0.  1.
         12    1    3    3    0    0  0.28966233989E+02 -0.39370330189E+02  0.47111494618E+03  0.47364370378E+03  0.00000000000E+00 0. -1.
        -13    1    4    4    0    0 -0.38787212277E+02  0.55408256327E+01  0.60944634071E+02  0.72452722564E+02  0.00000000000E+00 0. -1.
         13    1    4    4    0    0  0.49535210180E+02  0.16315184335E+02  0.15055796751E+03  0.15933494239E+03  0.00000000000E+00 0.  1.
         21    1    1    2  503  501 -0.22038988531E+02  0.34352794424E+01  0.71071117501E+01  0.23410023446E+02  0.00000000000E+00 0. -1.
          1    1    1    2  501    0 -0.44376675763E+02  0.20826938537E+03  0.65388315856E+03  0.68768351099E+03  0.00000000000E+00 0. -1.
<scales pt_clust_5="13000.00000" pt_clust_6="13000.00000" pt_clust_7="13000.00000" pt_clust_8="13000.00000" pt_clust_9="22.30512" pt_clust_10="13000.00000"></scales>
<clustering>
<clus scale="   22.305">  2  9  1 -1</clus>
<clus scale="   80.120">  5  6 -1 -1</clus>
<clus scale="   91.646">  7  8 -1 -1</clus>
<clus scale="  216.685">  7 10 -1 -1</clus>
<clus scale="  250.885">  1  5  2 -1</clus>
<clus scale="   22.305">  2  5  1 -1</clus>
</clustering>
</event>
<event>
10    4  0.2866397E-005  0.3419488E+03  0.7546771E-02  0.1094328E+00
         -1   -1    0    0    0  501 -0.00000000000E+00  0.00000000000E+00  0.50675485267E+03  0.50675485267E+03  0.00000000000E+00 0.  1.
         21   -1    0    0  503  502  0.00000000000E+00 -0.00000000000E+00 -0.21314047154E+03  0.21314047154E+03  0.00000000000E+00 0. -1.
         24    2    1    2    0    0 -0.59566263148E+02 -0.14416614606E+03  0.33378236328E+01  0.17584003594E+03  0.81095991268E+02 0.  0.
         23    2    1    2    0    0 -0.68464117487E+02  0.43720721263E+02  0.15835061039E+02  0.12706315980E+03  0.96412968887E+02 0.  0.
        -13    1    3    3    0    0 -0.31174650213E+02 -0.80457163110E+01 -0.15121332874E+02  0.35570311705E+02  0.00000000000E+00 0.  1.
         14    1    3    3    0    0 -0.28391612935E+02 -0.13612042975E+03  0.18459156506E+02  0.14026972424E+03  0.00000000000E+00 0. -1.
        -11    1    4    4    0    0  0.59048152353E+01  0.42780700746E+02 -0.16143327248E+02  0.46104904446E+02  0.00000000000E+00 0.  1.
         11    1    4    4    0    0 -0.74368932723E+02  0.94002051705E+00  0.31978388287E+02  0.80958255356E+02  0.00000000000E+00 0. -1.
         21    1    1    2  503  501  0.15179387315E+02  0.30388671228E+02 -0.53386310656E+02  0.63277036148E+02  0.00000000000E+00 0.  1.
         -2    1    1    2    0  502  0.11285099332E+03  0.70056753566E+02  0.32782780712E+03  0.35371509232E+03  0.00000000000E+00 0.  1.
<scales pt_clust_5="13000.00000" pt_clust_6="13000.00000" pt_clust_7="13000.00000" pt_clust_8="13000.00000" pt_clust_9="33.96888" pt_clust_10="13000.00000"></scales>
<clustering>
<clus scale="   33.969">  2  9  1 -1</clus>
<clus scale="   81.096">  5  6 -1 -1</clus>
<clus scale="   96.413">  7  8 -1 -1</clus>
<clus scale="  135.255">  7 10 -1 -1</clus>
<clus scale="  159.303">  1  5  2 -1</clus>
<clus scale="   33.969">  2  5  1 -1</clus>
</clustering>
</event>
<event>
10    4  0.2866397E-005  0.3076987E+03  0.7546771E-02  0.1131984E+00
         21   -1    0    0  503  502  0.00000000000E+00  0.00000000000E+00  0.18555667025E+03  0.18555667025E+03  0.00000000000E+00 0.  1.
          2   -1    0    0  502    0 -0.00000000000E+00 -0.00000000000E+00 -0.62950471024E+03  0.62950471024E+03  0.00000000000E+00 0. -1.
         24    2    1    2    0    0 -0.18395038612E+02  0.15533827835E+02  0.81388981460E+02  0.11712680655E+03  0.80714591349E+02 0.  0.
         23    2    1    2    0    0 -0.24865308020E+02  0.36735330019E+02 -0.13528083190E+02  0.10131872047E+03  0.90081663333E+02 0.  0.
        -11    1    3    3    0    0  0.17196999650E+02  0.33736903143E+02  0.62112247684E+02  0.72745080542E+02  0.00000000000E+00 0.  1.
         12    1    3    3    0    0 -0.35592038262E+02 -0.18203075309E+02  0.19276733776E+02  0.44381726008E+02  0.00000000000E+00 0. -1.
        -11    1    4    4    0    0 -0.40203849425E+01 -0.23524328856E+02  0.18280315937E+02  0.30062060707E+02  0.00000000000E+00 0.  1.
         11    1    4    4    0    0 -0.20844923077E+02  0.60259658876E+02 -0.31808399127E+02  0.71256659765E+02  0.00000000000E+00 0. -1.
         21    1    1    2  503  501  0.12508854231E+03  0.80587755675E+02 -0.21796856257E+03  0.26391632016E+03  0.00000000000E+00 0.  1.
          1    1    1    2  501    0 -0.81828195675E+02 -0.13285691353E+03 -0.29384037569E+03  0.33269953331E+03  0.00000000000E+00 0. -1.
<scales pt_clust_5="13000.00000" pt_clust_6="13000.00000" pt_clust_7="13000.00000" pt_clust_8="13000.00000" pt_clust_9="146.30415" pt_clust_10="13000.00000"></scales>
<clustering>
<clus scale="   80.715">  5  6 -1 -1</clus>
<clus scale="   84.229">  2  5  1 -1</clus>
<clus scale="   90.082">  7  8 -1 -1</clus>
<clus scale="  146.304">  1  9  2 -1</clus>
<clus scale="   87.275">  7 10 -1 -1</clus>
<clus scale="  146.304">  1  5  2 -1</clus>
</clustering>
</event>
<event>
10    4  0.2866397E-005  0.3574382E+03  0.7546771E-02  0.1095081E+00
         21   -1    0    0  503  502  0.00000000000E+00  0.00000000000E+00  0.34615651171E+03  0.34615651171E+03  0.00000000000E+00 0. -1.
          2   -1    0    0  502    0 -0.00000000000E+00 -0.00000000000E+00 -0.30258196900E+03  0.30258196900E+03  0.00000000000E+00 0. -1.
         24    2    1    2    0    0 -0.23085165821E+02 -0.10539188974E+03 -0.67052704967E+02  0.14931738898E+03  0.78480839098E+02 0.  0.
         23    2    1    2    0    0  0.19734643228E+03  0.59384523299E+02 -0.64557886121E+02  0.23578545002E+03  0.94630448801E+02 0.  0.
        -11    1    3    3    0    0 -0.44473746452E+02 -0.34094951017E+02 -0.44443408423E+02  0.71523397295E+02  0.00000000000E+00 0.  1.
         12    1    3    3    0    0  0.21388580631E+02 -0.71296938722E+02 -0.22609296544E+02  0.77793991688E+02  0.00000000000E+00 0. -1.
        -11    1    4    4    0    0  0.70001037498E+02 -0.19198904883E+02  0.56584484547E+00  0.72588314348E+02  0.00000000000E+00 0.  1.
         11    1    4    4    0    0  0.12734539478E+03  0.78583428182E+02 -0.65123730967E+02  0.16319713567E+03  0.00000000000E+00 0. -1.
         21    1    1    2  503  501 -0.69521758186E+02 -0.40049981304E+01  0.11091117328E+03  0.13096031166E+03  0.00000000000E+00 0. -1.
          1    1    1    2  501    0 -0.10473950827E+03  0.50012364570E+02  0.64273960518E+02  0.13267533005E+03  0.00000000000E+00 0. -1.
<scales pt_clust_5="13000.00000" pt_clust_6="13000.00000" pt_clust_7="13000.00000" pt_clust_8="13000.00000" pt_clust_9="69.63702" pt_clust_10="13000.00000"></scales>
<clustering>
<clus scale="   69.637">  1  9  2 -1</clus>
<clus scale="   78.481">  5  6 -1 -1</clus>
<clus scale="   94.630">  7  8 -1 -1</clus>
<clus scale="  136.754">  2  5  1 -1</clus>
<clus scale="  147.304">  7 10 -1 -1</clus>
<clus scale="   69.637">  1  5  2 -1</clus>
</clustering>
</event>
<event>
10    4  0.2866397E-005  0.1412381E+03  0.7546771E-02  0.1234957E+00
          2   -1    0    0  502    0 -0.00000000000E+00  0.00000000000E+00  0.40533249286E+03  0.40533249286E+03  0.00000000000E+00 0. -1.
         21   -1    0    0  503  502  0.00000000000E+00 -0.00000000000E+00 -0.78377805239E+02  0.78377805239E+02  0.00000000000E+00 0. -1.
         24    2    1    2    0    0  0.38838731920E+02  0.28549526269E+02  0.43804567095E+02  0.10336278402E+03  0.80258971306E+02 0.  0.
         23    2    1    2    0    0 -0.11230645217E+02 -0.41446468535E+02  0.17104143688E+03  0.19767104142E+03  0.89301345684E+02 0.  0.
        -13    1    3    3    0    0  0.22214828368E+02 -0.11387875260E+02  0.53493730184E+02  0.59031868269E+02  0.00000000000E+00 0.  1.
         14    1    3    3    0    0  0.16623903552E+02  0.39937401529E+02 -0.96891630884E+01  0.44330915753E+02  0.00000000000E+00 0. -1.
        -11    1    4    4    0    0  0.22543370483E+02 -0.48501404469E+02  0.14468185046E+03  0.15425118359E+03  0.00000000000E+00 0. -1.
         11    1    4    4    0    0 -0.33774015701E+02  0.70549359334E+01  0.26359586425E+02  0.43419857831E+02  0.00000000000E+00 0.  1.
         21    1    1    2  503  501 -0.16929840155E+02 -0.15037582946E+02 -0.29926015330E+02  0.37527520329E+02  0.00000000000E+00 0. -1.
          1    1    1    2  501    0 -0.10678246548E+02  0.27934525213E+02  0.14203469897E+03  0.14514895232E+03  0.00000000000E+00 0. -1.
<scales pt_clust_5="13000.00000" pt_clust_6="13000.00000" pt_clust_7="13000.00000" pt_clust_8="13000.00000" pt_clust_9="22.64395" pt_clust_10="13000.00000"></scales>
<clustering>
<clus scale="   22.644">  2  9  1 -1</clus>
<clus scale="   80.259">  5  6 -1 -1</clus>
<clus scale="   86.853">  1  5  2 -1</clus>
<clus scale="   89.301">  7  8 -1 -1</clus>
<clus scale="   35.169">  7 10 -1 -1</clus>
<clus scale="   22.644">  2  5  1 -1</clus>
</clustering>
</event>
<event>
10    4  0.2866397E-005  0.1650640E+03  0.7546771E-02  0.1209906E+00
         21   -1    0    0  501  502  0.00000000000E+00  0.00000000000E+00  0.16117306101E+03  0.16117306101E+03  0.00000000000E+00 0. -1.
          2   -1    0    0  503    0 -0.00000000000E+00 -0.00000000000E+00 -0.14364685122E+03  0.14364685122E+03  0.00000000000E+00 0. -1.
         24    2    1    2    0    0 -0.28133601267E+02  0.32198393512E+02 -0.49295595791E+02  0.10305613457E+03  0.79763870537E+02 0.  0.
         23    2    1    2    0    0  0.42785762669E+02  0.10408005568E+02  0.57642032355E+02  0.11569474498E+03  0.90131692838E+02 0.  0.
        -13    1    3    3    0    0 -0.28643772220E+02  0.12207086401E+02  0.15829933363E+02  0.34929435090E+02  0.00000000000E+00 0.  1.
         14    1    3    3    0    0  0.51017095317E+00  0.19991307111E+02 -0.65125529154E+02  0.68126699479E+02  0.00000000000E+00 0. -1.
        -13    1    4    4    0    0 -0.20475562637E+02  0.27367817918E+02  0.26069100054E+02  0.42986557207E+02  0.00000000000E+00 0.  1.
         13    1    4    4    0    0  0.63261325306E+02 -0.16959812351E+02  0.31572932301E+02  0.72708187768E+02  0.00000000000E+00 0. -1.
         21    1    1    2  503  502  0.21682733337E+00  0.20580510530E+02  0.38415762940E+01  0.20937099517E+02  0.00000000000E+00 0. -1.
          1    1    1    2  501    0 -0.14868988735E+02 -0.63186909610E+02  0.53381969264E+01  0.65131933170E+02  0.00000000000E+00 0. -1.
<scales pt_clust_5="13000.00000" pt_clust_6="13000.00000" pt_clust_7="13000.00000" pt_clust_8="13000.00000" pt_clust_9="20.58165" pt_clust_10="13000.00000"></scales>
<clustering>
<clus scale="   20.582">  1  9  2 -1</clus>
<clus scale="   79.764">  5  6 -1 -1</clus>
<clus scale="   90.132">  7  8 -1 -1</clus>
<clus scale="   60.166">  7 10 -1 -1</clus>
<clus scale="   91.878">  2  5  1 -1</clus>
<clus scale="   20.582">  1  5  2 -1</clus>
</clustering>
</event>
<event>
10    4  0.2866397E-005  0.3225487E+03  0.7546771E-02  0.1126518E+00
          2   -1    0    0  502    0 -0.00000000000E+00  0.00000000000E+00  0.12417340306E+04  0.12417340306E+04  0.00000000000E+00 0. -1.
         21   -1    0    0  503  502  0.00000000000E+00 -0.00000000000E+00 -0.41930839672E+02  0.41930839672E+02  0.00000000000E+00 0. -1.
         24    2    1    2    0    0 -0.22348688341E+02 -0.11631386386E+02  0.40849001009E+03  0.41710270970E+03  0.80472536201E+02 0.  0.
         23    2    1    2    0    0 -0.87197795373E+02  0.83835073938E+02  0.16134344998E+03  0.22125692083E+03  0.91055702850E+02 0.  0.
        -13    1    3    3    0    0 -0.56910534690E+01  0.33989471963E+02  0.20650069263E+03  0.20935665346E+03  0.00000000000E+00 0.  1.
         14    1    3    3    0    0 -0.16657634872E+02 -0.45620858349E+02  0.20198931746E+03  0.20774605624E+03  0.00000000000E+00 0. -1.
        -13    1    4    4    0    0 -0.63176497891E+02  0.14203827591E+02  0.31576449061E+02  0.72042284384E+02  0.00000000000E+00 0. -1.
         13    1    4    4    0    0 -0.24021297482E+02  0.69631246347E+02  0.12976700092E+03  0.14921463644E+03  0.00000000000E+00 0.  1.
         21    1    1    2  503  501  0.29597823616E+02 -0.78570812897E+01  0.76507275063E+02  0.82408300715E+02  0.00000000000E+00 0.  1.
          1    1    1    2  501    0  0.79948660098E+02 -0.64346606262E+02  0.55346245579E+03  0.56289693902E+03  0.00000000000E+00 0. -1.
<scales pt_clust_5="13000.00000" pt_clust_6="13000.00000" pt_clust_7="13000.00000" pt_clust_8="13000.00000" pt_clust_9="30.62295" pt_clust_10="13000.00000"></scales>
<clustering>
<clus scale="   30.623">  2  9  1 -1</clus>
<clus scale="   80.473">  5  6 -1 -1</clus>
<clus scale="   83.642">  1  5  2 -1</clus>
<clus scale="   91.056">  7  8 -1 -1</clus>
<clus scale="  101.886">  7 10 -1 -1</clus>
<clus scale="   30.623">  2  5  1 -1</clus>
</clustering>
</event>
<event>
10    4  0.2866397E-005  0.2433315E+03  0.7546771E-02  0.1146963E+00
          2   -1    0    0  503    0 -0.00000000000E+00  0.00000000000E+00  0.11748749324E+03  0.11748749324E+03  0.00000000000E+00 0. -1.
         21   -1    0    0  501  502  0.00000000000E+00 -0.00000000000E+00 -0.41984101178E+03  0.41984101178E+03  0.00000000000E+00 0. -1.
         24    2    1    2    0    0  0.11723347621E+02  0.10057880550E+03 -0.10769969195E+03  0.16836086236E+03  0.80576816344E+02 0.  0.
         23    2    1    2    0    0 -0.16591943890E+02 -0.26694779566E+02  0.51275219086E+02  0.10775542109E+03  0.89410171819E+02 0.  0.
        -11    1    3    3    0    0 -0.24029878835E+02  0.59651200200E+02 -0.91148385669E+02  0.11155146334E+03  0.00000000000E+00 0.  1.
         12    1    3    3    0    0  0.35753226456E+02  0.40927605303E+02 -0.16551306282E+02  0.56809399024E+02  0.00000000000E+00 0. -1.
        -11    1    4    4    0    0  0.22556080641E+01 -0.58077590005E+02  0.33070476460E+02  0.66871149548E+02  0.00000000000E+00 0. -1.
         11    1    4    4    0    0 -0.18847551954E+02  0.31382810440E+02  0.18204742627E+02  0.40884271546E+02  0.00000000000E+00 0.  1.
         21    1    1    2  503  502 -0.21315873927E+02 -0.30076798763E+02 -0.11040590058E+03  0.11639778000E+03  0.00000000000E+00 0. -1.
          1    1    1    2  501    0  0.26184470197E+02 -0.43807227174E+02 -0.13552314510E+03  0.14481444158E+03  0.00000000000E+00 0. -1.
<scales pt_clust_5="13000.00000" pt_clust_6="13000.00000" pt_clust_7="13000.00000" pt_clust_8="13000.00000" pt_clust_9="36.86435" pt_clust_10="13000.00000"></scales>
<clustering>
<clus scale="   36.864">  2  9  1 -1</clus>
<clus scale="   80.577">  5  6 -1 -1</clus>
<clus scale="   89.410">  7  8 -1 -1</clus>
<clus scale="   59.865">  7 10 -1 -1</clus>
<clus scale="  118.624">  1  5  2 -1</clus>
<clus scale="   36.864">  2  5  1 -1</clus>
</clustering>
</event>
<event>
10    4  0.2866397E-005  0.4247296E+03  0.7546771E-02  0.1078859E+00
          2   -1    0    0  502    0 -0.00000000000E+00  0.00000000000E+00  0.10380699861E+04  0.10380699861E+04  0.00000000000E+00 0. -1.
         21   -1    0    0  503  502  0.00000000000E+00 -0.00000000000E+00 -0.10090839964E+03  0.10090839964E+03  0.00000000000E+00 0.  1.
         24    2    1    2    0    0  0.58602746619E+02 -0.70785887062E+02  0.57645183841E+02  0.13464871030E+03  0.79764555072E+02 0.  0.
         23    2    1    2    0    0  0.50651152795E+02 -0.12144521464E+03  0.53343978762E+03  0.55715942555E+03  0.92488588651E+02 0.  0.
        -11    1    3    3    0    0  0.71626321777E+02 -0.35193814234E+02  0.22391349461E+02  0.82887315449E+02  0.00000000000E+00 0.  1.
         12    1    3    3    0    0 -0.13023575158E+02 -0.35592072828E+02  0.35253834380E+02  0.51761394847E+02  0.00000000000E+00 0. -1.
        -11    1    4    4    0    0  0.76488149753E+02 -0.10011794404E+03  0.44820575018E+03  0.46557752766E+03  0.00000000000E+00 0. -1.
         11    1    4    4    0    0 -0.25836996958E+02 -0.21327270593E+02  0.85234037440E+02  0.91581897890E+02  0.00000000000E+00 0.  1.
         21    1    1    2  503  501 -0.19530697739E+02 -0.27701373354E+02  0.94671105292E+01  0.35191482231E+02  0.00000000000E+00 0. -1.
          1    1    1    2  501    0 -0.89723201675E+02  0.21993247505E+03  0.33660950452E+03  0.41197876770E+03  0.00000000000E+00 0. -1.
<scales pt_clust_5="13000.00000" pt_clust_6="13000.00000" pt_clust_7="13000.00000" pt_clust_8="13000.00000" pt_clust_9="33.89416" pt_clust_10="13000.00000"></scales>
<clustering>
<clus scale="   33.894">  2  9  1 -1</clus>
<clus scale="   79.765">  5  6 -1 -1</clus>
<clus scale="   92.489">  7  8 -1 -1</clus>
<clus scale="  125.463">  1  5  2 -1</clus>
<clus scale="  192.664">  7 10 -1 -1</clus>
<clus scale="   33.894">  2  5  1 -1</clus>
</clustering>
</event>
<event>
10    4  0.2866397E-005  0.4391908E+03  0.7546771E-02  0.1059133E+00
          2   -1    0    0  502    0 -0.00000000000E+00  0.00000000000E+00  0.76688210795E+03  0.76688210795E+03  0.00000000000E+00 0. -1.
         21   -1    0    0  503  502  0.00000000000E+00 -0.00000000000E+00 -0.93456161969E+03  0.93456161969E+03  0.00000000000E+00 0. -1.
         24    2    1    2    0    0 -0.27569342038E+03  0.63953010257E+02  0.77825513714E+01  0.29435600941E+03  0.80548386767E+02 0.  0.
         23    2    1    2    0    0  0.24188828472E+02 -0.17076678833E+03  0.24488143353E+03  0.31353072231E+03  0.92672552161E+02 0.  0.
        -11    1    3    3    0    0 -0.56285375108E+02  0.25813496055E+01  0.32735685077E+02  0.65163884893E+02  0.00000000000E+00 0.  1.
         12    1    3    3    0    0 -0.21940804527E+03  0.61371660651E+02 -0.24953133705E+02  0.22919212452E+03  0.00000000000E+00 0. -1.
        -11    1    4    4    0    0  0.10162646998E+01 -0.45523754346E+02  0.10427941633E+02  0.46713884129E+02  0.00000000000E+00 0.  1.
         11    1    4    4    0    0  0.23172563772E+02 -0.12524303398E+03  0.23445349190E+03  0.26681683818E+03  0.00000000000E+00 0. -1.
         21    1    1    2  503  501  0.14821668053E+03 -0.94947439094E+02 -0.70673360197E+03  0.72832381860E+03  0.00000000000E+00 0. -1.
          1    1    1    2  501    0  0.10328791137E+03  0.20176121717E+03  0.28639010533E+03  0.36523317733E+03  0.00000000000E+00 0. -1.
<scales pt_clust_5="13000.00000" pt_clust_6="13000.00000" pt_clust_7="13000.00000" pt_clust_8="13000.00000" pt_clust_9="176.02045" pt_clust_10="13000.00000"></scales>
<clustering>
<clus scale="   80.548">  5  6 -1 -1</clus>
<clus scale="   92.673">  7  8 -1 -1</clus>
<clus scale="  176.020">  2  9  1 -1</clus>
<clus scale="  195.235">  1  5  2 -1</clus>
<clus scale="  189.932">  7 10 -1 -1</clus>
<clus scale="  176.020">  2  5  1 -1</clus>
</clustering>
</event>
<event>
10    4  0.3472514E-005  0.4276529E+03  0.7546771E-02  0.1062971E+00
         21   -1    0    0  503  502  0.00000000000E+00  0.00000000000E+00  0.34736860825E+03  0.34736860825E+03  0.00000000000E+00 0. -1.
          2   -1    0    0  502    0 -0.00000000000E+00 -0.00000000000E+00 -0.17097440684E+04  0.17097440684E+04  0.00000000000E+00 0. -1.
         24    2    1    2    0    0  0.35758779839E+02  0.21518767500E+03 -0.63505381617E+03  0.67625638807E+03  0.80280303735E+02 0.  0.
         23    2    1    2    0    0  0.39976678214E+02  0.12704027709E+03 -0.26297203568E+03  0.30857297773E+03  0.91244858647E+02 0.  0.
        -11    1    3    3    0    0  0.28892887194E+02  0.16574346269E+02 -0.10588673528E+03  0.11100229093E+03  0.00000000000E+00 0.  1.
         12    1    3    3    0    0  0.68658926450E+01  0.19861332873E+03 -0.52916708089E+03  0.56525409714E+03  0.00000000000E+00 0. -1.
        -13    1    4    4    0    0 -0.29617712937E+02  0.31790596136E+02 -0.73231528927E+02  0.85151087787E+02  0.00000000000E+00 0.  1.
         13    1    4    4    0    0  0.69594391151E+02  0.95249680959E+02 -0.18974050675E+03  0.22342188994E+03  0.00000000000E+00 0. -1.
         21    1    1    2  503  501 -0.22664843995E+02 -0.13023663918E+03  0.27295107830E+03  0.30327803825E+03  0.00000000000E+00 0. -1.
          1    1    1    2  501    0 -0.53070614058E+02 -0.21199131291E+03 -0.73730068662E+03  0.76900527262E+03  0.00000000000E+00 0. -1.
<scales pt_clust_5="13000.00000" pt_clust_6="13000.00000" pt_clust_7="13000.00000" pt_clust_8="13000.00000" pt_clust_9="132.19409" pt_clust_10="13000.00000"></scales>
<clustering>
<clus scale="   80.280">  5  6 -1 -1</clus>
<clus scale="   91.245">  7  8 -1 -1</clus>
<clus scale="  132.194">  1  9  2 -1</clus>
<clus scale="  189.976">  2  5  1 -1</clus>
<clus scale="  112.002">  7 10 -1 -1</clus>
<clus scale="  132.194">  1  5  2 -1</clus>
</clustering>
</event>
<event>
10    4  0.2866397E-005  0.1948992E+03  0.7546771E-02  0.1190014E+00
         21   -1    0    0  501  502  0.00000000000E+00  0.00000000000E+00  0.12211428030E+03  0.12211428030E+03  0.00000000000E+00 0. -1.
         -1   -1    0    0    0  501 -0.00000000000E+00 -0.00000000000E+00 -0.20510835653E+03  0.20510835653E+03  0.00000000000E+00 0.  1.
         24    2    1    2    0    0  0.21395744559E+02 -0.11917313218E+02 -0.20652805930E+02  0.86839660922E+02  0.80714237138E+02 0.  0.
         23    2    1    2    0    0 -0.75278583431E+02  0.47094007320E+02 -0.83309277286E+01  0.12686905317E+03  0.90231045918E+02 0.  0.
        -11    1    3    3    0    0  0.45831425590E+02  0.11094238077E+02  0.51344120610E+00  0.47157876457E+02  0.00000000000E+00 0.  1.
         12    1    3    3    0    0 -0.24435681031E+02 -0.23011551295E+02 -0.21166247136E+02  0.39681784464E+02  0.00000000000E+00 0. -1.
        -11    1    4    4    0    0 -0.21260799603E+02  0.53057542083E+02  0.25781439480E+02  0.62704122618E+02  0.00000000000E+00 0. -1.
         11    1    4    4    0    0 -0.54017783829E+02 -0.59635347636E+01 -0.34112367209E+02  0.64164930556E+02  0.00000000000E+00 0.  1.
         21    1    1    2  503  502 -0.39224710760E+01 -0.30904558947E+02  0.41196737870E+01  0.31423705306E+02  0.00000000000E+00 0.  1.
         -2    1    1    2    0  503  0.57805309948E+02 -0.42721351551E+01 -0.58130016357E+02  0.82090217436E+02  0.00000000000E+00 0.  1.
<scales pt_clust_5="13000.00000" pt_clust_6="13000.00000" pt_clust_7="13000.00000" pt_clust_8="13000.00000" pt_clust_9="31.15249" pt_clust_10="13000.00000"></scales>
<clustering>
<clus scale="   31.152">  1  9  2 -1</clus>
<clus scale="   80.714">  5  6 -1 -1</clus>
<clus scale="   85.980">  2  5  1 -1</clus>
<clus scale="   90.231">  7  8 -1 -1</clus>
<clus scale="   70.076">  7 10 -1 -1</clus>
<clus scale="   31.152">  1  5  2 -1</clus>
</clustering>
</event>
<event>
10    4  0.2866397E-005  0.3282718E+03  0.7546771E-02  0.1120243E+00
          2   -1    0    0  502    0 -0.00000000000E+00  0.00000000000E+00  0.34540875985E+03  0.34540875985E+03  0.00000000000E+00 0. -1.
         21   -1    0    0  503  502  0.00000000000E+00 -0.00000000000E+00 -0.14813505998E+03  0.14813505998E+03  0.00000000000E+00 0. -1.
         24    2    1    2    0    0  0.27116144921E+02  0.36187214669E+02  0.31247267490E+02  0.98419564003E+02  0.81640792696E+02 0.  0.
         23    2    1    2    0    0  0.86577223961E+02 -0.89326112779E+02 -0.20540302167E+02  0.15534540500E+03  0.90749769746E+02 0.  0.
        -13    1    3    3    0    0  0.41817986745E+02  0.19526100524E+02  0.50933544079E+02  0.68733096319E+02  0.00000000000E+00 0.  1.
         14    1    3    3    0    0 -0.14701841825E+02  0.16661114145E+02 -0.19686276590E+02  0.29686467684E+02  0.00000000000E+00 0. -1.
        -11    1    4    4    0    0 -0.15480325746E+02 -0.34302811137E+02 -0.98907005932E+01  0.38912071332E+02  0.00000000000E+00 0.  1.
         11    1    4    4    0    0  0.10205754971E+03 -0.55023301641E+02 -0.10649601574E+02  0.11643333367E+03  0.00000000000E+00 0. -1.
         21    1    1    2  503  501 -0.23851984296E+02  0.95407746535E+01 -0.26516894098E+01  0.25825858990E+02  0.00000000000E+00 0. -1.
          1    1    1    2  501    0 -0.89841384586E+02  0.43598123456E+02  0.18921842396E+03  0.21395299184E+03  0.00000000000E+00 0. -1.
<scales pt_clust_5="13000.00000" pt_clust_6="13000.00000" pt_clust_7="13000.00000" pt_clust_8="13000.00000" pt_clust_9="25.68937" pt_clust_10="13000.00000"></scales>
<clustering>
<clus scale="   25.689">  2  9  1 -1</clus>
<clus scale="   81.641">  5  6 -1 -1</clus>
<clus scale="   90.750">  7  8 -1 -1</clus>
<clus scale="   92.738">  1  5  2 -1</clus>
<clus scale="  105.977">  7 10 -1 -1</clus>
<clus scale="   25.689">  2  5  1 -1</clus>
</clustering>
</event>
<event>
10    4  0.2866397E-005  0.5624994E+03  0.7546771E-02  0.1049783E+00
          2   -1    0    0  503    0 -0.00000000000E+00  0.00000000000E+00  0.84714273388E+03  0.84714273388E+03  0.00000000000E+00 0. -1.
         21   -1    0    0  501  502  0.00000000000E+00 -0.00000000000E+00 -0.33253222895E+03  0.33253222895E+03  0.00000000000E+00 0. -1.
         24    2    1    2    0    0  0.73150925711E+02 -0.37395019809E+02  0.89134361155E+02  0.14666719267E+03  0.82564433190E+02 0.  0.
         23    2    1    2    0    0  0.19074003654E+03 -0.88986574729E+02  0.34702431209E+03  0.41600625392E+03  0.91295991654E+02 0.  0.
        -11    1    3    3    0    0  0.52170296163E+02 -0.63588315824E+02  0.55990465282E+02  0.99499476951E+02  0.00000000000E+00 0.  1.
         12    1    3    3    0    0  0.20980629548E+02  0.26193296015E+02  0.33143895873E+02  0.47167715717E+02  0.00000000000E+00 0. -1.
        -13    1    4    4    0    0  0.47312040619E+02 -0.67856124404E+02  0.15129480505E+03  0.17243259797E+03  0.00000000000E+00 0.  1.
         13    1    4    4    0    0  0.14342799592E+03 -0.21130450324E+02  0.19572950704E+03  0.24357365595E+03  0.00000000000E+00 0. -1.
         21    1    1    2  503  502  0.40157804265E+02  0.12755516675E+02 -0.19072456722E+03  0.19532335495E+03  0.00000000000E+00 0. -1.
          1    1    1    2  501    0 -0.30404876651E+03  0.11362607786E+03  0.26917639889E+03  0.42167816129E+03  0.00000000000E+00 0. -1.
<scales pt_clust_5="13000.00000" pt_clust_6="13000.00000" pt_clust_7="13000.00000" pt_clust_8="13000.00000" pt_clust_9="42.13493" pt_clust_10="13000.00000"></scales>
<clustering>
<clus scale="   42.135">  2  9  1 -1</clus>
<clus scale="   82.564">  5  6 -1 -1</clus>
<clus scale="   91.296">  7  8 -1 -1</clus>
<clus scale="  121.064">  1  5  2 -1</clus>
<clus scale="  268.486">  7 10 -1 -1</clus>
<clus scale="   42.135">  2  5  1 -1</clus>
</clustering>
</event>
<event>
10    4  0.2866397E-005  0.6971563E+03  0.7546771E-02  0.9945801E-01
          2   -1    0    0  503    0 -0.00000000000E+00  0.00000000000E+00  0.14165273562E+04  0.14165273562E+04  0.00000000000E+00 0. -1.
         21   -1    0    0  501  502  0.00000000000E+00 -0.00000000000E+00 -0.46907132643E+03  0.46907132643E+03  0.00000000000E+00 0. -1.
         24    2    1    2    0    0  0.28605845748E+03  0.12954317542E+03  0.35039158264E+03  0.47755363509E+03  0.81684379240E+02 0.  0.
         23    2    1    2    0    0 -0.60326592289E+02  0.17119362527E+03  0.78697091984E+02  0.21770094223E+03  0.90851047838E+02 0.  0.
        -13    1    3    3    0    0  0.25306328149E+03  0.89579851354E+02  0.26213948823E+03  0.37521018842E+03  0.00000000000E+00 0.  1.
         14    1    3    3    0    0  0.32995175998E+02  0.39963324063E+02  0.88252094412E+02  0.10234344668E+03  0.00000000000E+00 0. -1.
        -13    1    4    4    0    0 -0.78800935827E+02  0.98628149385E+02  0.63424650853E+02  0.14127910558E+03  0.00000000000E+00 0.  1.
         13    1    4    4    0    0  0.18474343537E+02  0.72565475881E+02  0.15272441132E+02  0.76421836650E+02  0.00000000000E+00 0. -1.
         21    1    1    2  503  502  0.22847594627E+01  0.76180656786E+02 -0.27364748397E+03  0.28406277137E+03  0.00000000000E+00 0. -1.
          1    1    1    2  501    0 -0.22801662466E+03 -0.37691745747E+03  0.79201483916E+03  0.90628133397E+03  0.00000000000E+00 0. -1.
<scales pt_clust_5="13000.00000" pt_clust_6="13000.00000" pt_clust_7="13000.00000" pt_clust_8="13000.00000" pt_clust_9="76.21491" pt_clust_10="13000.00000"></scales>
<clustering>
<clus scale="   76.215">  2  9  1 -1</clus>
<clus scale="   81.684">  5  6 -1 -1</clus>
<clus scale="   90.851">  7  8 -1 -1</clus>
<clus scale="  336.105">  1  5  2 -1</clus>
<clus scale="  229.601">  7 10 -1 -1</clus>
<clus scale="   76.215">  2  5  1 -1</clus>
</clustering>
</event>
<event>
10    4  0.2866397E-005  0.8997363E+03  0.7546771E-02  0.9803291E-01
         -1   -1    0    0    0  501 -0.00000000000E+00  0.00000000000E+00  0.28061322115E+03  0.28061322115E+03  0.00000000000E+00 0.  1.
         21   -1    0    0  501  502  0.00000000000E+00 -0.00000000000E+00 -0.12918354955E+04  0.12918354955E+04  0.00000000000E+00 0. -1.
         24    2    1    2    0    0  0.17634341735E+03  0.16373052107E+03 -0.16302761300E+03  0.30102948733E+03  0.78333040730E+02 0.  0.
         23    2    1    2    0    0  0.21987446826E+03  0.23207277200E+03 -0.15021040317E+03  0.36486069081E+03  0.91419938633E+02 0.  0.
        -13    1    3    3    0    0  0.47806878441E+02  0.42137069836E+01 -0.26201010030E+02  0.54678568739E+02  0.00000000000E+00 0.  1.
         14    1    3    3    0    0  0.12853653891E+03  0.15951681408E+03 -0.13682660297E+03  0.24635091859E+03  0.00000000000E+00 0. -1.
        -13    1    4    4    0    0  0.90803886512E+02  0.65296478616E+02 -0.95306765290E+02  0.14694337493E+03  0.00000000000E+00 0.  1.
         13    1    4    4    0    0  0.12907058175E+03  0.16677629338E+03 -0.54903637881E+02  0.21791731588E+03  0.00000000000E+00 0. -1.
         21    1    1    2  503  502 -0.33178655692E+02 -0.54196385120E+01 -0.99730582781E+02  0.10524440516E+03  0.00000000000E+00 0. -1.
         -2    1    1    2    0  503 -0.36303922992E+03 -0.39038365455E+03 -0.59825367544E+03  0.80131413339E+03  0.00000000000E+00 0.  1.
<scales pt_clust_5="13000.00000" pt_clust_6="13000.00000" pt_clust_7="13000.00000" pt_clust_8="13000.00000" pt_clust_9="33.61838" pt_clust_10="13000.00000"></scales>
<clustering>
<clus scale="   33.618">  2  9  1 -1</clus>
<clus scale="   78.333">  5  6 -1 -1</clus>
<clus scale="   91.420">  7  8 -1 -1</clus>
<clus scale="  247.901">  1  5  2 -1</clus>
<clus scale="  429.291">  7 10 -1 -1</clus>
<clus scale="   33.618">  2  5  1 -1</clus>
</clustering>
</event>
<event>
10    4  0.2866397E-005  0.1744153E+03  0.7546771E-02  0.1183517E+00
          2   -1    0    0  503    0 -0.00000000000E+00  0.00000000000E+00  0.23865181916E+03  0.23865181916E+03  0.00000000000E+00 0. -1.
         21   -1    0    0  501  502  0.00000000000E+00 -0.00000000000E+00 -0.24278025958E+03  0.24278025958E+03  0.00000000000E+00 0. -1.
         24    2    1    2    0    0 -0.35835469351E+01 -0.10595867608E+03  0.58541769755E+02  0.14464741498E+03  0.79092686185E+02 0.  0.
         23    2    1    2    0    0  0.26057326535E+02  0.81983596937E+02  0.64252164760E+02  0.14251085977E+03  0.93705442975E+02 0.  0.
        -13    1    3    3    0    0 -0.12696691495E+02 -0.20657615580E+02 -0.17585801436E+02  0.29953354879E+02  0.00000000000E+00 0.  1.
         14    1    3    3    0    0  0.91131445599E+01 -0.85301060504E+02  0.76127571191E+02  0.11469406010E+03  0.00000000000E+00 0. -1.
        -13    1    4    4    0    0  0.30116269560E+01  0.47083673082E+02 -0.17791066672E+02  0.50422854156E+02  0.00000000000E+00 0. -1.
         13    1    4    4    0    0  0.23045699579E+02  0.34899923854E+02  0.82043231433E+02  0.92088005614E+02  0.00000000000E+00 0.  1.
         21    1    1    2  503  502  0.91213769737E+01 -0.18941544687E+02 -0.13820935116E+03  0.13979916445E+03  0.00000000000E+00 0. -1.
          1    1    1    2  501    0 -0.31595156573E+02  0.42916623835E+02  0.11286976226E+02  0.54474639537E+02  0.00000000000E+00 0. -1.
<scales pt_clust_5="13000.00000" pt_clust_6="13000.00000" pt_clust_7="13000.00000" pt_clust_8="13000.00000" pt_clust_9="21.02336" pt_clust_10="13000.00000"></scales>
<clustering>
<clus scale="   21.023">  2  9  1 -1</clus>
<clus scale="   79.093">  5  6 -1 -1</clus>
<clus scale="   93.705">  7  8 -1 -1</clus>
<clus scale="   49.000">  7 10 -1 -1</clus>
<clus scale="  138.600">  1  5  2 -1</clus>
<clus scale="   21.023">  2  5  1 -1</clus>
</clustering>
</event>
<event>
10    4  0.2866397E-005  0.4039571E+03  0.7546771E-02  0.1086876E+00
         21   -1    0    0  503  502  0.00000000000E+00  0.00000000000E+00  0.50324819351E+03  0.50324819351E+03  0.00000000000E+00 0. -1.
          2   -1    0    0  502    0 -0.00000000000E+00 -0.00000000000E+00 -0.30604999936E+03  0.30604999936E+03  0.00000000000E+00 0. -1.
         24    2    1    2    0    0 -0.76655048651E+01  0.85139358822E+02 -0.16716843089E+03  0.20462236540E+03  0.81348372761E+02 0.  0.
         23    2    1    2    0    0  0.15193803707E+03 -0.39925636866E+02 -0.21664036814E+02  0.18384595556E+03  0.93009576369E+02 0.  0.
        -11    1    3    3    0    0 -0.29525247542E+02  0.61151574346E+00 -0.30563970240E+02  0.42500240832E+02  0.00000000000E+00 0.  1.
         12    1    3    3    0    0  0.21859742677E+02  0.84527843078E+02 -0.13660446065E+03  0.16212212457E+03  0.00000000000E+00 0. -1.
        -11    1    4    4    0    0  0.44562290213E+02 -0.37792939812E+02 -0.45233699640E+02  0.73893109231E+02  0.00000000000E+00 0.  1.
         11    1    4    4    0    0  0.10737574686E+03 -0.21326970541E+01  0.23569662827E+02  0.10995284633E+03  0.00000000000E+00 0. -1.
         21    1    1    2  503  501 -0.17614751118E+02 -0.11307432827E+02  0.14446837436E+03  0.14597687722E+03  0.00000000000E+00 0. -1.
          1    1    1    2  501    0 -0.12665778109E+03 -0.33906289129E+02  0.24156228749E+03  0.27485299469E+03  0.00000000000E+00 0. -1.
<scales pt_clust_5="13000.00000" pt_clust_6="13000.00000" pt_clust_7="13000.00000" pt_clust_8="13000.00000" pt_clust_9="20.93173" pt_clust_10="13000.00000"></scales>
<clustering>
<clus scale="   20.932">  1  9  2 -1</clus>
<clus scale="   81.348">  5  6 -1 -1</clus>
<clus scale="   93.010">  7  8 -1 -1</clus>
<clus scale="  117.642">  2  5  1 -1</clus>
<clus scale="  143.475">  7 10 -1 -1</clus>
<clus scale="   20.932">  1  5  2 -1</clus>
</clustering>
</event>
<event>
10    4  0.2866397E-005  0.3431228E+03  0.7546771E-02  0.1092988E+00
         21   -1    0    0  501  502  0.00000000000E+00  0.00000000000E+00  0.11226998527E+03  0.11226998527E+03  0.00000000000E+00 0. -1.
          2   -1    0    0  503    0 -0.00000000000E+00 -0.00000000000E+00 -0.11816994510E+04  0.11816994510E+04  0.00000000000E+00 0. -1.
         24    2    1    2    0    0 -0.14095367202E+03 -0.29516773330E+01 -0.39967441189E+03  0.43175591491E+03  0.82443219731E+02 0.  0.
         23    2    1    2    0    0 -0.23192437933E+02  0.45983633205E+02  0.11379782800E+01  0.10265002476E+03  0.88788224942E+02 0.  0.
        -11    1    3    3    0    0 -0.51847515803E+02  0.36689119939E+01 -0.54942968118E+02  0.75633032174E+02  0.00000000000E+00 0.  1.
         12    1    3    3    0    0 -0.89106156221E+02 -0.66205893269E+01 -0.34473144378E+03  0.35612288273E+03  0.00000000000E+00 0. -1.
        -11    1    4    4    0    0 -0.44592944222E+02  0.47568521844E+01  0.24015632734E+02  0.50871494304E+02  0.00000000000E+00 0. -1.
         11    1    4    4    0    0  0.21400506288E+02  0.41226781021E+02 -0.22877654454E+02  0.51778530455E+02  0.00000000000E+00 0.  1.
         21    1    1    2  503  502  0.18998424947E+03 -0.11581549985E+03 -0.26332602664E+03  0.34474315274E+03  0.00000000000E+00 0. -1.
          1    1    1    2  501    0 -0.25838139515E+02  0.72783543977E+02 -0.40756700553E+03  0.41482034391E+03  0.00000000000E+00 0. -1.
<scales pt_clust_5="13000.00000" pt_clust_6="13000.00000" pt_clust_7="13000.00000" pt_clust_8="13000.00000" pt_clust_9="177.90980" pt_clust_10="13000.00000"></scales>
<clustering>
<clus scale="   82.443">  5  6 -1 -1</clus>
<clus scale="   88.788">  7  8 -1 -1</clus>
<clus scale="   77.234">  7 10 -1 -1</clus>
<clus scale="  163.320">  2  5  1 -1</clus>
<clus scale="  177.910">  1  9  2 -1</clus>
<clus scale="  177.910">  1  5  2 -1</clus>
</clustering>
</event>
<event>
10    4  0.2866397E-005  0.4281828E+03  0.7546771E-02  0.1039343E+00
         21   -1    0    0  501  502  0.00000000000E+00  0.00000000000E+00  0.29105150774E+03  0.29105150774E+03  0.00000000000E+00 0. -1.
          4   -1    0    0  503    0 -0.00000000000E+00 -0.00000000000E+00 -0.64099251376E+03  0.64099251376E+03  0.00000000000E+00 0. -1.
         24    2    1    2    0    0  0.28033497111E+03 -0.20587396523E+03 -0.22834317279E+03  0.42320605934E+03  0.77401411607E+02 0.  0.
         23    2    1    2    0    0 -0.89625430733E+02  0.29440129038E+02 -0.98400400148E+02  0.16529072721E+03  0.93482333742E+02 0.  0.
        -11    1    3    3    0    0  0.62603090098E+02 -0.52591408459E+02 -0.17624030612E+02  0.83639760811E+02  0.00000000000E+00 0.  1.
         12    1    3    3    0    0  0.21773188101E+03 -0.15328255677E+03 -0.21071914217E+03  0.33956629853E+03  0.00000000000E+00 0. -1.
        -11    1    4    4    0    0  0.43355986761E+01  0.33665139413E+02 -0.80831133995E+01  0.34892345146E+02  0.00000000000E+00 0.  1.
         11    1    4    4    0    0 -0.93961029409E+02 -0.42250103745E+01 -0.90317286748E+02  0.13039838207E+03  0.00000000000E+00 0. -1.
         21    1    1    2  503  502  0.38737220411E+02 -0.17336830384E+02 -0.32622515767E+01  0.42565011668E+02  0.00000000000E+00 0.  1.
          3    1    1    2  501    0 -0.22944676079E+03  0.19377066658E+03 -0.19935181510E+02  0.30098222327E+03  0.00000000000E+00 0. -1.
<scales pt_clust_5="13000.00000" pt_clust_6="13000.00000" pt_clust_7="13000.00000" pt_clust_8="13000.00000" pt_clust_9="42.43982" pt_clust_10="13000.00000"></scales>
<clustering>
<clus scale="   42.440">  1  9  2 -1</clus>
<clus scale="   77.401">  5  6 -1 -1</clus>
<clus scale="   93.482">  7  8 -1 -1</clus>
<clus scale="  279.272">  7 10 -1 -1</clus>
<clus scale="  370.883">  2  5  1 -1</clus>
<clus scale="   42.440">  1  5  2 -1</clus>
</clustering>
</event>
<event>
10    4  0.2866397E-005  0.2901748E+03  0.7546771E-02  0.1111519E+00
         -1   -1    0    0    0  501 -0.00000000000E+00  0.00000000000E+00  0.31413973131E+03  0.31413973131E+03  0.00000000000E+00 0.  1.
         21   -1    0    0  503  502  0.00000000000E+00 -0.00000000000E+00 -0.24243767573E+03  0.24243767573E+03  0.00000000000E+00 0.  1.
         24    2    1    2    0    0 -0.12013577928E+03 -0.41720687569E+02 -0.47457184585E+02  0.16061966593E+03  0.85867755774E+02 0.  0.
         23    2    1    2    0    0  0.10272773802E+03 -0.73489971350E+02 -0.59761729875E+01  0.15582336531E+03  0.91057358221E+02 0.  0.
        -13    1    3    3    0    0 -0.87726226114E+02 -0.42852492212E+02  0.63023521237E+01  0.97836324948E+02  0.00000000000E+00 0.  1.
         14    1    3    3    0    0 -0.32409553162E+02  0.11318046427E+01 -0.53759536709E+02  0.62783340984E+02  0.00000000000E+00 0. -1.
        -13    1    4    4    0    0  0.11137054864E+03 -0.52392836686E+02 -0.25633943600E+02  0.12571995667E+03  0.00000000000E+00 0.  1.
         13    1    4    4    0    0 -0.86428106223E+01 -0.21097134664E+02  0.19657770612E+02  0.30103408643E+02  0.00000000000E+00 0. -1.
         21    1    1    2  503  501 -0.42093875986E+02  0.41726686147E+02 -0.23675934062E+02  0.63824451318E+02  0.00000000000E+00 0.  1.
         -2    1    1    2    0  502  0.59501917247E+02  0.73483972771E+02  0.14881134721E+03  0.17630992448E+03  0.00000000000E+00 0.  1.
<scales pt_clust_5="13000.00000" pt_clust_6="13000.00000" pt_clust_7="13000.00000" pt_clust_8="13000.00000" pt_clust_9="59.27066" pt_clust_10="13000.00000"></scales>
<clustering>
<clus scale="   59.271">  2  9  1 -1</clus>
<clus scale="   85.868">  5  6 -1 -1</clus>
<clus scale="   91.057">  7  8 -1 -1</clus>
<clus scale="   95.052">  7 10 -1 -1</clus>
<clus scale="  167.280">  1  5  2 -1</clus>
<clus scale="   59.271">  2  5  1 -1</clus>
</clustering>
</event>
<event>
10    4  0.2866397E-005  0.4642778E+03  0.7546771E-02  0.1079202E+00
          2   -1    0    0  503    0 -0.00000000000E+00  0.00000000000E+00  0.25140469908E+03  0.25140469908E+03  0.00000000000E+00 0. -1.
         21   -1    0    0  501  502  0.00000000000E+00 -0.00000000000E+00 -0.73867918347E+03  0.73867918347E+03  0.00000000000E+00 0. -1.
         24    2    1    2    0    0 -0.22385456648E+02  0.46051430747E+02  0.46236872014E+02  0.10542758948E+03  0.79720043567E+02 0.  0.
         23    2    1    2    0    0 -0.17511184497E+03 -0.90273413345E+02  0.67734644611E+02  0.22762839026E+03  0.91723794980E+02 0.  0.
        -11    1    3    3    0    0 -0.15642388905E+02  0.52623562713E+02  0.64608711469E+02  0.84783307797E+02  0.00000000000E+00 0.  1.
         12    1    3    3    0    0 -0.67430677432E+01 -0.65721319659E+01 -0.18371839455E+02  0.20644281681E+02  0.00000000000E+00 0. -1.
        -11    1    4    4    0    0 -0.15168795805E+03 -0.66383827783E+02  0.16447129881E+02  0.16639278016E+03  0.00000000000E+00 0. -1.
         11    1    4    4    0    0 -0.23423886919E+02 -0.23889585562E+02  0.51287514730E+02  0.61235610097E+02  0.00000000000E+00 0.  1.
         21    1    1    2  503  502  0.41318849716E+02  0.27858412094E+02 -0.39332673303E+03  0.39647100447E+03  0.00000000000E+00 0. -1.
          1    1    1    2  501    0  0.15617845190E+03  0.16363570504E+02 -0.20791926798E+03  0.26055689835E+03  0.00000000000E+00 0. -1.
<scales pt_clust_5="13000.00000" pt_clust_6="13000.00000" pt_clust_7="13000.00000" pt_clust_8="13000.00000" pt_clust_9="49.83311" pt_clust_10="13000.00000"></scales>
<clustering>
<clus scale="   49.833">  2  9  1 -1</clus>
<clus scale="   79.720">  5  6 -1 -1</clus>
<clus scale="   91.724">  7  8 -1 -1</clus>
<clus scale="   95.169">  1  5  2 -1</clus>
<clus scale="  185.918">  7 10 -1 -1</clus>
<clus scale="   49.833">  2  5  1 -1</clus>
</clustering>
</event>
<event>
10    4  0.2866397E-005  0.3361310E+03  0.7546771E-02  0.1120926E+00
          2   -1    0    0  503    0 -0.00000000000E+00  0.00000000000E+00  0.12424057058E+04  0.12424057058E+04  0.00000000000E+00 0. -1.
         21   -1    0    0  501  502  0.00000000000E+00 -0.00000000000E+00 -0.50893770660E+02  0.50893770660E+02  0.00000000000E+00 0.  1.
         24    2    1    2    0    0 -0.29478155797E+01 -0.45281184317E+01  0.12735541277E+03  0.15131414931E+03  0.81531448805E+02 0.  0.
         23    2    1    2    0    0 -0.14884052784E+03  0.77898435812E+01  0.38607638535E+03  0.41950955881E+03  0.68695780178E+02 0.  0.
        -13    1    3    3    0    0 -0.16294579895E+02 -0.25210477727E+02  0.12262895428E+03  0.12624952257E+03  0.00000000000E+00 0.  1.
         14    1    3    3    0    0  0.13346764316E+02  0.20682359295E+02  0.47264584980E+01  0.25064626741E+02  0.00000000000E+00 0. -1.
        -11    1    4    4    0    0 -0.72356362415E+02  0.40392547202E+01  0.10088017374E+03  0.12421178774E+03  0.00000000000E+00 0.  1.
         11    1    4    4    0    0 -0.76484165422E+02  0.37505888610E+01  0.28519621162E+03  0.29529777107E+03  0.00000000000E+00 0. -1.
         21    1    1    2  503  502 -0.14912593490E+02 -0.68497216153E+02  0.20547009621E+03  0.21709954975E+03  0.00000000000E+00 0. -1.
          1    1    1    2  501    0  0.16670093691E+03  0.65235491004E+02  0.47261004077E+03  0.50537621856E+03  0.00000000000E+00 0. -1.
<scales pt_clust_5="13000.00000" pt_clust_6="13000.00000" pt_clust_7="13000.00000" pt_clust_8="13000.00000" pt_clust_9="70.10178" pt_clust_10="13000.00000"></scales>
<clustering>
<clus scale="   68.696">  7  8 -1 -1</clus>
<clus scale="   70.102">  2  9  1 -1</clus>
<clus scale="   81.531">  5  6 -1 -1</clus>
<clus scale="   84.922">  1  5  2 -1</clus>
<clus scale="  160.573">  7 10 -1 -1</clus>
<clus scale="   70.102">  2  5  1 -1</clus>
</clustering>
</event>
<event>
10    4  0.2866397E-005  0.3561610E+03  0.7546771E-02  0.1088844E+00
         -1   -1    0    0    0  501 -0.00000000000E+00  0.00000000000E+00  0.97516626932E+03  0.97516626932E+03  0.00000000000E+00 0.  1.
         21   -1    0    0  503  502  0.00000000000E+00 -0.00000000000E+00 -0.91981869938E+02  0.91981869938E+02  0.00000000000E+00 0.  1.
         24    2    1    2    0    0 -0.13967264795E+03 -0.21008816929E+02  0.47774187052E+03  0.50403194207E+03  0.76557722092E+02 0.  0.
         23    2    1    2    0    0  0.55136345404E+02  0.43716545738E+02 -0.13544755291E+02  0.11599289875E+03  0.91212604440E+02 0.  0.
        -13    1    3    3    0    0 -0.12328878474E+03 -0.21323184418E+02  0.46911324742E+03  0.48551214355E+03  0.00000000000E+00 0.  1.
         14    1    3    3    0    0 -0.16383863210E+02  0.31436748871E+00  0.86286230988E+01  0.18519798519E+02  0.00000000000E+00 0. -1.
        -11    1    4    4    0    0  0.20723071705E+02 -0.25575251162E+02 -0.19733337605E+02  0.38378949776E+02  0.00000000000E+00 0.  1.
         11    1    4    4    0    0  0.34413273698E+02  0.69291796900E+02  0.61885823141E+01  0.77613948973E+02  0.00000000000E+00 0. -1.
         21    1    1    2  503  501 -0.13021929514E+02 -0.21378606857E+02  0.10499367992E+02  0.27145021784E+02  0.00000000000E+00 0.  1.
         -2    1    1    2    0  502  0.97558232056E+02 -0.13291219522E+01  0.40848791617E+03  0.41997827666E+03  0.00000000000E+00 0.  1.
<scales pt_clust_5="13000.00000" pt_clust_6="13000.00000" pt_clust_7="13000.00000" pt_clust_8="13000.00000" pt_clust_9="25.03229" pt_clust_10="13000.00000"></scales>
<clustering>
<clus scale="   25.032">  2  9  1 -1</clus>
<clus scale="   76.558">  5  6 -1 -1</clus>
<clus scale="   91.213">  7  8 -1 -1</clus>
<clus scale="   96.704">  7 10 -1 -1</clus>
<clus scale="  162.908">  1  5  2 -1</clus>
<clus scale="   25.032">  2  5  1 -1</clus>
</clustering>
</event>
<event>
10    4  0.2866397E-005  0.6260412E+03  0.7546771E-02  0.1042021E+00
         21   -1    0    0  503  502  0.00000000000E+00  0.00000000000E+00  0.30137011168E+03  0.30137011168E+03  0.00000000000E+00 0. -1.
          2   -1    0    0  502    0 -0.00000000000E+00 -0.00000000000E+00 -0.63949388520E+03  0.63949388520E+03  0.00000000000E+00 0. -1.
         24    2    1    2    0    0  0.40308278306E+02 -0.49833638655E+02 -0.17415977665E+03  0.20564963656E+03  0.88611491201E+02 0.  0.
         23    2    1    2    0    0  0.13377270971E+03  0.29046567723E+03 -0.24735525641E+02  0.33345473149E+03  0.91185328938E+02 0.  0.
        -11    1    3    3    0    0  0.29642808785E+02  0.21076742758E+02 -0.74132104490E+02  0.82574173408E+02  0.00000000000E+00 0.  1.
         12    1    3    3    0    0  0.10665469521E+02 -0.70910381413E+02 -0.10002767216E+03  0.12307546315E+03  0.00000000000E+00 0. -1.
        -11    1    4    4    0    0  0.83787855634E+02  0.13463885047E+03  0.28999231818E+02  0.16121098056E+03  0.00000000000E+00 0. -1.
         11    1    4    4    0    0  0.49984854073E+02  0.15582682676E+03 -0.53734757459E+02  0.17224375092E+03  0.00000000000E+00 0.  1.
         21    1    1    2  503  501 -0.15937930396E+02 -0.26075401934E+02  0.61109023882E+02  0.68324644245E+02  0.00000000000E+00 0.  1.
          1    1    1    2  501    0 -0.15814305762E+03 -0.21455663664E+03 -0.20033749510E+03  0.33343498458E+03  0.00000000000E+00 0. -1.
<scales pt_clust_5="13000.00000" pt_clust_6="13000.00000" pt_clust_7="13000.00000" pt_clust_8="13000.00000" pt_clust_9="30.56050" pt_clust_10="13000.00000"></scales>
<clustering>
<clus scale="   30.561">  1  9  2 -1</clus>
<clus scale="   88.611">  5  6 -1 -1</clus>
<clus scale="   91.185">  7  8 -1 -1</clus>
<clus scale="  109.780">  2  5  1 -1</clus>
<clus scale="  289.568">  7 10 -1 -1</clus>
<clus scale="   30.561">  1  5  2 -1</clus>
</clustering>
</event>
<event>
10    4  0.2866397E-005  0.4520062E+03  0.7546771E-02  0.1062286E+00
          2   -1    0    0  502    0 -0.00000000000E+00  0.00000000000E+00  0.52514719043E+03  0.52514719043E+03  0.00000000000E+00 0. -1.
         21   -1    0    0  503  502  0.00000000000E+00 -0.00000000000E+00 -0.20610436215E+03  0.20610436215E+03  0.00000000000E+00 0. -1.
         24    2    1    2    0    0 -0.14058737560E+03  0.41136768809E+02  0.13277165990E+03  0.21410159066E+03  0.82183535603E+02 0.  0.
         23    2    1    2    0    0  0.17479673559E+03 -0.12159163605E+03 -0.33316387324E+02  0.23820033595E+03  0.10144453484E+03 0.  0.
        -11    1    3    3    0    0 -0.52212243953E+02  0.48411242352E+02  0.27176402715E+02  0.76212359032E+02  0.00000000000E+00 0.  1.
         12    1    3    3    0    0 -0.88375131645E+02 -0.72744735436E+01  0.10559525718E+03  0.13788923162E+03  0.00000000000E+00 0. -1.
        -11    1    4    4    0    0  0.14949678593E+03 -0.12646473467E+03  0.34146309640E+00  0.19581300956E+03  0.00000000000E+00 0. -1.
         11    1    4    4    0    0  0.25299949666E+02  0.48730986116E+01 -0.33657850420E+02  0.42387326385E+02  0.00000000000E+00 0.  1.
         21    1    1    2  503  501  0.23282162116E+02  0.48817674816E+01 -0.13436848699E+02  0.27321047372E+02  0.00000000000E+00 0.  1.
          1    1    1    2  501    0 -0.57491522111E+02  0.75573099764E+02  0.23302440441E+03  0.25162857861E+03  0.00000000000E+00 0. -1.
<scales pt_clust_5="13000.00000" pt_clust_6="13000.00000" pt_clust_7="13000.00000" pt_clust_8="13000.00000" pt_clust_9="23.78846" pt_clust_10="13000.00000"></scales>
<clustering>
<clus scale="   23.788">  2  9  1 -1</clus>
<clus scale="   82.184">  5  6 -1 -1</clus>
<clus scale="  101.445">  7  8 -1 -1</clus>
<clus scale="   94.450">  7 10 -1 -1</clus>
<clus scale="  163.991">  1  5  2 -1</clus>
<clus scale="   23.788">  2  5  1 -1</clus>
</clustering>
</event>
<event>
10    4  0.5239987E-005  0.2402118E+03  0.7546771E-02  0.1136625E+00
          2   -1    0    0  502    0 -0.00000000000E+00  0.00000000000E+00  0.13766853859E+04  0.13766853859E+04  0.00000000000E+00 0. -1.
         21   -1    0    0  503  502  0.00000000000E+00 -0.00000000000E+00 -0.22841662295E+03  0.22841662295E+03  0.00000000000E+00 0. -1.
         24    2    1    2    0    0 -0.10971952970E+03 -0.99472689114E+02  0.41288645884E+03  0.44871051205E+03  0.94512986659E+02 0.  0.
         23    2    1    2    0    0  0.30696004814E+02 -0.57721850232E+02  0.49157037985E+03  0.50279255350E+03  0.82975037230E+02 0.  0.
        -13    1    3    3    0    0 -0.13803130486E+02 -0.65493593024E+02  0.10570805015E+03  0.12511646177E+03  0.00000000000E+00 0.  1.
         14    1    3    3    0    0 -0.95916399209E+02 -0.33979096091E+02  0.30717840869E+03  0.32359405028E+03  0.00000000000E+00 0. -1.
        -13    1    4    4    0    0 -0.28789727692E+02 -0.15580862926E+02  0.15283151800E+03  0.15629806335E+03  0.00000000000E+00 0.  1.
         13    1    4    4    0    0  0.59485732505E+02 -0.42140987305E+02  0.33873886184E+03  0.34649449015E+03  0.00000000000E+00 0. -1.
         21    1    1    2  503  501  0.57836463600E+01  0.55588450160E+02 -0.19209202923E+03  0.20005717695E+03  0.00000000000E+00 0. -1.
          1    1    1    2  501    0  0.73239878522E+02  0.10160608919E+03  0.43590395352E+03  0.45354176639E+03  0.00000000000E+00 0. -1.
<scales pt_clust_5="13000.00000" pt_clust_6="13000.00000" pt_clust_7="13000.00000" pt_clust_8="13000.00000" pt_clust_9="55.88852" pt_clust_10="13000.00000"></scales>
<clustering>
<clus scale="   55.889">  2  9  1 -1</clus>
<clus scale="   82.975">  7  8 -1 -1</clus>
<clus scale="   94.513">  5  6 -1 -1</clus>
<clus scale="  138.677">  7 10 -1 -1</clus>
<clus scale="  158.102">  1  5  2 -1</clus>
<clus scale="   55.889">  2  5  1 -1</clus>
</clustering>
</event>
<event>
10    4  0.2866397E-005  0.1988445E+03  0.7546771E-02  0.1173965E+00
          2   -1    0    0  503    0 -0.00000000000E+00  0.00000000000E+00  0.44427692100E+03  0.44427692100E+03  0.00000000000E+00 0. -1.
         21   -1    0    0  501  502  0.00000000000E+00 -0.00000000000E+00 -0.71749532653E+02  0.71749532653E+02  0.00000000000E+00 0.  1.
         24    2    1    2    0    0 -0.66425139901E+02 -0.53235213730E+02  0.16047774132E+03  0.19861493064E+03  0.80302540565E+02 0.  0.
         23    2    1    2    0    0  0.66392177810E+02 -0.11953016369E+02  0.96668333511E+02  0.14927731846E+03  0.91586872579E+02 0.  0.
        -13    1    3    3    0    0 -0.15417258105E+02 -0.62003710286E+02  0.73354620651E+02  0.97278221137E+02  0.00000000000E+00 0.  1.
         14    1    3    3    0    0 -0.51007881796E+02  0.87684965568E+01  0.87123120671E+02  0.10133670950E+03  0.00000000000E+00 0. -1.
        -13    1    4    4    0    0  0.79729097899E+01 -0.20010542819E+02 -0.12712455905E+02  0.25011910155E+02  0.00000000000E+00 0.  1.
         13    1    4    4    0    0  0.58419268020E+02  0.80575264506E+01  0.10938078942E+03  0.12426540831E+03  0.00000000000E+00 0. -1.
         21    1    1    2  503  502  0.17238796908E+02 -0.13240731885E+02 -0.60444718909E+01  0.22561665278E+02  0.00000000000E+00 0.  1.
          1    1    1    2  501    0 -0.17205834816E+02  0.78428961984E+02  0.12142578540E+03  0.14557253927E+03  0.00000000000E+00 0. -1.
<scales pt_clust_5="13000.00000" pt_clust_6="13000.00000" pt_clust_7="13000.00000" pt_clust_8="13000.00000" pt_clust_9="21.73691" pt_clust_10="13000.00000"></scales>
<clustering>
<clus scale="   21.737">  2  9  1 -1</clus>
<clus scale="   80.303">  5  6 -1 -1</clus>
<clus scale="   91.587">  7  8 -1 -1</clus>
<clus scale="   76.856">  7 10 -1 -1</clus>
<clus scale="  115.994">  1  5  2 -1</clus>
<clus scale="   21.737">  2  5  1 -1</clus>
</clustering>
</event>
<event>
10    4  0.2866397E-005  0.3543744E+03  0.7546771E-02  0.1108564E+00
          2   -1    0    0  503    0 -0.00000000000E+00  0.00000000000E+00  0.30692037130E+03  0.30692037130E+03  0.00000000000E+00 0. -1.
         21   -1    0    0  501  502  0.00000000000E+00 -0.00000000000E+00 -0.22306070585E+03  0.22306070585E+03  0.00000000000E+00 0. -1.
         24    2    1    2    0    0 -0.35452464497E+01  0.47995842136E+02 -0.31422758323E+02  0.10740806153E+03  0.90735507412E+02 0.  0.
         23    2    1    2    0    0 -0.59943830641E+02 -0.34102676283E+02  0.22203074894E+03  0.24823456055E+03  0.86985563251E+02 0.  0.
        -13    1    3    3    0    0  0.95332173242E+01 -0.22874478207E+02  0.69825632879E+01  0.25746459482E+02  0.00000000000E+00 0.  1.
         14    1    3    3    0    0 -0.13078463774E+02  0.70870320344E+02 -0.38405321611E+02  0.81661602044E+02  0.00000000000E+00 0. -1.
        -13    1    4    4    0    0 -0.86051500520E+01  0.25081361145E+02  0.98055436119E+02  0.10157751639E+03  0.00000000000E+00 0.  1.
         13    1    4    4    0    0 -0.51338680589E+02 -0.59184037428E+02  0.12397531282E+03  0.14665704415E+03  0.00000000000E+00 0. -1.
         21    1    1    2  503  502 -0.28499816579E+02 -0.30023307807E+02 -0.16803571995E+02  0.44676600011E+02  0.00000000000E+00 0. -1.
          1    1    1    2  501    0  0.91988893669E+02  0.16130141953E+02 -0.89944753166E+02  0.12966185507E+03  0.00000000000E+00 0. -1.
<scales pt_clust_5="13000.00000" pt_clust_6="13000.00000" pt_clust_7="13000.00000" pt_clust_8="13000.00000" pt_clust_9="41.39612" pt_clust_10="13000.00000"></scales>
<clustering>
<clus scale="   41.396">  2  9  1 -1</clus>
<clus scale="   86.986">  7  8 -1 -1</clus>
<clus scale="   75.724">  7 10 -1 -1</clus>
<clus scale="   90.736">  5  6 -1 -1</clus>
<clus scale="   99.021">  1  5  2 -1</clus>
<clus scale="   41.396">  2  5  1 -1</clus>
</clustering>
</event>
<event>
10    4  0.2866397E-005  0.2366391E+03  0.7546771E-02  0.1165258E+00
          2   -1    0    0  502    0 -0.00000000000E+00  0.00000000000E+00  0.20699842525E+04  0.20699842525E+04  0.00000000000E+00 0. -1.
         21   -1    0    0  503  502  0.00000000000E+00 -0.00000000000E+00 -0.14960630983E+03  0.14960630983E+03  0.00000000000E+00 0. -1.
         24    2    1    2    0    0  0.18431824307E+02  0.16853620949E+02  0.12781833089E+04  0.12809403728E+04  0.80199070052E+02 0.  0.
         23    2    1    2    0    0 -0.37448573101E+02  0.67445276935E+02  0.49111060566E+03  0.50656700362E+03  0.97310026004E+02 0.  0.
        -11    1    3    3    0    0 -0.20486742162E+02 -0.54953402826E+01  0.11812373564E+03  0.12001300884E+03  0.00000000000E+00 0.  1.
         12    1    3    3    0    0  0.38918566470E+02  0.22348961232E+02  0.11600595733E+04  0.11609273640E+04  0.00000000000E+00 0. -1.
        -13    1    4    4    0    0  0.19922605564E+02 -0.80238614203E+01  0.38037899612E+02  0.43682655270E+02  0.00000000000E+00 0.  1.
         13    1    4    4    0    0 -0.57371178665E+02  0.75469138356E+02  0.45307270605E+03  0.46288434835E+03  0.00000000000E+00 0. -1.
         21    1    1    2  503  501 -0.76522937465E+02 -0.99265449110E+02 -0.10171642078E+03  0.16141753189E+03  0.00000000000E+00 0. -1.
          1    1    1    2  501    0  0.95539686259E+02  0.14966551225E+02  0.25280044891E+03  0.27066565404E+03  0.00000000000E+00 0. -1.
<scales pt_clust_5="13000.00000" pt_clust_6="13000.00000" pt_clust_7="13000.00000" pt_clust_8="13000.00000" pt_clust_9="124.40814" pt_clust_10="13000.00000"></scales>
<clustering>
<clus scale="   80.199">  5  6 -1 -1</clus>
<clus scale="   83.998">  1  5  2 -1</clus>
<clus scale="   97.310">  7  8 -1 -1</clus>
<clus scale="  103.699">  7 10 -1 -1</clus>
<clus scale="  124.408">  2  9  1 -1</clus>
<clus scale="  124.408">  2  5  1 -1</clus>
</clustering>
</event>
<event>
10    4  0.2866397E-005  0.3703341E+03  0.7546771E-02  0.1084570E+00
         21   -1    0    0  503  502  0.00000000000E+00  0.00000000000E+00  0.65527459659E+03  0.65527459659E+03  0.00000000000E+00 0. -1.
          2   -1    0    0  502    0 -0.00000000000E+00 -0.00000000000E+00 -0.28085107766E+03  0.28085107766E+03  0.00000000000E+00 0. -1.
         24    2    1    2    0    0 -0.10916026684E+03  0.56839934806E+02  0.37003481319E+02  0.15075439836E+03  0.78809193316E+02 0.  0.
         23    2    1    2    0    0 -0.61071745076E+02 -0.12312577341E+03 -0.10619692447E+03  0.19442791258E+03  0.87376840740E+02 0.  0.
        -13    1    3    3    0    0 -0.10818451876E+03  0.42249999784E+02  0.57907107608E+01  0.11628621979E+03  0.00000000000E+00 0.  1.
         14    1    3    3    0    0 -0.97574807415E+00  0.14589935022E+02  0.31212770558E+02  0.34468178573E+02  0.00000000000E+00 0. -1.
        -13    1    4    4    0    0 -0.37460706546E+02 -0.90179372912E+02 -0.11708128704E+03  0.15245868820E+03  0.00000000000E+00 0. -1.
         13    1    4    4    0    0 -0.23611038529E+02 -0.32946400500E+02  0.10884362567E+02  0.41969224377E+02  0.00000000000E+00 0.  1.
         21    1    1    2  503  501 -0.17467398813E+02  0.72649504295E+02  0.38792092558E+03  0.39505152196E+03  0.00000000000E+00 0. -1.
          1    1    1    2  501    0  0.18769941072E+03 -0.63636656886E+01  0.55696036509E+02  0.19589184136E+03  0.00000000000E+00 0. -1.
<scales pt_clust_5="13000.00000" pt_clust_6="13000.00000" pt_clust_7="13000.00000" pt_clust_8="13000.00000" pt_clust_9="74.71988" pt_clust_10="13000.00000"></scales>
<clustering>
<clus scale="   74.720">  1  9  2 -1</clus>
<clus scale="   78.809">  5  6 -1 -1</clus>
<clus scale="   87.377">  7  8 -1 -1</clus>
<clus scale="  162.361">  2  5  1 -1</clus>
<clus scale="  151.708">  7 10 -1 -1</clus>
<clus scale="   74.720">  1  5  2 -1</clus>
</clustering>
</event>
<event>
10    4  0.2866397E-005  0.1548660E+03  0.7546771E-02  0.1219473E+00
          2   -1    0    0  503    0 -0.00000000000E+00  0.00000000000E+00  0.86878524157E+03  0.86878524157E+03  0.00000000000E+00 0. -1.
         21   -1    0    0  501  502  0.00000000000E+00 -0.00000000000E+00 -0.53320859982E+02  0.53320859982E+02  0.00000000000E+00 0. -1.
         24    2    1    2    0    0 -0.35581230266E+02  0.59367010840E+01  0.92553363683E+02  0.12802096877E+03  0.80758745332E+02 0.  0.
         23    2    1    2    0    0  0.68492441662E+02 -0.41540010303E+02  0.59278132567E+03  0.60359097875E+03  0.80719158462E+02 0.  0.
        -13    1    3    3    0    0 -0.26864179341E+02 -0.27879234269E+02  0.83356421649E+02  0.91908807332E+02  0.00000000000E+00 0.  1.
         14    1    3    3    0    0 -0.87170509247E+01  0.33815935353E+02  0.91969420339E+01  0.36112161433E+02  0.00000000000E+00 0. -1.
        -13    1    4    4    0    0 -0.10544232973E+02 -0.30455127013E+02  0.12724886416E+03  0.13126678575E+03  0.00000000000E+00 0.  1.
         13    1    4    4    0    0  0.79036674635E+02 -0.11084883290E+02  0.46553246151E+03  0.47232419300E+03  0.00000000000E+00 0. -1.
         21    1    1    2  503  502  0.79825472892E+01  0.33271697211E+02 -0.16688906035E+02  0.38068970056E+02  0.00000000000E+00 0. -1.
          1    1    1    2  501    0 -0.40893758686E+02  0.23316120083E+01  0.14681859827E+03  0.15242518398E+03  0.00000000000E+00 0. -1.
<scales pt_clust_5="13000.00000" pt_clust_6="13000.00000" pt_clust_7="13000.00000" pt_clust_8="13000.00000" pt_clust_9="34.21589" pt_clust_10="13000.00000"></scales>
<clustering>
<clus scale="   34.216">  2  9  1 -1</clus>
<clus scale="   80.719">  7  8 -1 -1</clus>
<clus scale="   40.468">  7 10 -1 -1</clus>
<clus scale="   80.759">  5  6 -1 -1</clus>
<clus scale="   90.841">  1  5  2 -1</clus>
<clus scale="   34.216">  2  5  1 -1</clus>
</clustering>
</event>
<event>
10    4  0.2866397E-005  0.4746806E+03  0.7546771E-02  0.1035285E+00
          2   -1    0    0  502    0 -0.00000000000E+00  0.00000000000E+00  0.20611003995E+04  0.20611003995E+04  0.00000000000E+00 0. -1.
         21   -1    0    0  503  502  0.00000000000E+00 -0.00000000000E+00 -0.19176452379E+03  0.19176452379E+03  0.00000000000E+00 0.  1.
         24    2    1    2    0    0  0.19865129367E+03  0.13776890415E+03 -0.93987063729E+01  0.25495810882E+03  0.80453055536E+02 0.  0.
         23    2    1    2    0    0 -0.21237655156E+03 -0.27641292609E+03  0.15017617576E+04  0.15442078948E+04  0.88214173219E+02 0.  0.
        -11    1    3    3    0    0  0.14232044546E+03  0.13780921487E+03 -0.12834399127E+02  0.19852256975E+03  0.00000000000E+00 0.  1.
         12    1    3    3    0    0  0.56330848210E+02 -0.40310729055E-01  0.34356927546E+01  0.56435539066E+02  0.00000000000E+00 0. -1.
        -11    1    4    4    0    0 -0.20880560767E+03 -0.22966876198E+03  0.12384941426E+04  0.12767988343E+04  0.00000000000E+00 0. -1.
         11    1    4    4    0    0 -0.35709438882E+01 -0.46744164112E+02  0.26326761497E+03  0.26740906045E+03  0.00000000000E+00 0.  1.
         21    1    1    2  503  501  0.60630776417E+02  0.29099937981E+02  0.10160106559E+02  0.68015624710E+02  0.00000000000E+00 0. -1.
          1    1    1    2  501    0 -0.46905518519E+02  0.10954408397E+03  0.36681271795E+03  0.38568329501E+03  0.00000000000E+00 0. -1.
<scales pt_clust_5="13000.00000" pt_clust_6="13000.00000" pt_clust_7="13000.00000" pt_clust_8="13000.00000" pt_clust_9="67.25249" pt_clust_10="13000.00000"></scales>
<clustering>
<clus scale="   67.252">  2  9  1 -1</clus>
<clus scale="   80.453">  5  6 -1 -1</clus>
<clus scale="   88.214">  7  8 -1 -1</clus>
<clus scale="  119.395">  7 10 -1 -1</clus>
<clus scale="  306.525">  1  5  2 -1</clus>
<clus scale="   67.252">  2  5  1 -1</clus>
</clustering>
</event>
<event>
10    4  0.2866397E-005  0.4159386E+03  0.7546771E-02  0.1089247E+00
          2   -1    0    0  502    0 -0.00000000000E+00  0.00000000000E+00  0.15781247079E+03  0.15781247079E+03  0.00000000000E+00 0. -1.
         21   -1    0    0  503  502  0.00000000000E+00 -0.00000000000E+00 -0.55975696198E+03  0.55975696198E+03  0.00000000000E+00 0. -1.
         24    2    1    2    0    0  0.54689241574E+02  0.43461416785E+02 -0.77116255501E+02  0.13186581734E+03  0.81005364180E+02 0.  0.
         23    2    1    2    0    0 -0.20054752657E+03 -0.74629387426E+02 -0.13597683626E+03  0.26890859692E+03  0.89628553595E+02 0.  0.
        -13    1    3    3    0    0  0.18119949830E+02  0.62599781560E+02 -0.40790047558E+02  0.76882333556E+02  0.00000000000E+00 0.  1.
         14    1    3    3    0    0  0.36569291745E+02 -0.19138364775E+02 -0.36326207944E+02  0.54983483779E+02  0.00000000000E+00 0. -1.
        -13    1    4    4    0    0 -0.30965075876E+02 -0.51533233553E+02 -0.44892916363E+02  0.75032553095E+02  0.00000000000E+00 0.  1.
         13    1    4    4    0    0 -0.16958245069E+03 -0.23096153873E+02 -0.91083919895E+02  0.19387604383E+03  0.00000000000E+00 0. -1.
         21    1    1    2  503  501 -0.19955737460E+02 -0.38383540933E+02 -0.11417220823E+03  0.12209349206E+03  0.00000000000E+00 0. -1.
          1    1    1    2  501    0  0.16581402245E+03  0.69551511574E+02 -0.74679191205E+02  0.19470152645E+03  0.00000000000E+00 0. -1.
<scales pt_clust_5="13000.00000" pt_clust_6="13000.00000" pt_clust_7="13000.00000" pt_clust_8="13000.00000" pt_clust_9="43.26116" pt_clust_10="13000.00000"></scales>
<clustering>
<clus scale="   43.261">  2  9  1 -1</clus>
<clus scale="   81.005">  5  6 -1 -1</clus>
<clus scale="   89.629">  7  8 -1 -1</clus>
<clus scale="  101.196">  1  5  2 -1</clus>
<clus scale="  194.680">  7 10 -1 -1</clus>
<clus scale="   43.261">  2  5  1 -1</clus>
</clustering>
</event>
<event>
10    4  0.2866397E-005  0.5008295E+03  0.7546771E-02  0.1051380E+00
         21   -1    0    0  501  502  0.00000000000E+00  0.00000000000E+00  0.14135265091E+03  0.14135265091E+03  0.00000000000E+00 0. -1.
          2   -1    0    0  503    0 -0.00000000000E+00 -0.00000000000E+00 -0.11553131844E+04  0.11553131844E+04  0.00000000000E+00 0. -1.
         24    2    1    2    0    0 -0.11428574886E+03 -0.63005780343E+02 -0.26519143998E+03  0.30652094381E+03  0.81225786573E+02 0.  0.
         23    2    1    2    0    0  0.17645573394E+03 -0.29325280736E+02 -0.61465799577E+02  0.21032353889E+03  0.91985587784E+02 0.  0.
        -11    1    3    3    0    0 -0.64007144339E+02 -0.78087761189E+02 -0.18272608121E+03  0.20876645739E+03  0.00000000000E+00 0.  1.
         12    1    3    3    0    0 -0.50278604522E+02  0.15081980846E+02 -0.82465358766E+02  0.97754486420E+02  0.00000000000E+00 0. -1.
        -13    1    4    4    0    0  0.15625282978E+03  0.90490318328E+01 -0.38198282358E+02  0.16110847453E+03  0.00000000000E+00 0. -1.
         13    1    4    4    0    0  0.20202904165E+02 -0.38374312569E+02 -0.23267517219E+02  0.49215064354E+02  0.00000000000E+00 0.  1.
         21    1    1    2  503  502 -0.18914974429E+01 -0.11950428478E+03 -0.11197829410E+03  0.16378031076E+03  0.00000000000E+00 0. -1.
          1    1    1    2  501    0 -0.60278487641E+02  0.21183534586E+03 -0.57532499988E+03  0.61604104190E+03  0.00000000000E+00 0. -1.
<scales pt_clust_5="13000.00000" pt_clust_6="13000.00000" pt_clust_7="13000.00000" pt_clust_8="13000.00000" pt_clust_9="119.51925" pt_clust_10="13000.00000"></scales>
<clustering>
<clus scale="   81.226">  5  6 -1 -1</clus>
<clus scale="   91.986">  7  8 -1 -1</clus>
<clus scale="  119.519">  1  9  2 -1</clus>
<clus scale="  163.887">  2  5  1 -1</clus>
<clus scale="  191.790">  7 10 -1 -1</clus>
<clus scale="  119.519">  1  5  2 -1</clus>
</clustering>
</event>
<event>
10    4  0.2866397E-005  0.5542433E+03  0.7546771E-02  0.1046708E+00
          2   -1    0    0  503    0 -0.00000000000E+00  0.00000000000E+00  0.52499662953E+03  0.52499662953E+03  0.00000000000E+00 0. -1.
         21   -1    0    0  501  502  0.00000000000E+00 -0.00000000000E+00 -0.10158040568E+04  0.10158040568E+04  0.00000000000E+00 0. -1.
         24    2    1    2    0    0 -0.76014345846E+02  0.83041965881E+02  0.25655505897E+03  0.29141075973E+03  0.80159738842E+02 0.  0.
         23    2    1    2    0    0 -0.62199026863E+02  0.40686979686E+02  0.60694840270E+02  0.13549876401E+03  0.95665574546E+02 0.  0.
        -13    1    3    3    0    0 -0.32574822662E+02  0.87426612168E+02  0.15573605418E+03  0.18154407222E+03  0.00000000000E+00 0.  1.
         14    1    3    3    0    0 -0.43439523183E+02 -0.43846462862E+01  0.10081900479E+03  0.10986668751E+03  0.00000000000E+00 0. -1.
        -11    1    4    4    0    0 -0.52579925058E+02 -0.19668282241E+02  0.46155618958E+02  0.72676206607E+02  0.00000000000E+00 0.  1.
         11    1    4    4    0    0 -0.96191018049E+01  0.60355261927E+02  0.14539221313E+02  0.62822557399E+02  0.00000000000E+00 0. -1.
         21    1    1    2  503  502 -0.20916291998E+03  0.13676524488E+03 -0.56143139170E+03  0.61453971954E+03  0.00000000000E+00 0. -1.
          1    1    1    2  501    0  0.34737629269E+03 -0.26049419045E+03 -0.24662593485E+03  0.49935144310E+03  0.00000000000E+00 0. -1.
<scales pt_clust_5="13000.00000" pt_clust_6="13000.00000" pt_clust_7="13000.00000" pt_clust_8="13000.00000" pt_clust_9="261.46229" pt_clust_10="13000.00000"></scales>
<clustering>
<clus scale="   80.160">  5  6 -1 -1</clus>
<clus scale="   95.666">  7  8 -1 -1</clus>
<clus scale="  138.202">  1  5  2 -1</clus>
<clus scale="  261.462">  2  9  1 -1</clus>
<clus scale="  172.342">  7 10 -1 -1</clus>
<clus scale="  261.462">  2  5  1 -1</clus>
</clustering>
</event>
<event>
10    4  0.3413726E-005  0.1859673E+03  0.7546771E-02  0.1195401E+00
         21   -1    0    0  503  502  0.00000000000E+00  0.00000000000E+00  0.17190068891E+03  0.17190068891E+03  0.00000000000E+00 0.  1.
          2   -1    0    0  502    0 -0.00000000000E+00 -0.00000000000E+00 -0.87610622366E+03  0.87610622366E+03  0.00000000000E+00 0. -1.
         24    2    1    2    0    0  0.47791813102E+02  0.70040886093E+01 -0.42995949921E+03  0.43885587673E+03  0.73458797446E+02 0.  0.
         23    2    1    2    0    0 -0.99969174946E+02 -0.43586748078E+02 -0.22583940736E+03  0.26643059458E+03  0.89934327509E+02 0.  0.
        -11    1    3    3    0    0 -0.18901208173E+02  0.78257175003E+01 -0.78382137674E+02  0.81007759080E+02  0.00000000000E+00 0.  1.
         12    1    3    3    0    0  0.66693021275E+02 -0.82162889093E+00 -0.35157736154E+03  0.35784811765E+03  0.00000000000E+00 0. -1.
        -11    1    4    4    0    0 -0.42331568779E+02 -0.82594511952E+01 -0.16052259656E+02  0.46020161771E+02  0.00000000000E+00 0.  1.
         11    1    4    4    0    0 -0.57637606167E+02 -0.35327296883E+02 -0.20978714770E+03  0.22041043281E+03  0.00000000000E+00 0. -1.
         21    1    1    2  503  501  0.12877581971E+03  0.20628488170E+02  0.10702264777E+03  0.16870860501E+03  0.00000000000E+00 0.  1.
          1    1    1    2  501    0 -0.76598457870E+02  0.15954171299E+02 -0.15542927595E+03  0.17401183624E+03  0.00000000000E+00 0. -1.
<scales pt_clust_5="13000.00000" pt_clust_6="13000.00000" pt_clust_7="13000.00000" pt_clust_8="13000.00000" pt_clust_9="133.79015" pt_clust_10="13000.00000"></scales>
<clustering>
<clus scale="   73.459">  5  6 -1 -1</clus>
<clus scale="   87.916">  2  5  1 -1</clus>
<clus scale="   89.934">  7  8 -1 -1</clus>
<clus scale="   61.638">  7 10 -1 -1</clus>
<clus scale="  133.790">  1  9  2 -1</clus>
<clus scale="  133.790">  1  5  2 -1</clus>
</clustering>
</event>
<event>
10    4  0.2866397E-005  0.2108282E+03  0.7546771E-02  0.1176455E+00
          2   -1    0    0  503    0 -0.00000000000E+00  0.00000000000E+00  0.94195574119E+03  0.94195574119E+03  0.00000000000E+00 0. -1.
         21   -1    0    0  501  502  0.00000000000E+00 -0.00000000000E+00 -0.51808902303E+02  0.51808902303E+02  0.00000000000E+00 0.  1.
         24    2    1    2    0    0  0.32602801275E+02  0.63355064970E+02  0.29492752077E+03  0.31412969688E+03  0.81353654192E+02 0.  0.
         23    2    1    2    0    0  0.88963103588E+02 -0.26043182764E+02  0.21557132820E+03  0.24964540738E+03  0.85200649742E+02 0.  0.
        -13    1    3    3    0    0  0.59132172566E+02  0.52967110880E+02  0.22643963704E+03  0.23995215751E+03  0.00000000000E+00 0.  1.
         14    1    3    3    0    0 -0.26529371291E+02  0.10387954090E+02  0.68487883724E+02  0.74177539379E+02  0.00000000000E+00 0. -1.
        -13    1    4    4    0    0  0.74760499490E+01 -0.23075511348E+02  0.63174845507E+01  0.25065537255E+02  0.00000000000E+00 0.  1.
         13    1    4    4    0    0  0.81487053639E+02 -0.29676714154E+01  0.20925384365E+03  0.22457987012E+03  0.00000000000E+00 0. -1.
         21    1    1    2  503  502 -0.65416187533E+02 -0.69270844527E+02  0.82912661537E+02  0.12630216521E+03  0.00000000000E+00 0.  1.
          1    1    1    2  501    0 -0.56149717331E+02  0.31958962321E+02  0.29673532839E+03  0.30368737402E+03  0.00000000000E+00 0. -1.
<scales pt_clust_5="13000.00000" pt_clust_6="13000.00000" pt_clust_7="13000.00000" pt_clust_8="13000.00000" pt_clust_9="95.27711" pt_clust_10="13000.00000"></scales>
<clustering>
<clus scale="   81.354">  5  6 -1 -1</clus>
<clus scale="   85.201">  7  8 -1 -1</clus>
<clus scale="   64.608">  7 10 -1 -1</clus>
<clus scale="   95.277">  2  9  1 -1</clus>
<clus scale="   91.976">  1  5  2 -1</clus>
<clus scale="   95.277">  2  5  1 -1</clus>
</clustering>
</event>
<event>
10    4  0.2866397E-005  0.3686779E+03  0.7546771E-02  0.1086811E+00
          2   -1    0    0  503    0 -0.00000000000E+00  0.00000000000E+00  0.68830810018E+03  0.68830810018E+03  0.00000000000E+00 0. -1.
         21   -1    0    0  501  502  0.00000000000E+00 -0.00000000000E+00 -0.13248766612E+03  0.13248766612E+03  0.00000000000E+00 0.  1.
         24    2    1    2    0    0 -0.10744075813E+03 -0.81801917968E+02  0.21804489359E+03  0.26807028308E+03  0.77993786684E+02 0.  0.
         23    2    1    2    0    0 -0.83006818252E+01  0.51620339935E+02  0.37668975237E+03  0.39168053258E+03  0.93727846737E+02 0.  0.
        -11    1    3    3    0    0 -0.69574346796E+02 -0.38327200168E+02  0.59142949109E+02  0.99032582689E+02  0.00000000000E+00 0.  1.
         12    1    3    3    0    0 -0.37866411337E+02 -0.43474717800E+02  0.15890194448E+03  0.16903770039E+03  0.00000000000E+00 0. -1.
        -13    1    4    4    0    0 -0.48711016188E+01  0.77739868614E+02  0.23529676217E+03  0.24785435459E+03  0.00000000000E+00 0.  1.
         13    1    4    4    0    0 -0.34295802063E+01 -0.26119528680E+02  0.14139299020E+03  0.14382617800E+03  0.00000000000E+00 0. -1.
         21    1    1    2  503  502 -0.94842580845E+01  0.20361976716E+02 -0.26625705322E+02  0.34835175199E+02  0.00000000000E+00 0. -1.
          1    1    1    2  501    0  0.12522569804E+03  0.98196013166E+01 -0.12288506580E+02  0.12620977543E+03  0.00000000000E+00 0. -1.
<scales pt_clust_5="13000.00000" pt_clust_6="13000.00000" pt_clust_7="13000.00000" pt_clust_8="13000.00000" pt_clust_9="22.46244" pt_clust_10="13000.00000"></scales>
<clustering>
<clus scale="   22.462">  2  9  1 -1</clus>
<clus scale="   77.994">  5  6 -1 -1</clus>
<clus scale="   93.728">  7  8 -1 -1</clus>
<clus scale="  121.108">  7 10 -1 -1</clus>
<clus scale="  155.018">  1  5  2 -1</clus>
<clus scale="   22.462">  2  5  1 -1</clus>
</clustering>
</event>
<event>
10    4  0.2866397E-005  0.2861219E+03  0.7546771E-02  0.1111320E+00
          2   -1    0    0  502    0 -0.00000000000E+00  0.00000000000E+00  0.15341065362E+04  0.15341065362E+04  0.00000000000E+00 0. -1.
         21   -1    0    0  503  502  0.00000000000E+00 -0.00000000000E+00 -0.61829121048E+02  0.61829121048E+02  0.00000000000E+00 0. -1.
         24    2    1    2    0    0 -0.13044725123E+03 -0.81461335308E+02  0.71561783725E+03  0.73637568193E+03  0.80547013879E+02 0.  0.
         23    2    1    2    0    0  0.15209929843E+03 -0.63739039721E+02  0.61924908511E+03  0.64617601529E+03  0.82928593161E+02 0.  0.
        -13    1    3    3    0    0 -0.17118865190E+02 -0.54312942522E+02  0.22182294446E+03  0.22901609105E+03  0.00000000000E+00 0.  1.
         14    1    3    3    0    0 -0.11332838604E+03 -0.27148392786E+02  0.49379489278E+03  0.50735959087E+03  0.00000000000E+00 0. -1.
        -13    1    4    4    0    0  0.12320710311E+03 -0.10114796055E+02  0.40719330309E+03  0.42554516263E+03  0.00000000000E+00 0.  1.
         13    1    4    4    0    0  0.28892195320E+02 -0.53624243666E+02  0.21205578202E+03  0.22063085266E+03  0.00000000000E+00 0. -1.
         21    1    1    2  503  501 -0.45235165596E+02  0.67996145651E+02  0.58178664123E+02  0.10027189531E+03  0.00000000000E+00 0. -1.
          1    1    1    2  501    0  0.23583118396E+02  0.77204229379E+02  0.79231828633E+02  0.11311206468E+03  0.00000000000E+00 0. -1.
<scales pt_clust_5="13000.00000" pt_clust_6="13000.00000" pt_clust_7="13000.00000" pt_clust_8="13000.00000" pt_clust_9="81.66821" pt_clust_10="13000.00000"></scales>
<clustering>
<clus scale="   80.547">  5  6 -1 -1</clus>
<clus scale="   81.668">  2  9  1 -1</clus>
<clus scale="   82.929">  7  8 -1 -1</clus>
<clus scale="  105.557">  7 10 -1 -1</clus>
<clus scale="  175.375">  1  5  2 -1</clus>
<clus scale="   81.668">  2  5  1 -1</clus>
</clustering>
</event>
<event>
10    4  0.2866397E-005  0.2121923E+03  0.7546771E-02  0.1154429E+00
          2   -1    0    0  503    0 -0.00000000000E+00  0.00000000000E+00  0.11314402370E+04  0.11314402370E+04  0.00000000000E+00 0. -1.
         21   -1    0    0  501  502  0.00000000000E+00 -0.00000000000E+00 -0.51304189447E+02  0.51304189447E+02  0.00000000000E+00 0.  1.
         24    2    1    2    0    0 -0.73458755079E+02  0.50786266023E+02  0.40852726783E+03  0.43170455438E+03  0.10723273846E+03 0.  0.
         23    2    1    2    0    0  0.10225556874E+03 -0.46059098915E+02  0.65819455630E+03  0.67416655215E+03  0.93288928441E+02 0.  0.
        -13    1    3    3    0    0 -0.10143866492E+03  0.34333494161E+02  0.31330069586E+03  0.33109804830E+03  0.00000000000E+00 0.  1.
         14    1    3    3    0    0  0.27979909841E+02  0.16452771863E+02  0.95226571972E+02  0.10060650608E+03  0.00000000000E+00 0. -1.
        -13    1    4    4    0    0  0.39366187395E+02  0.28063004151E+02  0.19787262077E+03  0.20369291338E+03  0.00000000000E+00 0.  1.
         13    1    4    4    0    0  0.62889381345E+02 -0.74122103066E+02  0.46032193553E+03  0.47047363877E+03  0.00000000000E+00 0. -1.
         21    1    1    2  503  502 -0.28996249015E+02  0.28121861168E+02 -0.22995691951E+01  0.40458738870E+02  0.00000000000E+00 0.  1.
          1    1    1    2  501    0  0.19943535378E+00 -0.32849028276E+02  0.15713792599E+02  0.36414581021E+02  0.00000000000E+00 0. -1.
<scales pt_clust_5="13000.00000" pt_clust_6="13000.00000" pt_clust_7="13000.00000" pt_clust_8="13000.00000" pt_clust_9="40.39334" pt_clust_10="13000.00000"></scales>
<clustering>
<clus scale="   40.393">  2  9  1 -1</clus>
<clus scale="   93.289">  7  8 -1 -1</clus>
<clus scale="   25.125">  7 10 -1 -1</clus>
<clus scale="  107.233">  5  6 -1 -1</clus>
<clus scale="  149.916">  1  5  2 -1</clus>
<clus scale="   40.393">  2  5  1 -1</clus>
</clustering>
</event>
<event>
10    4  0.2866397E-005  0.3713152E+03  0.7546771E-02  0.1098924E+00
         21   -1    0    0  503  502  0.00000000000E+00  0.00000000000E+00  0.10170888683E+03  0.10170888683E+03  0.00000000000E+00 0.  1.
          2   -1    0    0  502    0 -0.00000000000E+00 -0.00000000000E+00 -0.81642887655E+03  0.81642887655E+03  0.00000000000E+00 0. -1.
         24    2    1    2    0    0 -0.52065597040E+02  0.60669000561E+02 -0.66797331140E+02  0.13188080631E+03  0.80864761179E+02 0.  0.
         23    2    1    2    0    0 -0.76936915350E+02  0.51848086570E+02 -0.56542597411E+02  0.14061329835E+03  0.89260973149E+02 0.  0.
        -11    1    3    3    0    0 -0.18303747115E+02  0.73557209877E+02 -0.55741261322E+02  0.94089204997E+02  0.00000000000E+00 0.  1.
         12    1    3    3    0    0 -0.33761849924E+02 -0.12888209316E+02 -0.11056069818E+02  0.37791601309E+02  0.00000000000E+00 0. -1.
        -11    1    4    4    0    0 -0.11418019704E+02 -0.24670023201E+02 -0.57057568150E+01  0.27776552693E+02  0.00000000000E+00 0.  1.
         11    1    4    4    0    0 -0.65518895646E+02  0.76518109771E+02 -0.50836840596E+02  0.11283674566E+03  0.00000000000E+00 0. -1.
         21    1    1    2  503  501  0.55884031630E+02  0.20555376999E+02 -0.35333030922E+02  0.69238512325E+02  0.00000000000E+00 0.  1.
          1    1    1    2  501    0  0.73118480759E+02 -0.13307246413E+03 -0.55604703025E+03  0.57640514639E+03  0.00000000000E+00 0. -1.
<scales pt_clust_5="13000.00000" pt_clust_6="13000.00000" pt_clust_7="13000.00000" pt_clust_8="13000.00000" pt_clust_9="59.54451" pt_clust_10="13000.00000"></scales>
<clustering>
<clus scale="   59.545">  1  9  2 -1</clus>
<clus scale="   80.865">  5  6 -1 -1</clus>
<clus scale="   89.261">  7  8 -1 -1</clus>
<clus scale="  110.348">  2  5  1 -1</clus>
<clus scale="   91.677">  7 10 -1 -1</clus>
<clus scale="   59.545">  1  5  2 -1</clus>
</clustering>
</event>
<event>
10    4  0.2866397E-005  0.2579288E+03  0.7546771E-02  0.1136729E+00
          2   -1    0    0  503    0 -0.00000000000E+00  0.00000000000E+00  0.30112478984E+03  0.30112478984E+03  0.00000000000E+00 0. -1.
         21   -1    0    0  501  502  0.00000000000E+00 -0.00000000000E+00 -0.24955904013E+03  0.24955904013E+03  0.00000000000E+00 0.  1.
         24    2    1    2    0    0 -0.14276745073E+02 -0.14068728760E+03 -0.19508338993E+02  0.16357153992E+03  0.79864479201E+02 0.  0.
         23    2    1    2    0    0 -0.95502548558E+02  0.27857617358E+02  0.12536210803E+03  0.18351716016E+03  0.89811504379E+02 0.  0.
        -13    1    3    3    0    0  0.43998477822E+01 -0.11281036185E+03  0.16792131779E+02  0.11413812725E+03  0.00000000000E+00 0.  1.
         14    1    3    3    0    0 -0.18676592855E+02 -0.27876925747E+02 -0.36300470772E+02  0.49433412668E+02  0.00000000000E+00 0. -1.
        -11    1    4    4    0    0 -0.77098869852E+02 -0.21181285312E+02  0.89637385736E+02  0.12011554230E+03  0.00000000000E+00 0.  1.
         11    1    4    4    0    0 -0.18403678706E+02  0.49038902670E+02  0.35724722291E+02  0.63401617863E+02  0.00000000000E+00 0. -1.
         21    1    1    2  503  502  0.18022818321E+02  0.74210463350E+02 -0.69047839776E+02  0.10295445123E+03  0.00000000000E+00 0. -1.
          1    1    1    2  501    0  0.91756475309E+02  0.38619206892E+02  0.14759820448E+02  0.10064067866E+03  0.00000000000E+00 0. -1.
<scales pt_clust_5="13000.00000" pt_clust_6="13000.00000" pt_clust_7="13000.00000" pt_clust_8="13000.00000" pt_clust_9="76.36763" pt_clust_10="13000.00000"></scales>
<clustering>
<clus scale="   76.368">  2  9  1 -1</clus>
<clus scale="   79.864">  5  6 -1 -1</clus>
<clus scale="   89.812">  7  8 -1 -1</clus>
<clus scale="  112.632">  7 10 -1 -1</clus>
<clus scale="  127.386">  1  5  2 -1</clus>
<clus scale="   76.368">  2  5  1 -1</clus>
</clustering>
</event>
<event>
10    4  0.2866397E-005  0.1466004E+03  0.7546771E-02  0.1230378E+00
          2   -1    0    0  503    0 -0.00000000000E+00  0.00000000000E+00  0.43562678946E+03  0.43562678946E+03  0.00000000000E+00 0. -1.
         21   -1    0    0  501  502  0.00000000000E+00 -0.00000000000E+00 -0.15425921787E+03  0.15425921787E+03  0.00000000000E+00 0.  1.
         24    2    1    2    0    0  0.15312927653E+02 -0.25036804689E+02  0.37835167072E+03  0.38792080781E+03  0.80444011922E+02 0.  0.
         23    2    1    2    0    0 -0.39737034175E+02  0.11691585105E+02 -0.16672891242E+02  0.96605551825E+02  0.85667510141E+02 0.  0.
        -11    1    3    3    0    0 -0.18553792188E+02  0.21093441321E+02  0.10951619388E+03  0.11306181138E+03  0.00000000000E+00 0.  1.
         12    1    3    3    0    0  0.33866719842E+02 -0.46130246009E+02  0.26883547684E+03  0.27485899643E+03  0.00000000000E+00 0. -1.
        -11    1    4    4    0    0  0.25715899044E+02 -0.24037621133E+01  0.48465846279E+01  0.26278792181E+02  0.00000000000E+00 0. -1.
         11    1    4    4    0    0 -0.65452933220E+02  0.14095347218E+02 -0.21519475870E+02  0.70326759644E+02  0.00000000000E+00 0.  1.
         21    1    1    2  503  502 -0.18859360111E+02  0.12195260982E+02 -0.41617966624E+02  0.47291172540E+02  0.00000000000E+00 0.  1.
          1    1    1    2  501    0  0.43283466633E+02  0.11499586018E+01 -0.38693241262E+02  0.58068475164E+02  0.00000000000E+00 0. -1.
<scales pt_clust_5="13000.00000" pt_clust_6="13000.00000" pt_clust_7="13000.00000" pt_clust_8="13000.00000" pt_clust_9="22.45885" pt_clust_10="13000.00000"></scales>
<clustering>
<clus scale="   22.459">  2  9  1 -1</clus>
<clus scale="   80.444">  5  6 -1 -1</clus>
<clus scale="   85.333">  1  5  2 -1</clus>
<clus scale="   85.668">  7  8 -1 -1</clus>
<clus scale="   37.304">  7 10 -1 -1</clus>
<clus scale="   22.459">  2  5  1 -1</clus>
</clustering>
</event>
<event>
10    4  0.2866397E-005  0.6764749E+03  0.7546771E-02  0.1005968E+00
          2   -1    0    0  503    0 -0.00000000000E+00  0.00000000000E+00  0.86968227173E+03  0.86968227173E+03  0.00000000000E+00 0. -1.
         21   -1    0    0  501  502  0.00000000000E+00 -0.00000000000E+00 -0.32518244792E+03  0.32518244792E+03  0.00000000000E+00 0. -1.
         24    2    1    2    0    0  0.17644547979E+03  0.17332493818E+03  0.39691880556E+03  0.47432930450E+03  0.79178338948E+02 0.  0.
         23    2    1    2    0    0  0.89065559572E+02 -0.35168385567E+03  0.12684043939E+03  0.39501478839E+03  0.91290622413E+02 0.  0.
        -13    1    3    3    0    0  0.46088162673E+02  0.10298402343E+02  0.45411213944E+02  0.65516060483E+02  0.00000000000E+00 0.  1.
         14    1    3    3    0    0  0.13035731712E+03  0.16302653584E+03  0.35150759162E+03  0.40881324401E+03  0.00000000000E+00 0. -1.
        -11    1    4    4    0    0  0.25858201740E+02 -0.11232829951E+03  0.86672664838E+02  0.14421665749E+03  0.00000000000E+00 0. -1.
         11    1    4    4    0    0  0.63207357832E+02 -0.23935555616E+03  0.40167774548E+02  0.25079813089E+03  0.00000000000E+00 0.  1.
         21    1    1    2  503  502 -0.34927565841E+02  0.28287121963E+01  0.34906735708E+01  0.35215355603E+02  0.00000000000E+00 0.  1.
          1    1    1    2  501    0 -0.23058347352E+03  0.17553020529E+03  0.17249905280E+02  0.29030527116E+03  0.00000000000E+00 0. -1.
<scales pt_clust_5="13000.00000" pt_clust_6="13000.00000" pt_clust_7="13000.00000" pt_clust_8="13000.00000" pt_clust_9="35.04192" pt_clust_10="13000.00000"></scales>
<clustering>
<clus scale="   35.042">  2  9  1 -1</clus>
<clus scale="   79.178">  5  6 -1 -1</clus>
<clus scale="   91.291">  7  8 -1 -1</clus>
<clus scale="  256.989">  1  5  2 -1</clus>
<clus scale="  303.523">  7 10 -1 -1</clus>
<clus scale="   35.042">  2  5  1 -1</clus>
</clustering>
</event>
<event>
10    4  0.2866397E-005  0.2560406E+03  0.7546771E-02  0.1145193E+00
          2   -1    0    0  503    0 -0.00000000000E+00  0.00000000000E+00  0.44468696484E+03  0.44468696484E+03  0.00000000000E+00 0. -1.
         21   -1    0    0  501  502  0.00000000000E+00 -0.00000000000E+00 -0.10553630769E+03  0.10553630769E+03  0.00000000000E+00 0. -1.
         24    2    1    2    0    0  0.19004774688E+02  0.86907261382E+02  0.55322356380E+02  0.13282578288E+03  0.81658263147E+02 0.  0.
         23    2    1    2    0    0  0.46582001493E+02  0.56028298078E+02  0.19250641852E+03  0.22582162230E+03  0.92885041196E+02 0.  0.
        -13    1    3    3    0    0 -0.29732770119E+02  0.30039619322E+02  0.49226608684E+01  0.42551720741E+02  0.00000000000E+00 0.  1.
         14    1    3    3    0    0  0.48737544807E+02  0.56867642060E+02  0.50399695512E+02  0.90274062138E+02  0.00000000000E+00 0. -1.
        -13    1    4    4    0    0  0.40860956735E+02 -0.95916976577E+00  0.14727388747E+03  0.15284022940E+03  0.00000000000E+00 0.  1.
         13    1    4    4    0    0  0.57210447575E+01  0.56987467843E+02  0.45232531043E+02  0.72981392895E+02  0.00000000000E+00 0. -1.
         21    1    1    2  503  502  0.62893120476E+01 -0.52466844480E+02  0.30071502948E+02  0.60799839681E+02  0.00000000000E+00 0.  1.
          1    1    1    2  501    0 -0.71876088228E+02 -0.90468714980E+02  0.61250379303E+02  0.13077602767E+03  0.00000000000E+00 0. -1.
<scales pt_clust_5="13000.00000" pt_clust_6="13000.00000" pt_clust_7="13000.00000" pt_clust_8="13000.00000" pt_clust_9="52.84246" pt_clust_10="13000.00000"></scales>
<clustering>
<clus scale="   52.842">  2  9  1 -1</clus>
<clus scale="   81.658">  5  6 -1 -1</clus>
<clus scale="   92.885">  7  8 -1 -1</clus>
<clus scale="  106.214">  1  5  2 -1</clus>
<clus scale="  104.840">  7 10 -1 -1</clus>
<clus scale="   52.842">  2  5  1 -1</clus>
</clustering>
</event>
<event>
10    4  0.2866397E-005  0.7802261E+03  0.7546771E-02  0.9719945E-01
          2   -1    0    0  502    0 -0.00000000000E+00  0.00000000000E+00  0.26946791963E+04  0.26946791963E+04  0.00000000000E+00 0. -1.
         21   -1    0    0  503  502  0.00000000000E+00 -0.00000000000E+00 -0.20647805977E+03  0.20647805977E+03  0.00000000000E+00 0.  1.
         24    2    1    2    0    0 -0.34563212954E+03  0.31763120799E+03  0.33291047204E+03  0.58130280713E+03  0.82051312728E+02 0.  0.
         23    2    1    2    0    0  0.48452223381E+02  0.13799910884E+03  0.26085037666E+03  0.31295306116E+03  0.92224332416E+02 0.  0.
        -11    1    3    3    0    0 -0.24139553517E+03  0.21988150700E+03  0.18349347477E+03  0.37455244867E+03  0.00000000000E+00 0.  1.
         12    1    3    3    0    0 -0.10423659437E+03  0.97749700990E+02  0.14941699727E+03  0.20675035846E+03  0.00000000000E+00 0. -1.
        -13    1    4    4    0    0  0.71263254155E+02  0.81404224338E+02  0.13428014487E+03  0.17244203791E+03  0.00000000000E+00 0.  1.
         13    1    4    4    0    0 -0.22811030774E+02  0.56594884503E+02  0.12657023179E+03  0.14051102324E+03  0.00000000000E+00 0. -1.
         21    1    1    2  503  501 -0.18788820126E+02  0.36826480576E+02  0.25644638409E+02  0.48650353673E+02  0.00000000000E+00 0.  1.
          1    1    1    2  501    0  0.31596872629E+03 -0.49245679741E+03  0.18687956494E+04  0.19582510341E+04  0.00000000000E+00 0. -1.
<scales pt_clust_5="13000.00000" pt_clust_6="13000.00000" pt_clust_7="13000.00000" pt_clust_8="13000.00000" pt_clust_9="41.34259" pt_clust_10="13000.00000"></scales>
<clustering>
<clus scale="   41.343">  2  9  1 -1</clus>
<clus scale="   82.051">  5  6 -1 -1</clus>
<clus scale="   92.224">  7  8 -1 -1</clus>
<clus scale="  500.952">  1  5  2 -1</clus>
<clus scale="  191.241">  7 10 -1 -1</clus>
<clus scale="   41.343">  2  5  1 -1</clus>
</clustering>
</event>
<event>
10    4  0.2866397E-005  0.2637127E+03  0.7546771E-02  0.1131958E+00
         21   -1    0    0  503  502  0.00000000000E+00  0.00000000000E+00  0.13529558073E+03  0.13529558073E+03  0.00000000000E+00 0. -1.
          2   -1    0    0  502    0 -0.00000000000E+00 -0.00000000000E+00 -0.65270421527E+03  0.65270421527E+03  0.00000000000E+00 0. -1.
         24    2    1    2    0    0  0.23545877095E+02 -0.10234828667E+03 -0.13416976739E+03  0.18890581979E+03  0.81573906093E+02 0.  0.
         23    2    1    2    0    0 -0.68562019015E+02 -0.10481052394E+02 -0.26512634663E+03  0.28864784023E+03  0.90636599017E+02 0.  0.
        -11    1    3    3    0    0  0.45413192388E+02 -0.52351703407E+02 -0.10815005835E+03  0.12845035623E+03  0.00000000000E+00 0.  1.
         12    1    3    3    0    0 -0.21867315293E+02 -0.49996583263E+02 -0.26019709038E+02  0.60455463562E+02  0.00000000000E+00 0. -1.
        -13    1    4    4    0    0  0.87011716249E+01 -0.32276969498E+02 -0.89652856866E+02  0.95682537027E+02  0.00000000000E+00 0.  1.
         13    1    4    4    0    0 -0.77263190640E+02  0.21795917104E+02 -0.17547348976E+03  0.19296530320E+03  0.00000000000E+00 0. -1.
         21    1    1    2  503  501 -0.32314541245E+02 -0.78346111606E+01  0.67912815905E+02  0.75615879761E+02  0.00000000000E+00 0. -1.
          1    1    1    2  501    0  0.77330683166E+02  0.12066395022E+03 -0.18602533643E+03  0.23483025622E+03  0.00000000000E+00 0. -1.
<scales pt_clust_5="13000.00000" pt_clust_6="13000.00000" pt_clust_7="13000.00000" pt_clust_8="13000.00000" pt_clust_9="33.25072" pt_clust_10="13000.00000"></scales>
<clustering>
<clus scale="   33.251">  1  9  2 -1</clus>
<clus scale="   81.574">  5  6 -1 -1</clus>
<clus scale="   90.637">  7  8 -1 -1</clus>
<clus scale="  133.882">  2  5  1 -1</clus>
<clus scale="  103.068">  7 10 -1 -1</clus>
<clus scale="   33.251">  1  5  2 -1</clus>
</clustering>
</event>
<event>
10    4  0.2866397E-005  0.4159387E+03  0.7546771E-02  0.1055567E+00
         -3   -1    0    0    0  501 -0.00000000000E+00  0.00000000000E+00  0.70057730179E+03  0.70057730179E+03  0.00000000000E+00 0.  1.
         21   -1    0    0  501  502  0.00000000000E+00 -0.00000000000E+00 -0.19647044187E+03  0.19647044187E+03  0.00000000000E+00 0.  1.
         24    2    1    2    0    0  0.36103221475E+02  0.23008677997E+03  0.19540667333E+03  0.31471241884E+03  0.81343528775E+02 0.  0.
         23    2    1    2    0    0  0.12395144588E+03 -0.20644720996E+03  0.26692479097E+03  0.37084600143E+03  0.91068662629E+02 0.  0.
        -11    1    3    3    0    0  0.99487635601E+01  0.21394005538E+03  0.18247658421E+03  0.28136636078E+03  0.00000000000E+00 0.  1.
         12    1    3    3    0    0  0.26154457915E+02  0.16146724592E+02  0.12930089121E+02  0.33346058066E+02  0.00000000000E+00 0. -1.
        -13    1    4    4    0    0  0.51010251913E+02 -0.12025436937E+03  0.20211962192E+03  0.24065639555E+03  0.00000000000E+00 0.  1.
         13    1    4    4    0    0  0.72941193963E+02 -0.86192840593E+02  0.64805169043E+02  0.13018960589E+03  0.00000000000E+00 0. -1.
         21    1    1    2  503  502 -0.11052498491E+02  0.23014682241E+02 -0.30214360418E+02  0.39556805951E+02  0.00000000000E+00 0.  1.
         -4    1    1    2    0  503 -0.14900216886E+03 -0.46654252253E+02  0.71989756039E+02  0.17193251744E+03  0.00000000000E+00 0.  1.
<scales pt_clust_5="13000.00000" pt_clust_6="13000.00000" pt_clust_7="13000.00000" pt_clust_8="13000.00000" pt_clust_9="25.53103" pt_clust_10="13000.00000"></scales>
<clustering>
<clus scale="   25.531">  2  9  1 -1</clus>
<clus scale="   81.344">  5  6 -1 -1</clus>
<clus scale="   91.069">  7  8 -1 -1</clus>
<clus scale="  157.465">  7 10 -1 -1</clus>
<clus scale="  254.095">  1  5  2 -1</clus>
<clus scale="   25.531">  2  5  1 -1</clus>
</clustering>
</event>
<event>
10    4  0.2866397E-005  0.1800755E+03  0.7546771E-02  0.1189517E+00
          2   -1    0    0  502    0 -0.00000000000E+00  0.00000000000E+00  0.43383078308E+03  0.43383078308E+03  0.00000000000E+00 0. -1.
         21   -1    0    0  503  502  0.00000000000E+00 -0.00000000000E+00 -0.31160821647E+03  0.31160821647E+03  0.00000000000E+00 0.  1.
         24    2    1    2    0    0 -0.62807639948E+02 -0.43964639171E+02  0.37420034041E+03  0.39049658333E+03  0.81141836890E+02 0.  0.
         23    2    1    2    0    0  0.74832638831E+01  0.67689445438E+02 -0.10792363961E+03  0.15674555950E+03  0.91015373280E+02 0.  0.
        -11    1    3    3    0    0 -0.40803236773E+02 -0.27781132319E+01  0.58599835625E+02  0.71460218160E+02  0.00000000000E+00 0.  1.
         12    1    3    3    0    0 -0.22004403175E+02 -0.41186525939E+02  0.31560050479E+03  0.31903636517E+03  0.00000000000E+00 0. -1.
        -13    1    4    4    0    0  0.41212292882E+02  0.22230823580E+02 -0.82129335370E+02  0.94540416383E+02  0.00000000000E+00 0.  1.
         13    1    4    4    0    0 -0.33729028999E+02  0.45458621858E+02 -0.25794304238E+02  0.62205143112E+02  0.00000000000E+00 0. -1.
         21    1    1    2  503  501  0.41046336402E+02  0.10269163158E+02 -0.15424551010E+03  0.15994353638E+03  0.00000000000E+00 0.  1.
          1    1    1    2  501    0  0.14278039663E+02 -0.33993969425E+02  0.10191375911E+02  0.38253320338E+02  0.00000000000E+00 0. -1.
<scales pt_clust_5="13000.00000" pt_clust_6="13000.00000" pt_clust_7="13000.00000" pt_clust_8="13000.00000" pt_clust_9="42.31143" pt_clust_10="13000.00000"></scales>
<clustering>
<clus scale="   42.311">  2  9  1 -1</clus>
<clus scale="   81.142">  5  6 -1 -1</clus>
<clus scale="   91.015">  7  8 -1 -1</clus>
<clus scale="   37.646">  7 10 -1 -1</clus>
<clus scale="  110.214">  1  5  2 -1</clus>
<clus scale="   42.311">  2  5  1 -1</clus>
</clustering>
</event>
<event>
10    4  0.2866397E-005  0.6597016E+03  0.7546771E-02  0.1027200E+00
          4   -1    0    0  502    0 -0.00000000000E+00  0.00000000000E+00  0.16317433368E+04  0.16317433368E+04  0.00000000000E+00 0. -1.
         21   -1    0    0  503  502  0.00000000000E+00 -0.00000000000E+00 -0.13238051764E+03  0.13238051764E+03  0.00000000000E+00 0. -1.
         24    2    1    2    0    0  0.11301063134E+03 -0.36909253784E+02  0.28010548344E+03  0.31436080399E+03  0.78929952653E+02 0.  0.
         23    2    1    2    0    0 -0.23365637094E+02 -0.14126284230E+03  0.94325492439E+01  0.17182565289E+03  0.94519513291E+02 0.  0.
        -13    1    3    3    0    0  0.27696754917E+02 -0.62712092063E+00  0.11129001953E+02  0.29855622553E+02  0.00000000000E+00 0.  1.
         14    1    3    3    0    0  0.85313876426E+02 -0.36282132864E+02  0.26897648148E+03  0.28450518144E+03  0.00000000000E+00 0. -1.
        -11    1    4    4    0    0 -0.55503376601E+02 -0.53549977179E+02  0.13613673459E+02  0.78317028640E+02  0.00000000000E+00 0. -1.
         11    1    4    4    0    0  0.32137739508E+02 -0.87712865123E+02 -0.41811242152E+01  0.93508624246E+02  0.00000000000E+00 0.  1.
         21    1    1    2  503  501  0.37024115853E+02  0.71845676846E+02  0.29433260476E+02  0.86016877753E+02  0.00000000000E+00 0. -1.
          3    1    1    2  501    0 -0.12666911010E+03  0.10632641924E+03  0.11803915260E+04  0.11919205198E+04  0.00000000000E+00 0. -1.
<scales pt_clust_5="13000.00000" pt_clust_6="13000.00000" pt_clust_7="13000.00000" pt_clust_8="13000.00000" pt_clust_9="80.82442" pt_clust_10="13000.00000"></scales>
<clustering>
<clus scale="   78.930">  5  6 -1 -1</clus>
<clus scale="   80.824">  2  9  1 -1</clus>
<clus scale="   94.520">  7  8 -1 -1</clus>
<clus scale="  145.068">  1  5  2 -1</clus>
<clus scale="   88.627">  7 10 -1 -1</clus>
<clus scale="   80.824">  2  5  1 -1</clus>
</clustering>
</event>
<event>
10    4  0.2866397E-005  0.1384306E+03  0.7546771E-02  0.1236894E+00
          2   -1    0    0  502    0 -0.00000000000E+00  0.00000000000E+00  0.21349573029E+04  0.21349573029E+04  0.00000000000E+00 0. -1.
         21   -1    0    0  503  502  0.00000000000E+00 -0.00000000000E+00 -0.21981991671E+02  0.21981991671E+02  0.00000000000E+00 0.  1.
         24    2    1    2    0    0 -0.26429404264E+02 -0.76497871501E+01  0.13996833510E+04  0.14024139256E+04  0.83031939350E+02 0.  0.
         23    2    1    2    0    0  0.43252835999E+02  0.72016676486E+02  0.58155433800E+03  0.59449918762E+03  0.90369389301E+02 0.  0.
        -13    1    3    3    0    0  0.42774928613E+01 -0.19963258495E+02  0.88944589491E+02  0.91257704522E+02  0.00000000000E+00 0.  1.
         14    1    3    3    0    0 -0.30706897125E+02  0.12313471345E+02  0.13107387615E+04  0.13111562210E+04  0.00000000000E+00 0. -1.
        -13    1    4    4    0    0  0.70315253655E+02  0.49550302771E+02  0.45930487767E+03  0.46729052853E+03  0.00000000000E+00 0.  1.
         13    1    4    4    0    0 -0.27062417657E+02  0.22466373716E+02  0.12224946033E+03  0.12720865909E+03  0.00000000000E+00 0. -1.
         21    1    1    2  503  501 -0.98950926306E+01 -0.40885700852E+02  0.21768338909E+02  0.47364691187E+02  0.00000000000E+00 0.  1.
          1    1    1    2  501    0 -0.69283391041E+01 -0.23481188484E+02  0.10996928333E+03  0.11266149018E+03  0.00000000000E+00 0. -1.
<scales pt_clust_5="13000.00000" pt_clust_6="13000.00000" pt_clust_7="13000.00000" pt_clust_8="13000.00000" pt_clust_9="42.06606" pt_clust_10="13000.00000"></scales>
<clustering>
<clus scale="   42.066">  2  9  1 -1</clus>
<clus scale="   83.032">  5  6 -1 -1</clus>
<clus scale="   88.663">  1  5  2 -1</clus>
<clus scale="   90.369">  7  8 -1 -1</clus>
<clus scale="   37.088">  7 10 -1 -1</clus>
<clus scale="   42.066">  2  5  1 -1</clus>
</clustering>
</event>
<event>
10    4  0.2866397E-005  0.4794015E+03  0.7546771E-02  0.1076818E+00
         21   -1    0    0  501  502  0.00000000000E+00  0.00000000000E+00  0.89582183106E+02  0.89582183106E+02  0.00000000000E+00 0. -1.
          2   -1    0    0  503    0 -0.00000000000E+00 -0.00000000000E+00 -0.12404052290E+04  0.12404052290E+04  0.00000000000E+00 0. -1.
         24    2    1    2    0    0 -0.24889444897E+02  0.40141623692E+02 -0.14175193296E+03  0.16887299806E+03  0.78699711280E+02 0.  0.
         23    2    1    2    0    0  0.12100395106E+03  0.14487063535E+03 -0.26656503619E+03  0.33912067686E+03  0.91194614975E+02 0.  0.
        -13    1    3    3    0    0 -0.27161552628E+02  0.30961622566E+02 -0.15047338564E+03  0.15600837093E+03  0.00000000000E+00 0.  1.
         14    1    3    3    0    0  0.22721077310E+01  0.91800011258E+01  0.87214526850E+01  0.12864627128E+02  0.00000000000E+00 0. -1.
        -13    1    4    4    0    0  0.32970071993E+02  0.12675539532E+02 -0.11224023227E+03  0.11766717763E+03  0.00000000000E+00 0.  1.
         13    1    4    4    0    0  0.88033879070E+02  0.13219509581E+03 -0.15432480391E+03  0.22145349924E+03  0.00000000000E+00 0. -1.
         21    1    1    2  503  502  0.19064239532E+02  0.15029253009E+02  0.16044665267E+02  0.29099054254E+02  0.00000000000E+00 0. -1.
          1    1    1    2  501    0 -0.11517874570E+03 -0.20004151205E+03 -0.75855074198E+03  0.79289468289E+03  0.00000000000E+00 0. -1.
<scales pt_clust_5="13000.00000" pt_clust_6="13000.00000" pt_clust_7="13000.00000" pt_clust_8="13000.00000" pt_clust_9="24.27599" pt_clust_10="13000.00000"></scales>
<clustering>
<clus scale="   24.276">  1  9  2 -1</clus>
<clus scale="   78.700">  5  6 -1 -1</clus>
<clus scale="   91.195">  7  8 -1 -1</clus>
<clus scale="   92.200">  2  5  1 -1</clus>
<clus scale="  208.142">  7 10 -1 -1</clus>
<clus scale="   24.276">  1  5  2 -1</clus>
</clustering>
</event>
<event>
10    4  0.2866397E-005  0.2383625E+03  0.7546771E-02  0.1141943E+00
          2   -1    0    0  502    0 -0.00000000000E+00  0.00000000000E+00  0.27963782214E+03  0.27963782214E+03  0.00000000000E+00 0. -1.
         21   -1    0    0  503  502  0.00000000000E+00 -0.00000000000E+00 -0.32258574439E+03  0.32258574439E+03  0.00000000000E+00 0. -1.
         24    2    1    2    0    0  0.76438685900E+02  0.59458335307E+02 -0.10759622174E+03  0.16556483438E+03  0.80352978233E+02 0.  0.
         23    2    1    2    0    0 -0.50230956710E+01 -0.96817240993E+02  0.42170798519E+02  0.14063642050E+03  0.92743823937E+02 0.  0.
        -13    1    3    3    0    0  0.31542191648E+02  0.72479724840E+02 -0.69715388948E+02  0.10539665945E+03  0.00000000000E+00 0.  1.
         14    1    3    3    0    0  0.44896494251E+02 -0.13021389533E+02 -0.37880832795E+02  0.60168174932E+02  0.00000000000E+00 0. -1.
        -13    1    4    4    0    0  0.29400487638E+02 -0.44254808208E+02 -0.15505051689E+02  0.55346936236E+02  0.00000000000E+00 0.  1.
         13    1    4    4    0    0 -0.34423583309E+02 -0.52562432784E+02  0.57675850207E+02  0.85289484259E+02  0.00000000000E+00 0. -1.
         21    1    1    2  503  501  0.90145332702E+01  0.34355002916E+02 -0.12394668939E+03  0.12893529325E+03  0.00000000000E+00 0. -1.
          1    1    1    2  501    0 -0.80430123499E+02  0.30039027698E+01  0.14642419036E+03  0.16708701841E+03  0.00000000000E+00 0. -1.
<scales pt_clust_5="13000.00000" pt_clust_6="13000.00000" pt_clust_7="13000.00000" pt_clust_8="13000.00000" pt_clust_9="35.51800" pt_clust_10="13000.00000"></scales>
<clustering>
<clus scale="   35.518">  2  9  1 -1</clus>
<clus scale="   80.353">  5  6 -1 -1</clus>
<clus scale="   92.744">  7  8 -1 -1</clus>
<clus scale="   80.100">  7 10 -1 -1</clus>
<clus scale="  142.305">  1  5  2 -1</clus>
<clus scale="   35.518">  2  5  1 -1</clus>
</clustering>
</event>
<event>
10    4  0.2866397E-005  0.4337103E+03  0.7546771E-02  0.1080648E+00
         21   -1    0    0  501  502  0.00000000000E+00  0.00000000000E+00  0.14381673428E+03  0.14381673428E+03  0.00000000000E+00 0. -1.
          2   -1    0    0  503    0 -0.00000000000E+00 -0.00000000000E+00 -0.20509224152E+04  0.20509224152E+04  0.00000000000E+00 0. -1.
         24    2    1    2    0    0  0.35308877300E+02  0.70243008118E+02 -0.92497189285E+03  0.93176216722E+03  0.80168177482E+02 0.  0.
         23    2    1    2    0    0  0.21967294698E+03  0.45547688685E+02 -0.12278528141E+03  0.27196230157E+03  0.92501203062E+02 0.  0.
        -11    1    3    3    0    0 -0.13903817590E+01  0.34334193405E+02 -0.11157911093E+03  0.11675045179E+03  0.00000000000E+00 0.  1.
         12    1    3    3    0    0  0.36699259058E+02  0.35908814712E+02 -0.81339278193E+03  0.81501171542E+03  0.00000000000E+00 0. -1.
        -11    1    4    4    0    0  0.25258510619E+02  0.11411128067E+02  0.14736936717E+02  0.31390818821E+02  0.00000000000E+00 0.  1.
         11    1    4    4    0    0  0.19441443636E+03  0.34136560618E+02 -0.13752221812E+03  0.24057148275E+03  0.00000000000E+00 0. -1.
         21    1    1    2  503  502 -0.31336581116E+03  0.43862962253E+02 -0.63567431696E+03  0.71007318518E+03  0.00000000000E+00 0. -1.
          1    1    1    2  501    0  0.58383986879E+02 -0.15965365906E+03 -0.22367418974E+03  0.28094149556E+03  0.00000000000E+00 0. -1.
<scales pt_clust_5="13000.00000" pt_clust_6="13000.00000" pt_clust_7="13000.00000" pt_clust_8="13000.00000" pt_clust_9="304.58506" pt_clust_10="13000.00000"></scales>
<clustering>
<clus scale="   80.168">  5  6 -1 -1</clus>
<clus scale="   92.501">  7  8 -1 -1</clus>
<clus scale="  112.284">  2  5  1 -1</clus>
<clus scale="  158.416">  7 10 -1 -1</clus>
<clus scale="  304.585">  1  9  2 -1</clus>
<clus scale="  304.585">  1  5  2 -1</clus>
</clustering>
</event>
<event>
10    4  0.2866397E-005  0.2969374E+03  0.7546771E-02  0.1109981E+00
         -3   -1    0    0    0  501 -0.00000000000E+00  0.00000000000E+00  0.23280847993E+03  0.23280847993E+03  0.00000000000E+00 0.  1.
         21   -1    0    0  503  502  0.00000000000E+00 -0.00000000000E+00 -0.44026314608E+03  0.44026314608E+03  0.00000000000E+00 0.  1.
         24    2    1    2    0    0 -0.82424504413E+02 -0.15244800145E+03 -0.14242639798E+02  0.19424041577E+03  0.86558039805E+02 0.  0.
         23    2    1    2    0    0  0.85572778505E+02  0.12482591133E+03 -0.76976099458E+02  0.18835083718E+03  0.81526127208E+02 0.  0.
        -11    1    3    3    0    0 -0.10651735256E+02 -0.93105196654E+02  0.18504985728E+02  0.95522100086E+02  0.00000000000E+00 0.  1.
         12    1    3    3    0    0 -0.71772769157E+02 -0.59342804800E+02 -0.32747625525E+02  0.98718315684E+02  0.00000000000E+00 0. -1.
        -13    1    4    4    0    0  0.92899251845E+02  0.92313150059E+02 -0.82187031181E+02  0.15461790570E+03  0.00000000000E+00 0.  1.
         13    1    4    4    0    0 -0.73264733406E+01  0.32512761267E+02  0.52109317233E+01  0.33732931480E+02  0.00000000000E+00 0. -1.
         21    1    1    2  503  501  0.51536517176E+01  0.10048693941E+03 -0.17137359414E+03  0.19872869417E+03  0.00000000000E+00 0.  1.
         -4    1    1    2    0  502 -0.83019258088E+01 -0.72864849278E+02  0.55137667241E+02  0.91751678902E+02  0.00000000000E+00 0.  1.
<scales pt_clust_5="13000.00000" pt_clust_6="13000.00000" pt_clust_7="13000.00000" pt_clust_8="13000.00000" pt_clust_9="100.61901" pt_clust_10="13000.00000"></scales>
<clustering>
<clus scale="   81.526">  7  8 -1 -1</clus>
<clus scale="   73.336">  7 10 -1 -1</clus>
<clus scale="   86.558">  5  6 -1 -1</clus>
<clus scale="  100.619">  2  9  1 -1</clus>
<clus scale="  162.340">  1  5  2 -1</clus>
<clus scale="  100.619">  2  5  1 -1</clus>
</clustering>
</event>
<event>
10    4  0.2866397E-005  0.3458072E+03  0.7546771E-02  0.1114045E+00
         21   -1    0    0  501  502  0.00000000000E+00  0.00000000000E+00  0.52524685708E+02  0.52524685708E+02  0.00000000000E+00 0.  1.
          2   -1    0    0  503    0 -0.00000000000E+00 -0.00000000000E+00 -0.11361129381E+04  0.11361129381E+04  0.00000000000E+00 0. -1.
         24    2    1    2    0    0 -0.40025305207E+02 -0.37824312751E+02 -0.19565426251E+03  0.21457508189E+03  0.68768972956E+02 0.  0.
         23    2    1    2    0    0  0.10390034612E+03  0.13887985836E+03 -0.28300606081E+03  0.34458916917E+03  0.92554676120E+02 0.  0.
        -13    1    3    3    0    0  0.37428041588E+01 -0.29740449558E+02 -0.27667655075E+02  0.40792181361E+02  0.00000000000E+00 0.  1.
         14    1    3    3    0    0 -0.43768109366E+02 -0.80838631932E+01 -0.16798660743E+03  0.17378290053E+03  0.00000000000E+00 0. -1.
        -13    1    4    4    0    0  0.11782869452E+03  0.12149943702E+03 -0.21874351105E+03  0.27657627895E+03  0.00000000000E+00 0.  1.
         13    1    4    4    0    0 -0.13928348399E+02  0.17380421339E+02 -0.64262549759E+02  0.68012890223E+02  0.00000000000E+00 0. -1.
         21    1    1    2  503  502 -0.33783919679E+02 -0.11916503816E+02 -0.29505149142E+02  0.46410237211E+02  0.00000000000E+00 0.  1.
          1    1    1    2  501    0 -0.30091121233E+02 -0.89139041795E+02 -0.57542277997E+03  0.58306313557E+03  0.00000000000E+00 0. -1.
<scales pt_clust_5="13000.00000" pt_clust_6="13000.00000" pt_clust_7="13000.00000" pt_clust_8="13000.00000" pt_clust_9="35.82396" pt_clust_10="13000.00000"></scales>
<clustering>
<clus scale="   35.824">  1  9  2 -1</clus>
<clus scale="   68.769">  5  6 -1 -1</clus>
<clus scale="   92.555">  7  8 -1 -1</clus>
<clus scale="   92.709">  2  5  1 -1</clus>
<clus scale="  134.500">  7 10 -1 -1</clus>
<clus scale="   35.824">  1  5  2 -1</clus>
</clustering>
</event>
<event>
10    4  0.2866397E-005  0.1491335E+03  0.7546771E-02  0.1218706E+00
         21   -1    0    0  501  502  0.00000000000E+00  0.00000000000E+00  0.15870865616E+03  0.15870865616E+03  0.00000000000E+00 0.  1.
          2   -1    0    0  503    0 -0.00000000000E+00 -0.00000000000E+00 -0.16813255075E+03  0.16813255075E+03  0.00000000000E+00 0. -1.
         24    2    1    2    0    0  0.69575521211E+02 -0.17972879088E+02  0.59574991516E+02  0.12347844964E+03  0.80832978271E+02 0.  0.
         23    2    1    2    0    0 -0.63104713201E+02  0.23625095225E+02 -0.88613230027E+02  0.14671269902E+03  0.95561297423E+02 0.  0.
        -11    1    3    3    0    0  0.80282299433E+02 -0.20248019165E+02  0.23921783006E+02  0.86182838109E+02  0.00000000000E+00 0.  1.
         12    1    3    3    0    0 -0.10706778222E+02  0.22751400769E+01  0.35653208509E+02  0.37295611528E+02  0.00000000000E+00 0. -1.
        -13    1    4    4    0    0 -0.41686330457E+02  0.55869522172E+02 -0.81689292054E+02  0.10738851936E+03  0.00000000000E+00 0. -1.
         13    1    4    4    0    0 -0.21418382745E+02 -0.32244426947E+02 -0.69239379729E+01  0.39324179656E+02  0.00000000000E+00 0.  1.
         21    1    1    2  503  502 -0.21124424770E+02 -0.22382641831E+02  0.13322935187E+02  0.33536913680E+02  0.00000000000E+00 0.  1.
          1    1    1    2  501    0  0.14653616760E+02  0.16730425694E+02  0.62914087343E+01  0.23113144570E+02  0.00000000000E+00 0. -1.
<scales pt_clust_5="13000.00000" pt_clust_6="13000.00000" pt_clust_7="13000.00000" pt_clust_8="13000.00000" pt_clust_9="30.77700" pt_clust_10="13000.00000"></scales>
<clustering>
<clus scale="   30.777">  1  9  2 -1</clus>
<clus scale="   80.833">  5  6 -1 -1</clus>
<clus scale="   95.561">  7  8 -1 -1</clus>
<clus scale="   18.898">  7 10 -1 -1</clus>
<clus scale="  103.378">  2  5  1 -1</clus>
<clus scale="   30.777">  1  5  2 -1</clus>
</clustering>
</event>
<event>
10    4  0.2866397E-005  0.2390150E+03  0.7546771E-02  0.1147205E+00
          2   -1    0    0  503    0 -0.00000000000E+00  0.00000000000E+00  0.59238496758E+03  0.59238496758E+03  0.00000000000E+00 0. -1.
         21   -1    0    0  501  502  0.00000000000E+00 -0.00000000000E+00 -0.15082502240E+03  0.15082502240E+03  0.00000000000E+00 0. -1.
         24    2    1    2    0    0 -0.42196804660E+02 -0.51644457154E+02  0.16641497499E+03  0.20579782788E+03  0.10104989748E+03 0.  0.
         23    2    1    2    0    0 -0.81285010619E+01  0.28363655587E+02  0.30103479368E+02  0.97166874546E+02  0.87547772965E+02 0.  0.
        -13    1    3    3    0    0  0.31457953741E+02 -0.14114161669E+02  0.27313011202E+02  0.43986509228E+02  0.00000000000E+00 0.  1.
         14    1    3    3    0    0 -0.73654758401E+02 -0.37530295485E+02  0.13910196379E+03  0.16181131865E+03  0.00000000000E+00 0. -1.
        -13    1    4    4    0    0 -0.23281011078E+02 -0.12139671572E+02 -0.18493120739E+02  0.32114990540E+02  0.00000000000E+00 0. -1.
         13    1    4    4    0    0  0.15152510016E+02  0.40503327159E+02  0.48596600107E+02  0.65051884006E+02  0.00000000000E+00 0.  1.
         21    1    1    2  503  502  0.98932623933E+01 -0.28061217680E+02 -0.92121442452E+02  0.96807379563E+02  0.00000000000E+00 0. -1.
          1    1    1    2  501    0  0.40432043329E+02  0.51342019247E+02  0.33716293328E+03  0.34343790799E+03  0.00000000000E+00 0. -1.
<scales pt_clust_5="13000.00000" pt_clust_6="13000.00000" pt_clust_7="13000.00000" pt_clust_8="13000.00000" pt_clust_9="29.75414" pt_clust_10="13000.00000"></scales>
<clustering>
<clus scale="   29.754">  2  9  1 -1</clus>
<clus scale="   87.548">  7  8 -1 -1</clus>
<clus scale="   64.480">  7 10 -1 -1</clus>
<clus scale="  101.050">  5  6 -1 -1</clus>
<clus scale="  124.450">  1  5  2 -1</clus>
<clus scale="   29.754">  2  5  1 -1</clus>
</clustering>
</event>
<event>
10    4  0.2866397E-005  0.1899905E+03  0.7546771E-02  0.1192598E+00
          2   -1    0    0  503    0 -0.00000000000E+00  0.00000000000E+00  0.78989463216E+03  0.78989463216E+03  0.00000000000E+00 0. -1.
         21   -1    0    0  501  502  0.00000000000E+00 -0.00000000000E+00 -0.16772959646E+03  0.16772959646E+03  0.00000000000E+00 0. -1.
         24    2    1    2    0    0  0.18920493037E+02  0.40281689628E+01  0.69840814748E+03  0.70390919653E+03  0.85673830920E+02 0.  0.
         23    2    1    2    0    0  0.25662139915E+02  0.90006799555E+02 -0.29984604986E+02  0.13326758451E+03  0.90007794955E+02 0.  0.
        -11    1    3    3    0    0  0.10954396255E+02 -0.36292996373E+02  0.18417680713E+03  0.18803796603E+03  0.00000000000E+00 0.  1.
         12    1    3    3    0    0  0.79660967820E+01  0.40321165336E+02  0.51423134035E+03  0.51587123051E+03  0.00000000000E+00 0. -1.
        -13    1    4    4    0    0  0.28320664763E+02 -0.98141347119E+01 -0.59077232433E+01  0.30549606981E+02  0.00000000000E+00 0.  1.
         13    1    4    4    0    0 -0.26585248483E+01  0.99820934267E+02 -0.24076881742E+02  0.10271797752E+03  0.00000000000E+00 0. -1.
         21    1    1    2  503  502 -0.23821522554E+02 -0.35958621281E+02 -0.39350373179E+02  0.58386122072E+02  0.00000000000E+00 0. -1.
          1    1    1    2  501    0 -0.20761110398E+02 -0.58076347236E+02 -0.69081336131E+01  0.62061325504E+02  0.00000000000E+00 0. -1.
<scales pt_clust_5="13000.00000" pt_clust_6="13000.00000" pt_clust_7="13000.00000" pt_clust_8="13000.00000" pt_clust_9="43.13337" pt_clust_10="13000.00000"></scales>
<clustering>
<clus scale="   43.133">  2  9  1 -1</clus>
<clus scale="   85.674">  5  6 -1 -1</clus>
<clus scale="   87.679">  1  5  2 -1</clus>
<clus scale="   90.008">  7  8 -1 -1</clus>
<clus scale="   69.621">  7 10 -1 -1</clus>
<clus scale="   43.133">  2  5  1 -1</clus>
</clustering>
</event>
<event>
10    4  0.2866397E-005  0.4298579E+03  0.7546771E-02  0.1039208E+00
         21   -1    0    0  501  502  0.00000000000E+00  0.00000000000E+00  0.17187635399E+03  0.17187635399E+03  0.00000000000E+00 0. -1.
          2   -1    0    0  503    0 -0.00000000000E+00 -0.00000000000E+00 -0.10674692225E+04  0.10674692225E+04  0.00000000000E+00 0. -1.
         24    2    1    2    0    0  0.18448175744E+03  0.30125731785E+03 -0.43921490341E+03  0.56937369191E+03  0.80543027432E+02 0.  0.
         23    2    1    2    0    0 -0.22531175364E+03 -0.14897412461E+03 -0.35799696633E+03  0.45667807738E+03  0.86222748304E+02 0.  0.
        -11    1    3    3    0    0  0.10528629702E+03  0.10569443815E+03 -0.21284826185E+03  0.25992479906E+03  0.00000000000E+00 0.  1.
         12    1    3    3    0    0  0.79195460422E+02  0.19556287971E+03 -0.22636664157E+03  0.30944889285E+03  0.00000000000E+00 0. -1.
        -13    1    4    4    0    0 -0.41259586315E+02 -0.27061232180E+02 -0.13121060605E+03  0.14018162108E+03  0.00000000000E+00 0.  1.
         13    1    4    4    0    0 -0.18405216732E+03 -0.12191289243E+03 -0.22678636029E+03  0.31649645630E+03  0.00000000000E+00 0. -1.
         21    1    1    2  503  502  0.36223485814E+02 -0.69448190127E+01  0.14497885297E+01  0.36911696282E+02  0.00000000000E+00 0. -1.
          1    1    1    2  501    0  0.46065103835E+01 -0.14533837423E+03 -0.99830787280E+02  0.17638211091E+03  0.00000000000E+00 0. -1.
<scales pt_clust_5="13000.00000" pt_clust_6="13000.00000" pt_clust_7="13000.00000" pt_clust_8="13000.00000" pt_clust_9="36.88321" pt_clust_10="13000.00000"></scales>
<clustering>
<clus scale="   36.883">  1  9  2 -1</clus>
<clus scale="   80.543">  5  6 -1 -1</clus>
<clus scale="   86.223">  7  8 -1 -1</clus>
<clus scale="  147.715">  7 10 -1 -1</clus>
<clus scale="  368.017">  2  5  1 -1</clus>
<clus scale="   36.883">  1  5  2 -1</clus>
</clustering>
</event>
<event>
10    4  0.2866397E-005  0.1259182E+03  0.7546771E-02  0.1251627E+00
          2   -1    0    0  503    0 -0.00000000000E+00  0.00000000000E+00  0.40410421123E+03  0.40410421123E+03  0.00000000000E+00 0. -1.
         21   -1    0    0  501  502  0.00000000000E+00 -0.00000000000E+00 -0.72841661563E+02  0.72841661563E+02  0.00000000000E+00 0. -1.
         24    2    1    2    0    0  0.19843611519E+02  0.38202903867E+02  0.19646297142E+03  0.21631135934E+03  0.79622071423E+02 0.  0.
         23    2    1    2    0    0 -0.26978721131E+02 -0.21334245677E+01  0.15120092499E+03  0.17466540539E+03  0.83149751830E+02 0.  0.
        -13    1    3    3    0    0 -0.28498800256E+02  0.25710744933E+02  0.62488113154E+02  0.73334768742E+02  0.00000000000E+00 0.  1.
         14    1    3    3    0    0  0.48342411774E+02  0.12492158934E+02  0.13397485826E+03  0.14297659059E+03  0.00000000000E+00 0. -1.
        -13    1    4    4    0    0  0.22595478860E+01  0.35315137860E+02  0.93184520378E+02  0.99677577001E+02  0.00000000000E+00 0. -1.
         13    1    4    4    0    0 -0.29238269017E+02 -0.37448562427E+02  0.58016404611E+02  0.74987828392E+02  0.00000000000E+00 0.  1.
         21    1    1    2  503  502 -0.15590732812E+02 -0.14470370209E+02 -0.40952790903E+02  0.46147520479E+02  0.00000000000E+00 0. -1.
          1    1    1    2  501    0  0.22725842425E+02 -0.21599109091E+02  0.24551444167E+02  0.39821587589E+02  0.00000000000E+00 0. -1.
<scales pt_clust_5="13000.00000" pt_clust_6="13000.00000" pt_clust_7="13000.00000" pt_clust_8="13000.00000" pt_clust_9="21.27117" pt_clust_10="13000.00000"></scales>
<clustering>
<clus scale="   21.271">  2  9  1 -1</clus>
<clus scale="   79.622">  5  6 -1 -1</clus>
<clus scale="   83.150">  7  8 -1 -1</clus>
<clus scale="   31.495">  7 10 -1 -1</clus>
<clus scale="   87.525">  1  5  2 -1</clus>
<clus scale="   21.271">  2  5  1 -1</clus>
</clustering>
</event>
<event>
10    4  0.2866397E-005  0.1672988E+03  0.7546771E-02  0.1190156E+00
         21   -1    0    0  503  502  0.00000000000E+00  0.00000000000E+00  0.46353296048E+03  0.46353296048E+03  0.00000000000E+00 0. -1.
          2   -1    0    0  502    0 -0.00000000000E+00 -0.00000000000E+00 -0.10103288204E+03  0.10103288204E+03  0.00000000000E+00 0. -1.
         24    2    1    2    0    0 -0.13734541673E+03 -0.34886333740E+02  0.30833186721E+03  0.34733958110E+03  0.74131130303E+02 0.  0.
         23    2    1    2    0    0  0.40327361851E+02  0.14629552619E+02  0.30546234892E+01  0.98829133447E+02  0.88980598838E+02 0.  0.
        -13    1    3    3    0    0 -0.75281434288E+02 -0.41734966384E+02  0.11161298314E+03  0.14094878422E+03  0.00000000000E+00 0.  1.
         14    1    3    3    0    0 -0.62063982440E+02  0.68486326432E+01  0.19671888407E+03  0.20639079688E+03  0.00000000000E+00 0. -1.
        -11    1    4    4    0    0  0.31354818833E+02  0.50951367560E+02 -0.66021757189E+01  0.60189328327E+02  0.00000000000E+00 0.  1.
         11    1    4    4    0    0  0.89725430177E+01 -0.36321814941E+02  0.96567992081E+01  0.38639805120E+02  0.00000000000E+00 0. -1.
         21    1    1    2  503  501  0.35557800901E+02  0.58081348879E+01  0.40788994204E+02  0.54422731316E+02  0.00000000000E+00 0. -1.
          1    1    1    2  501    0  0.61460253977E+02  0.14448646233E+02  0.10324593534E+02  0.63974396664E+02  0.00000000000E+00 0. -1.
<scales pt_clust_5="13000.00000" pt_clust_6="13000.00000" pt_clust_7="13000.00000" pt_clust_8="13000.00000" pt_clust_9="36.02904" pt_clust_10="13000.00000"></scales>
<clustering>
<clus scale="   36.029">  1  9  2 -1</clus>
<clus scale="   74.131">  5  6 -1 -1</clus>
<clus scale="   88.981">  7  8 -1 -1</clus>
<clus scale="   66.347">  7 10 -1 -1</clus>
<clus scale="  135.516">  2  5  1 -1</clus>
<clus scale="   36.029">  1  5  2 -1</clus>
</clustering>
</event>
<event>
10    4  0.2866397E-005  0.1788842E+03  0.7546771E-02  0.1187292E+00
         -1   -1    0    0    0  501 -0.00000000000E+00  0.00000000000E+00  0.12208425524E+03  0.12208425524E+03  0.00000000000E+00 0.  1.
         21   -1    0    0  501  502  0.00000000000E+00 -0.00000000000E+00 -0.50715701223E+03  0.50715701223E+03  0.00000000000E+00 0.  1.
         24    2    1    2    0    0 -0.55495129082E+02  0.60107115699E+02  0.50237000776E+02  0.12597734274E+03  0.81571808410E+02 0.  0.
         23    2    1    2    0    0  0.99676587301E+02 -0.71972536722E+02 -0.33249945864E+03  0.36565047896E+03  0.89604211220E+02 0.  0.
        -13    1    3    3    0    0 -0.64602616464E+02  0.26470255092E+02  0.57422242846E+02  0.90396274437E+02  0.00000000000E+00 0.  1.
         14    1    3    3    0    0  0.91074873826E+01  0.33636860607E+02 -0.71852420701E+01  0.35581068302E+02  0.00000000000E+00 0. -1.
        -11    1    4    4    0    0  0.11263248451E+03 -0.49213819064E+02 -0.29786956735E+03  0.32223338702E+03  0.00000000000E+00 0.  1.
         11    1    4    4    0    0 -0.12955897211E+02 -0.22758717658E+02 -0.34629891288E+02  0.43417091941E+02  0.00000000000E+00 0. -1.
         21    1    1    2  503  502 -0.14173426874E+02  0.44725623094E+02 -0.50353999890E+02  0.68824361206E+02  0.00000000000E+00 0. -1.
         -2    1    1    2    0  503 -0.30008031345E+02 -0.32860202071E+02 -0.52456299236E+02  0.68789084562E+02  0.00000000000E+00 0.  1.
<scales pt_clust_5="13000.00000" pt_clust_6="13000.00000" pt_clust_7="13000.00000" pt_clust_8="13000.00000" pt_clust_9="46.91767" pt_clust_10="13000.00000"></scales>
<clustering>
<clus scale="   46.918">  2  9  1 -1</clus>
<clus scale="   81.572">  5  6 -1 -1</clus>
<clus scale="   89.604">  7  8 -1 -1</clus>
<clus scale="   41.686">  7 10 -1 -1</clus>
<clus scale="  118.112">  1  5  2 -1</clus>
<clus scale="   46.918">  2  5  1 -1</clus>
</clustering>
</event>
<event>
10    4  0.2866397E-005  0.3811100E+03  0.7546771E-02  0.1082539E+00
          2   -1    0    0  502    0 -0.00000000000E+00  0.00000000000E+00  0.16846466547E+04  0.16846466547E+04  0.00000000000E+00 0. -1.
         21   -1    0    0  503  502  0.00000000000E+00 -0.00000000000E+00 -0.86907545815E+02  0.86907545815E+02  0.00000000000E+00 0. -1.
         24    2    1    2    0    0 -0.60337110447E+02  0.12041771836E+03  0.10145837181E+04  0.10266344818E+04  0.80356980686E+02 0.  0.
         23    2    1    2    0    0  0.13438428432E+03  0.88484025311E+02  0.34501898693E+03  0.39053553791E+03  0.87128333036E+02 0.  0.
        -13    1    3    3    0    0 -0.12289116971E+02  0.53740653024E+02  0.18635252236E+03  0.19433564463E+03  0.00000000000E+00 0.  1.
         14    1    3    3    0    0 -0.48047993477E+02  0.66677065334E+02  0.82823119573E+03  0.83229883714E+03  0.00000000000E+00 0. -1.
        -13    1    4    4    0    0  0.45647411735E+02 -0.49549158827E+01  0.46294956555E+02  0.65203223785E+02  0.00000000000E+00 0.  1.
         13    1    4    4    0    0  0.88736872581E+02  0.93438941193E+02  0.29872403038E+03  0.32533231412E+03  0.00000000000E+00 0. -1.
         21    1    1    2  503  501 -0.41830258936E+02 -0.15475334889E+02 -0.16449073249E+01  0.44631404556E+02  0.00000000000E+00 0. -1.
          1    1    1    2  501    0 -0.32216914933E+02 -0.19342640878E+03  0.23978131118E+03  0.30975277628E+03  0.00000000000E+00 0. -1.
<scales pt_clust_5="13000.00000" pt_clust_6="13000.00000" pt_clust_7="13000.00000" pt_clust_8="13000.00000" pt_clust_9="44.60108" pt_clust_10="13000.00000"></scales>
<clustering>
<clus scale="   44.601">  2  9  1 -1</clus>
<clus scale="   80.357">  5  6 -1 -1</clus>
<clus scale="   87.128">  7  8 -1 -1</clus>
<clus scale="  157.292">  1  5  2 -1</clus>
<clus scale="  167.333">  7 10 -1 -1</clus>
<clus scale="   44.601">  2  5  1 -1</clus>
</clustering>
</event>
<event>
10    4  0.2866397E-005  0.2541864E+03  0.7546771E-02  0.1125083E+00
         21   -1    0    0  501  502  0.00000000000E+00  0.00000000000E+00  0.33330555347E+03  0.33330555347E+03  0.00000000000E+00 0. -1.
         -1   -1    0    0    0  501 -0.00000000000E+00 -0.00000000000E+00 -0.34375112882E+03  0.34375112882E+03  0.00000000000E+00 0.  1.
         24    2    1    2    0    0 -0.16646041021E+03 -0.11700786729E+03  0.13690907899E+03  0.25885315157E+03  0.82830845646E+02 0.  0.
         23    2    1    2    0    0  0.24617418629E+02  0.13023699119E+03 -0.40238405305E+02  0.16649320893E+03  0.92375149170E+02 0.  0.
        -13    1    3    3    0    0 -0.23477622119E+02  0.86394383979E+01  0.11290234215E+01  0.25042230933E+02  0.00000000000E+00 0.  1.
         14    1    3    3    0    0 -0.14298278810E+03 -0.12564730569E+03  0.13578005557E+03  0.23381092064E+03  0.00000000000E+00 0. -1.
        -11    1    4    4    0    0  0.82479050611E+01  0.40233284652E+02 -0.60185870086E+02  0.72863461967E+02  0.00000000000E+00 0.  1.
         11    1    4    4    0    0  0.16369513568E+02  0.90003706541E+02  0.19947464781E+02  0.93629746965E+02  0.00000000000E+00 0. -1.
         21    1    1    2  503  502  0.10973872497E+03 -0.20107277199E+02  0.26041399449E+02  0.11456458807E+03  0.00000000000E+00 0. -1.
         -2    1    1    2    0  503  0.32104266618E+02  0.68781532985E+01 -0.13315764848E+03  0.13714573372E+03  0.00000000000E+00 0.  1.
<scales pt_clust_5="13000.00000" pt_clust_6="13000.00000" pt_clust_7="13000.00000" pt_clust_8="13000.00000" pt_clust_9="111.56563" pt_clust_10="13000.00000"></scales>
<clustering>
<clus scale="   82.831">  5  6 -1 -1</clus>
<clus scale="   92.375">  7  8 -1 -1</clus>
<clus scale="   32.833">  7 10 -1 -1</clus>
<clus scale="  111.566">  1  9  2 -1</clus>
<clus scale="  177.085">  2  5  1 -1</clus>
<clus scale="  111.566">  1  5  2 -1</clus>
</clustering>
</event>
<event>
10    4  0.2866397E-005  0.6103101E+03  0.7546771E-02  0.1021572E+00
         21   -1    0    0  503  502  0.00000000000E+00  0.00000000000E+00  0.12012236451E+03  0.12012236451E+03  0.00000000000E+00 0. -1.
          2   -1    0    0  502    0 -0.00000000000E+00 -0.00000000000E+00 -0.16607203581E+04  0.16607203581E+04  0.00000000000E+00 0. -1.
         24    2    1    2    0    0  0.13086215958E+03 -0.16358640122E+03 -0.20258310292E+03  0.30209175102E+03  0.79587040237E+02 0.  0.
         23    2    1    2    0    0 -0.11863209612E+03 -0.92208779538E+02 -0.81273959250E+02  0.19411300497E+03  0.92186598762E+02 0.  0.
        -13    1    3    3    0    0  0.40507567379E+02 -0.87712357451E+02 -0.13534668645E+03  0.16629205092E+03  0.00000000000E+00 0.  1.
         14    1    3    3    0    0  0.90354592199E+02 -0.75874043766E+02 -0.67236416466E+02  0.13579970010E+03  0.00000000000E+00 0. -1.
        -13    1    4    4    0    0 -0.17230154931E+02 -0.41902714800E+02 -0.65764869896E+02  0.79860715367E+02  0.00000000000E+00 0.  1.
         13    1    4    4    0    0 -0.10140194119E+03 -0.50306064738E+02 -0.15509089354E+02  0.11425228960E+03  0.00000000000E+00 0. -1.
         21    1    1    2  503  501 -0.13205296332E+01  0.22405855095E+02 -0.41896487992E+02  0.47529799569E+02  0.00000000000E+00 0.  1.
          1    1    1    2  501    0 -0.10909533828E+02  0.23338932566E+03 -0.12148444434E+04  0.12371081670E+04  0.00000000000E+00 0. -1.
<scales pt_clust_5="13000.00000" pt_clust_6="13000.00000" pt_clust_7="13000.00000" pt_clust_8="13000.00000" pt_clust_9="22.44475" pt_clust_10="13000.00000"></scales>
<clustering>
<clus scale="   22.445">  1  9  2 -1</clus>
<clus scale="   79.587">  5  6 -1 -1</clus>
<clus scale="   92.187">  7  8 -1 -1</clus>
<clus scale="  216.920">  2  5  1 -1</clus>
<clus scale="  143.824">  7 10 -1 -1</clus>
<clus scale="   22.445">  1  5  2 -1</clus>
</clustering>
</event>
<event>
10    4  0.2866397E-005  0.1167516E+03  0.7546771E-02  0.1261622E+00
         21   -1    0    0  501  502  0.00000000000E+00  0.00000000000E+00  0.21017332907E+03  0.21017332907E+03  0.00000000000E+00 0.  1.
          2   -1    0    0  503    0 -0.00000000000E+00 -0.00000000000E+00 -0.47543658998E+03  0.47543658998E+03  0.00000000000E+00 0. -1.
         24    2    1    2    0    0 -0.37028141667E+02  0.18356866173E+02 -0.43420204259E+03  0.44338060825E+03  0.79667384581E+02 0.  0.
         23    2    1    2    0    0  0.33370556159E+02 -0.16157452757E+02  0.53464813254E+02  0.11102135596E+03  0.89958867964E+02 0.  0.
        -11    1    3    3    0    0 -0.28746729553E+02  0.16398859787E+02 -0.55752982108E+02  0.64835885713E+02  0.00000000000E+00 0.  1.
         12    1    3    3    0    0 -0.82814121143E+01  0.19580063857E+01 -0.37844906048E+03  0.37854472253E+03  0.00000000000E+00 0. -1.
        -11    1    4    4    0    0  0.61695422285E+02  0.46669518179E-02  0.47514572890E+02  0.77871431152E+02  0.00000000000E+00 0.  1.
         11    1    4    4    0    0 -0.28324866126E+02 -0.16162119709E+02  0.59502403638E+01  0.33149924810E+02  0.00000000000E+00 0. -1.
         21    1    1    2  503  502 -0.12517739131E+02  0.20295750758E+02  0.91540527527E+02  0.94595345931E+02  0.00000000000E+00 0.  1.
          1    1    1    2  501    0  0.16175324640E+02 -0.22495164173E+02  0.23933440894E+02  0.36612608913E+02  0.00000000000E+00 0. -1.
<scales pt_clust_5="13000.00000" pt_clust_6="13000.00000" pt_clust_7="13000.00000" pt_clust_8="13000.00000" pt_clust_9="23.84557" pt_clust_10="13000.00000"></scales>
<clustering>
<clus scale="   23.846">  1  9  2 -1</clus>
<clus scale="   79.667">  5  6 -1 -1</clus>
<clus scale="   89.959">  7  8 -1 -1</clus>
<clus scale="   21.562">  7 10 -1 -1</clus>
<clus scale="   90.119">  2  5  1 -1</clus>
<clus scale="   23.846">  1  5  2 -1</clus>
</clustering>
</event>
<event>
10    4  0.2866397E-005  0.2845065E+03  0.7546771E-02  0.1105766E+00
          2   -1    0    0  502    0 -0.00000000000E+00  0.00000000000E+00  0.45082025709E+03  0.45082025709E+03  0.00000000000E+00 0. -1.
         21   -1    0    0  503  502  0.00000000000E+00 -0.00000000000E+00 -0.31648812599E+03  0.31648812599E+03  0.00000000000E+00 0. -1.
         24    2    1    2    0    0  0.97125663514E+02 -0.13716995760E+03  0.11385756870E+03  0.21857320701E+03  0.81004377003E+02 0.  0.
         23    2    1    2    0    0 -0.91844420917E+02  0.59537487004E+02  0.24270992223E+02  0.15319548008E+03  0.10440145612E+03 0.  0.
        -11    1    3    3    0    0  0.43858930158E+02 -0.84095517497E+02  0.17662590747E+02  0.96476053659E+02  0.00000000000E+00 0.  1.
         12    1    3    3    0    0  0.53266733356E+02 -0.53074440104E+02  0.96194977950E+02  0.12209715336E+03  0.00000000000E+00 0. -1.
        -11    1    4    4    0    0 -0.63852693352E+02  0.87843263722E+02  0.30737987176E+02  0.11286465029E+03  0.00000000000E+00 0.  1.
         11    1    4    4    0    0 -0.27991727565E+02 -0.28305776718E+02 -0.64669949538E+01  0.40330829788E+02  0.00000000000E+00 0. -1.
         21    1    1    2  503  501  0.40735250363E+02 -0.37869856135E+02 -0.17518552871E+03  0.18380276411E+03  0.00000000000E+00 0.  1.
          1    1    1    2  501    0 -0.46016492959E+02  0.11550232673E+03  0.17138909888E+03  0.21173693188E+03  0.00000000000E+00 0. -1.
<scales pt_clust_5="13000.00000" pt_clust_6="13000.00000" pt_clust_7="13000.00000" pt_clust_8="13000.00000" pt_clust_9="55.61912" pt_clust_10="13000.00000"></scales>
<clustering>
<clus scale="   55.619">  2  9  1 -1</clus>
<clus scale="   81.004">  5  6 -1 -1</clus>
<clus scale="  104.401">  7  8 -1 -1</clus>
<clus scale="  116.983">  7 10 -1 -1</clus>
<clus scale="  205.566">  1  5  2 -1</clus>
<clus scale="   55.619">  2  5  1 -1</clus>
</clustering>
</event>
<event>
10    4  0.2866397E-005  0.2766766E+03  0.7546771E-02  0.1145027E+00
          2   -1    0    0  503    0 -0.00000000000E+00  0.00000000000E+00  0.74085934647E+03  0.74085934647E+03  0.00000000000E+00 0. -1.
         21   -1    0    0  501  502  0.00000000000E+00 -0.00000000000E+00 -0.18442421743E+03  0.18442421743E+03  0.00000000000E+00 0. -1.
         24    2    1    2    0    0  0.73840484320E+01 -0.17312622603E+02  0.13472442839E+03  0.15861506953E+03  0.81570936019E+02 0.  0.
         23    2    1    2    0    0 -0.19101443362E+02 -0.86247683853E+02  0.13345899808E+03  0.18548215828E+03  0.93748593405E+02 0.  0.
        -11    1    3    3    0    0  0.30233509022E+02  0.21869228649E+02  0.48550063738E+02  0.61232645856E+02  0.00000000000E+00 0.  1.
         12    1    3    3    0    0 -0.22849460590E+02 -0.39181851252E+02  0.86174364655E+02  0.97382423673E+02  0.00000000000E+00 0. -1.
        -11    1    4    4    0    0  0.16327310798E+02 -0.37969594604E+02  0.11594360849E+03  0.12309017646E+03  0.00000000000E+00 0.  1.
         11    1    4    4    0    0 -0.35428754160E+02 -0.48278089249E+02  0.17515389585E+02  0.62391981818E+02  0.00000000000E+00 0. -1.
         21    1    1    2  503  502  0.20359020793E+02 -0.24768991881E+01 -0.13919551805E+03  0.14069831912E+03  0.00000000000E+00 0. -1.
          1    1    1    2  501    0 -0.86416258634E+01  0.10603720564E+03  0.42744722062E+03  0.44048801697E+03  0.00000000000E+00 0. -1.
<scales pt_clust_5="13000.00000" pt_clust_6="13000.00000" pt_clust_7="13000.00000" pt_clust_8="13000.00000" pt_clust_9="20.50914" pt_clust_10="13000.00000"></scales>
<clustering>
<clus scale="   20.509">  2  9  1 -1</clus>
<clus scale="   81.571">  5  6 -1 -1</clus>
<clus scale="   84.512">  1  5  2 -1</clus>
<clus scale="   93.749">  7  8 -1 -1</clus>
<clus scale="   92.665">  7 10 -1 -1</clus>
<clus scale="   20.509">  2  5  1 -1</clus>
</clustering>
</event>
<event>
10    4  0.2866397E-005  0.9020754E+03  0.7546771E-02  0.9596110E-01
          2   -1    0    0  502    0 -0.00000000000E+00  0.00000000000E+00  0.19556616276E+04  0.19556616276E+04  0.00000000000E+00 0. -1.
         21   -1    0    0  503  502  0.00000000000E+00 -0.00000000000E+00 -0.29140116061E+03  0.29140116061E+03  0.00000000000E+00 0. -1.
         24    2    1    2    0    0 -0.47362588453E+03  0.10369028826E+03  0.50378262777E+03  0.70369146418E+03  0.79445492935E+02 0.  0.
         23    2    1    2    0    0 -0.12151255228E+03  0.12028529664E+03  0.59172726868E+03  0.62236213582E+03  0.89216672499E+02 0.  0.
        -11    1    3    3    0    0 -0.16328866283E+03  0.17351562116E+02  0.12444255373E+03  0.20603449540E+03  0.00000000000E+00 0.  1.
         12    1    3    3    0    0 -0.31033722169E+03  0.86338726140E+02  0.37934007404E+03  0.49765696878E+03  0.00000000000E+00 0. -1.
        -11    1    4    4    0    0 -0.86328508865E+02  0.35343786414E+02  0.38451854582E+03  0.39567196863E+03  0.00000000000E+00 0.  1.
         11    1    4    4    0    0 -0.35184043418E+02  0.84941510222E+02  0.20720872286E+03  0.22669016718E+03  0.00000000000E+00 0. -1.
         21    1    1    2  503  501 -0.14760622158E+02 -0.55417429620E+02 -0.15882179664E+02  0.59508075949E+02  0.00000000000E+00 0.  1.
          1    1    1    2  501    0  0.60989905897E+03 -0.16855815527E+03  0.58463275022E+03  0.86150111228E+03  0.00000000000E+00 0. -1.
<scales pt_clust_5="13000.00000" pt_clust_6="13000.00000" pt_clust_7="13000.00000" pt_clust_8="13000.00000" pt_clust_9="57.34952" pt_clust_10="13000.00000"></scales>
<clustering>
<clus scale="   57.350">  2  9  1 -1</clus>
<clus scale="   79.445">  5  6 -1 -1</clus>
<clus scale="   89.217">  7  8 -1 -1</clus>
<clus scale="  492.825">  1  5  2 -1</clus>
<clus scale="  372.668">  7 10 -1 -1</clus>
<clus scale="   57.350">  2  5  1 -1</clus>
</clustering>
</event>
<event>
10    4  0.2866397E-005  0.1749601E+03  0.7546771E-02  0.1204945E+00
          2   -1    0    0  503    0 -0.00000000000E+00  0.00000000000E+00  0.45741584076E+03  0.45741584076E+03  0.00000000000E+00 0. -1.
         21   -1    0    0  501  502  0.00000000000E+00 -0.00000000000E+00 -0.95279554132E+02  0.95279554132E+02  0.00000000000E+00 0.  1.
         24    2    1    2    0    0  0.28156664547E+02 -0.18140670639E+02  0.21514146924E+03  0.23162438681E+03  0.79007107815E+02 0.  0.
         23    2    1    2    0    0  0.42115852808E+02 -0.63059450655E+01  0.31291379972E+02  0.98428644377E+02  0.83039373627E+02 0.  0.
        -11    1    3    3    0    0 -0.18938192150E+02 -0.30618438993E+02  0.73618117491E+02  0.81949808732E+02  0.00000000000E+00 0.  1.
         12    1    3    3    0    0  0.47094856696E+02  0.12477768354E+02  0.14152335175E+03  0.14967457807E+03  0.00000000000E+00 0. -1.
        -11    1    4    4    0    0  0.37840974319E+02 -0.32966104653E+02  0.45654207900E+02  0.67845486897E+02  0.00000000000E+00 0. -1.
         11    1    4    4    0    0  0.42748784894E+01  0.26660159587E+02 -0.14362827928E+02  0.30583157479E+02  0.00000000000E+00 0.  1.
         21    1    1    2  503  502 -0.10202943084E+03 -0.79015058540E+01  0.43633662208E+01  0.10242791376E+03  0.00000000000E+00 0.  1.
          1    1    1    2  501    0  0.31756913490E+02  0.32348121558E+02  0.11134007120E+03  0.12021444995E+03  0.00000000000E+00 0. -1.
<scales pt_clust_5="13000.00000" pt_clust_6="13000.00000" pt_clust_7="13000.00000" pt_clust_8="13000.00000" pt_clust_9="96.36055" pt_clust_10="13000.00000"></scales>
<clustering>
<clus scale="   79.007">  5  6 -1 -1</clus>
<clus scale="   83.039">  7  8 -1 -1</clus>
<clus scale="   45.331">  7 10 -1 -1</clus>
<clus scale="   85.814">  1  5  2 -1</clus>
<clus scale="   96.361">  2  9  1 -1</clus>
<clus scale="   96.361">  2  5  1 -1</clus>
</clustering>
</event>
<event>
10    4  0.2866397E-005  0.5040124E+03  0.7546771E-02  0.1015670E+00
         -3   -1    0    0    0  501 -0.00000000000E+00  0.00000000000E+00  0.11171119209E+04  0.11171119209E+04  0.00000000000E+00 0.  1.
         21   -1    0    0  503  502  0.00000000000E+00 -0.00000000000E+00 -0.23674393585E+03  0.23674393585E+03  0.00000000000E+00 0.  1.
         24    2    1    2    0    0  0.43467054421E+03  0.29971541845E+02  0.43504053454E+03  0.62099932450E+03  0.80889548199E+02 0.  0.
         23    2    1    2    0    0 -0.36269329780E+03 -0.46139982588E+02  0.21868720742E+03  0.43577981324E+03  0.91676740085E+02 0.  0.
        -13    1    3    3    0    0  0.38956202965E+03  0.50625259676E+02  0.39674700418E+03  0.55832757159E+03  0.00000000000E+00 0.  1.
         14    1    3    3    0    0  0.45108514553E+02 -0.20653717831E+02  0.38293530361E+02  0.62671752911E+02  0.00000000000E+00 0. -1.
        -11    1    4    4    0    0 -0.16684096896E+03  0.18880244121E+02  0.72532974916E+02  0.18290272002E+03  0.00000000000E+00 0.  1.
         11    1    4    4    0    0 -0.19585232884E+03 -0.65020226709E+02  0.14615423250E+03  0.25287709321E+03  0.00000000000E+00 0. -1.
         21    1    1    2  503  501  0.39910685743E+02  0.18548444064E+02 -0.33418307435E+00  0.44011581340E+02  0.00000000000E+00 0.  1.
         -4    1    1    2    0  502 -0.11188793215E+03 -0.23800033213E+01  0.22697442621E+03  0.25306513772E+03  0.00000000000E+00 0.  1.
<scales pt_clust_5="13000.00000" pt_clust_6="13000.00000" pt_clust_7="13000.00000" pt_clust_8="13000.00000" pt_clust_9="44.01031" pt_clust_10="13000.00000"></scales>
<clustering>
<clus scale="   44.010">  2  9  1 -1</clus>
<clus scale="   80.890">  5  6 -1 -1</clus>
<clus scale="   91.677">  7  8 -1 -1</clus>
<clus scale="  109.469">  7 10 -1 -1</clus>
<clus scale="  460.717">  1  5  2 -1</clus>
<clus scale="   44.010">  2  5  1 -1</clus>
</clustering>
</event>
<event>
10    4  0.2866397E-005  0.3097810E+03  0.7546771E-02  0.1117377E+00
         -1   -1    0    0    0  501 -0.00000000000E+00  0.00000000000E+00  0.10946487146E+03  0.10946487146E+03  0.00000000000E+00 0.  1.
         21   -1    0    0  501  502  0.00000000000E+00 -0.00000000000E+00 -0.46998398690E+03  0.46998398690E+03  0.00000000000E+00 0. -1.
         24    2    1    2    0    0 -0.17581852620E+02 -0.10376661281E+03 -0.76086390174E+02  0.14320648839E+03  0.60351703133E+02 0.  0.
         23    2    1    2    0    0  0.69817088179E+02  0.10970515091E+03 -0.29736570183E+03  0.33742689169E+03  0.92308724812E+02 0.  0.
        -11    1    3    3    0    0 -0.27419300885E+02 -0.69590866942E+02 -0.77377512542E+02  0.10761963701E+03  0.00000000000E+00 0.  1.
         12    1    3    3    0    0  0.98374482649E+01 -0.34175745873E+02  0.12911223681E+01  0.35586851382E+02  0.00000000000E+00 0. -1.
        -11    1    4    4    0    0  0.21007757177E+02 -0.22775836097E+01 -0.12134170560E+03  0.12316786418E+03  0.00000000000E+00 0.  1.
         11    1    4    4    0    0  0.48809331002E+02  0.11198273452E+03 -0.17602399623E+03  0.21425902751E+03  0.00000000000E+00 0. -1.
         21    1    1    2  503  502 -0.15410884661E+02  0.15827157245E+02 -0.30628153223E+02  0.37763448497E+02  0.00000000000E+00 0.  1.
         -2    1    1    2    0  503 -0.36824350898E+02 -0.21765695337E+02  0.43561129778E+02  0.61052029779E+02  0.00000000000E+00 0.  1.
<scales pt_clust_5="13000.00000" pt_clust_6="13000.00000" pt_clust_7="13000.00000" pt_clust_8="13000.00000" pt_clust_9="22.09059" pt_clust_10="13000.00000"></scales>
<clustering>
<clus scale="   22.091">  2  9  1 -1</clus>
<clus scale="   60.352">  5  6 -1 -1</clus>
<clus scale="   92.309">  7  8 -1 -1</clus>
<clus scale="   42.883">  7 10 -1 -1</clus>
<clus scale="  118.574">  1  5  2 -1</clus>
<clus scale="   22.091">  2  5  1 -1</clus>
</clustering>
</event>
<event>
10    4  0.2866397E-005  0.1885762E+03  0.7546771E-02  0.1181825E+00
         21   -1    0    0  501  502  0.00000000000E+00  0.00000000000E+00  0.12315975666E+03  0.12315975666E+03  0.00000000000E+00 0. -1.
          2   -1    0    0  503    0 -0.00000000000E+00 -0.00000000000E+00 -0.65838901998E+03  0.65838901998E+03  0.00000000000E+00 0. -1.
         24    2    1    2    0    0 -0.16062807122E+02  0.45512572054E+02  0.14909158837E+02  0.92760722199E+02  0.77800132250E+02 0.  0.
         23    2    1    2    0    0  0.38405537108E+02 -0.39811963466E+02 -0.26357705384E+03  0.28404355037E+03  0.90265704893E+02 0.  0.
        -11    1    3    3    0    0 -0.22010924915E+02 -0.15000103611E+02  0.17551732973E+02  0.31899016510E+02  0.00000000000E+00 0.  1.
         12    1    3    3    0    0  0.59481177920E+01  0.60512675665E+02 -0.26425741364E+01  0.60861705689E+02  0.00000000000E+00 0. -1.
        -11    1    4    4    0    0  0.21827454978E+02  0.51189746500E+01 -0.76725275225E+01  0.23696188952E+02  0.00000000000E+00 0.  1.
         11    1    4    4    0    0  0.16578082130E+02 -0.44930938116E+02 -0.25590452632E+03  0.26034736142E+03  0.00000000000E+00 0. -1.
         21    1    1    2  503  502  0.45178879709E+02  0.45891670676E+02  0.34201086196E+02  0.72917013832E+02  0.00000000000E+00 0. -1.
          1    1    1    2  501    0 -0.67521609695E+02 -0.51592279264E+02 -0.32076245451E+03  0.33182749024E+03  0.00000000000E+00 0. -1.
<scales pt_clust_5="13000.00000" pt_clust_6="13000.00000" pt_clust_7="13000.00000" pt_clust_8="13000.00000" pt_clust_9="64.39858" pt_clust_10="13000.00000"></scales>
<clustering>
<clus scale="   64.399">  1  9  2 -1</clus>
<clus scale="   77.800">  5  6 -1 -1</clus>
<clus scale="   90.266">  7  8 -1 -1</clus>
<clus scale="   79.911">  7 10 -1 -1</clus>
<clus scale="  113.894">  2  5  1 -1</clus>
<clus scale="   64.399">  1  5  2 -1</clus>
</clustering>
</event>
<event>
10    4  0.2866397E-005  0.2822695E+03  0.7546771E-02  0.1140020E+00
          4   -1    0    0  502    0 -0.00000000000E+00  0.00000000000E+00  0.52253335574E+03  0.52253335574E+03  0.00000000000E+00 0. -1.
         21   -1    0    0  503  502  0.00000000000E+00 -0.00000000000E+00 -0.29981040941E+03  0.29981040941E+03  0.00000000000E+00 0. -1.
         24    2    1    2    0    0  0.27969664994E+02  0.26119332756E+02  0.80519357387E+02  0.12057948211E+03  0.81188194262E+02 0.  0.
         23    2    1    2    0    0  0.11995244317E+03 -0.84300505532E+02  0.16463258064E+03  0.23917652832E+03  0.92770476109E+02 0.  0.
        -13    1    3    3    0    0 -0.22763615565E+02 -0.11823973325E+02  0.16425008773E+02  0.30459308134E+02  0.00000000000E+00 0.  1.
         14    1    3    3    0    0  0.50733280559E+02  0.37943306082E+02  0.64094348614E+02  0.90120173973E+02  0.00000000000E+00 0. -1.
        -11    1    4    4    0    0  0.27385649948E+02 -0.67437890993E+02  0.10506951286E+03  0.12781801711E+03  0.00000000000E+00 0.  1.
         11    1    4    4    0    0  0.92566793226E+02 -0.16862614538E+02  0.59563067776E+02  0.11135851122E+03  0.00000000000E+00 0. -1.
         21    1    1    2  503  501 -0.91697239976E+02 -0.60037021440E+01 -0.22485753796E+03  0.24291014931E+03  0.00000000000E+00 0. -1.
          3    1    1    2  501    0 -0.56224868193E+02  0.64184874919E+02  0.20242854628E+03  0.21967760541E+03  0.00000000000E+00 0. -1.
<scales pt_clust_5="13000.00000" pt_clust_6="13000.00000" pt_clust_7="13000.00000" pt_clust_8="13000.00000" pt_clust_9="91.26154" pt_clust_10="13000.00000"></scales>
<clustering>
<clus scale="   81.188">  5  6 -1 -1</clus>
<clus scale="   89.755">  1  5  2 -1</clus>
<clus scale="   91.262">  2  9  1 -1</clus>
<clus scale="   92.770">  7  8 -1 -1</clus>
<clus scale="  103.821">  7 10 -1 -1</clus>
<clus scale="   91.262">  2  5  1 -1</clus>
</clustering>
</event>
<event>
10    4  0.2866397E-005  0.5529470E+03  0.7546771E-02  0.1060571E+00
          4   -1    0    0  503    0 -0.00000000000E+00  0.00000000000E+00  0.19764772560E+03  0.19764772560E+03  0.00000000000E+00 0. -1.
         21   -1    0    0  501  502  0.00000000000E+00 -0.00000000000E+00 -0.58862200941E+03  0.58862200941E+03  0.00000000000E+00 0. -1.
         24    2    1    2    0    0  0.49328597227E+02  0.25732179486E+01 -0.51955802304E+02  0.10746181173E+03  0.80054379214E+02 0.  0.
         23    2    1    2    0    0  0.97410589684E+02  0.13872496100E+03 -0.38847053014E+03  0.43356574689E+03  0.91304251257E+02 0.  0.
        -13    1    3    3    0    0  0.45703181276E+02 -0.32020055884E+02 -0.45683032131E+02  0.72117987924E+02  0.00000000000E+00 0.  1.
         14    1    3    3    0    0  0.36254159510E+01  0.34593273832E+02 -0.62727701723E+01  0.35343823801E+02  0.00000000000E+00 0. -1.
        -11    1    4    4    0    0  0.12226174586E+02  0.68624866246E+02 -0.80786009942E+02  0.10670159799E+03  0.00000000000E+00 0.  1.
         11    1    4    4    0    0  0.85184415098E+02  0.70100094754E+02 -0.30768452020E+03  0.32686414889E+03  0.00000000000E+00 0. -1.
         21    1    1    2  503  502 -0.11532473816E+01 -0.32503192985E+02 -0.32406129010E+02  0.45912359242E+02  0.00000000000E+00 0.  1.
          3    1    1    2  501    0 -0.14558593953E+03 -0.10879498596E+03  0.81858177643E+02  0.19932981715E+03  0.00000000000E+00 0. -1.
<scales pt_clust_5="13000.00000" pt_clust_6="13000.00000" pt_clust_7="13000.00000" pt_clust_8="13000.00000" pt_clust_9="32.52365" pt_clust_10="13000.00000"></scales>
<clustering>
<clus scale="   32.524">  2  9  1 -1</clus>
<clus scale="   80.054">  5  6 -1 -1</clus>
<clus scale="   91.304">  7  8 -1 -1</clus>
<clus scale="   93.969">  1  5  2 -1</clus>
<clus scale="  154.133">  7 10 -1 -1</clus>
<clus scale="   32.524">  2  5  1 -1</clus>
</clustering>
</event>
<event>
10    4  0.2866397E-005  0.1896246E+03  0.7546771E-02  0.1165233E+00
          4   -1    0    0  503    0 -0.00000000000E+00  0.00000000000E+00  0.26061361020E+03  0.26061361020E+03  0.00000000000E+00 0. -1.
         21   -1    0    0  501  502  0.00000000000E+00 -0.00000000000E+00 -0.23451456830E+03  0.23451456830E+03  0.00000000000E+00 0.  1.
         24    2    1    2    0    0  0.10844361914E+03 -0.67693255208E+02 -0.75776015710E+02  0.16914026705E+03  0.80771468023E+02 0.  0.
         23    2    1    2    0    0 -0.75565194545E+02  0.86791218956E+02  0.10926931897E+03  0.18261349632E+03  0.90360891180E+02 0.  0.
        -13    1    3    3    0    0  0.10340838213E+03 -0.81006621945E+02 -0.51691935403E+02  0.14116452273E+03  0.00000000000E+00 0.  1.
         14    1    3    3    0    0  0.50352370185E+01  0.13313366738E+02 -0.24084080308E+02  0.27975744315E+02  0.00000000000E+00 0. -1.
        -11    1    4    4    0    0  0.18401696369E+02  0.16789336795E+02  0.38092914896E+02  0.45514551789E+02  0.00000000000E+00 0. -1.
         11    1    4    4    0    0 -0.93966890914E+02  0.70001882161E+02  0.71176404075E+02  0.13709894453E+03  0.00000000000E+00 0.  1.
         21    1    1    2  503  502  0.11481635558E+02 -0.17528973510E+02 -0.66348138743E+02  0.69578505172E+02  0.00000000000E+00 0.  1.
          3    1    1    2  501    0 -0.44360060158E+02 -0.15689902385E+01  0.58953877388E+02  0.73795909959E+02  0.00000000000E+00 0. -1.
<scales pt_clust_5="13000.00000" pt_clust_6="13000.00000" pt_clust_7="13000.00000" pt_clust_8="13000.00000" pt_clust_9="20.95454" pt_clust_10="13000.00000"></scales>
<clustering>
<clus scale="   20.955">  2  9  1 -1</clus>
<clus scale="   80.771">  5  6 -1 -1</clus>
<clus scale="   90.361">  7  8 -1 -1</clus>
<clus scale="   43.911">  7 10 -1 -1</clus>
<clus scale="  163.339">  1  5  2 -1</clus>
<clus scale="   20.955">  2  5  1 -1</clus>
</clustering>
</event>
<event>
10    4  0.2866397E-005  0.3783018E+03  0.7546771E-02  0.1066571E+00
          2   -1    0    0  502    0 -0.00000000000E+00  0.00000000000E+00  0.13210852497E+04  0.13210852497E+04  0.00000000000E+00 0. -1.
         21   -1    0    0  503  502  0.00000000000E+00 -0.00000000000E+00 -0.11320139103E+03  0.11320139103E+03  0.00000000000E+00 0. -1.
         24    2    1    2    0    0 -0.22195399834E+03  0.14522568539E+02  0.56920954097E+03  0.61625951427E+03  0.79383909072E+02 0.  0.
         23    2    1    2    0    0  0.45614306848E+01 -0.70335314220E+02  0.95307326855E+02  0.14968664048E+03  0.91404270737E+02 0.  0.
        -13    1    3    3    0    0 -0.22357021112E+02  0.25977468435E+02  0.11496291039E+03  0.11996306109E+03  0.00000000000E+00 0.  1.
         14    1    3    3    0    0 -0.19959697723E+03 -0.11454899897E+02  0.45424663057E+03  0.49629645318E+03  0.00000000000E+00 0. -1.
        -11    1    4    4    0    0  0.31338401146E+02 -0.17549186679E+02 -0.17997115897E+01  0.35962595864E+02  0.00000000000E+00 0.  1.
         11    1    4    4    0    0 -0.26776970461E+02 -0.52786127540E+02  0.97107038445E+02  0.11372404461E+03  0.00000000000E+00 0. -1.
         21    1    1    2  503  501 -0.41438722290E+02  0.28987147335E+02 -0.14635122279E+02  0.52646075065E+02  0.00000000000E+00 0. -1.
          1    1    1    2  501    0  0.25883128995E+03  0.26825598346E+02  0.55800211309E+03  0.61569441089E+03  0.00000000000E+00 0. -1.
<scales pt_clust_5="13000.00000" pt_clust_6="13000.00000" pt_clust_7="13000.00000" pt_clust_8="13000.00000" pt_clust_9="50.57096" pt_clust_10="13000.00000"></scales>
<clustering>
<clus scale="   50.571">  2  9  1 -1</clus>
<clus scale="   79.384">  5  6 -1 -1</clus>
<clus scale="   91.404">  7  8 -1 -1</clus>
<clus scale="  246.649">  7 10 -1 -1</clus>
<clus scale="  248.371">  1  5  2 -1</clus>
<clus scale="   50.571">  2  5  1 -1</clus>
</clustering>
</event>
<event>
10    4  0.2866397E-005  0.3847587E+03  0.7546771E-02  0.1093700E+00
          2   -1    0    0  503    0 -0.00000000000E+00  0.00000000000E+00  0.15653169163E+04  0.15653169163E+04  0.00000000000E+00 0. -1.
         21   -1    0    0  501  502  0.00000000000E+00 -0.00000000000E+00 -0.99384495580E+02  0.99384495580E+02  0.00000000000E+00 0.  1.
         24    2    1    2    0    0 -0.75333414688E+02 -0.69415482468E+02  0.40177782622E+03  0.42311453436E+03  0.84302164684E+02 0.  0.
         23    2    1    2    0    0 -0.16417984396E+03  0.57345693065E+02  0.48161856839E+03  0.52015143323E+03  0.91419464008E+02 0.  0.
        -13    1    3    3    0    0  0.18044981065E+02 -0.15089376420E+02  0.52919256381E+02  0.57911642338E+02  0.00000000000E+00 0.  1.
         14    1    3    3    0    0 -0.93378395752E+02 -0.54326106048E+02  0.34885856983E+03  0.36520289202E+03  0.00000000000E+00 0. -1.
        -11    1    4    4    0    0 -0.97832068601E+02  0.76450736914E+02  0.35257773024E+03  0.37380059482E+03  0.00000000000E+00 0.  1.
         11    1    4    4    0    0 -0.66347775355E+02 -0.19105043849E+02  0.12904083814E+03  0.14635083841E+03  0.00000000000E+00 0. -1.
         21    1    1    2  503  502  0.74247323770E+02  0.74707235796E+02 -0.74068074232E+01  0.10558739017E+03  0.00000000000E+00 0.  1.
          1    1    1    2  501    0  0.16526593487E+03 -0.62637446393E+02  0.58994283352E+03  0.61584805410E+03  0.00000000000E+00 0. -1.
<scales pt_clust_5="13000.00000" pt_clust_6="13000.00000" pt_clust_7="13000.00000" pt_clust_8="13000.00000" pt_clust_9="105.32728" pt_clust_10="13000.00000"></scales>
<clustering>
<clus scale="   84.302">  5  6 -1 -1</clus>
<clus scale="   91.419">  7  8 -1 -1</clus>
<clus scale="  105.327">  2  9  1 -1</clus>
<clus scale="  113.685">  1  5  2 -1</clus>
<clus scale="  169.030">  7 10 -1 -1</clus>
<clus scale="  105.327">  2  5  1 -1</clus>
</clustering>
</event>
<event>
10    4  0.2866397E-005  0.3511049E+03  0.7546771E-02  0.1063032E+00
         21   -1    0    0  501  502  0.00000000000E+00  0.00000000000E+00  0.32436567727E+03  0.32436567727E+03  0.00000000000E+00 0.  1.
          2   -1    0    0  503    0 -0.00000000000E+00 -0.00000000000E+00 -0.41949755293E+03  0.41949755293E+03  0.00000000000E+00 0. -1.
         24    2    1    2    0    0  0.19644073593E+03  0.25520929665E+03 -0.86779077292E+00  0.33205461903E+03  0.80862655939E+02 0.  0.
         23    2    1    2    0    0 -0.15114258105E+03 -0.18799398258E+03 -0.80400288302E+02  0.27034627807E+03  0.91853614066E+02 0.  0.
        -11    1    3    3    0    0  0.11075102215E+03  0.81531343308E+02 -0.12142477231E+02  0.13806009055E+03  0.00000000000E+00 0.  1.
         12    1    3    3    0    0  0.85689713788E+02  0.17367795334E+03  0.11274686458E+02  0.19399452848E+03  0.00000000000E+00 0. -1.
        -13    1    4    4    0    0 -0.13592756843E+03 -0.15529475278E+03 -0.30266621142E+02  0.20858770926E+03  0.00000000000E+00 0.  1.
         13    1    4    4    0    0 -0.15215012615E+02 -0.32699229801E+02 -0.50133667160E+02  0.61758568809E+02  0.00000000000E+00 0. -1.
         21    1    1    2  503  502  0.28870856933E+02  0.21704132082E+01  0.19096578706E+02  0.34683085097E+02  0.00000000000E+00 0.  1.
          1    1    1    2  501    0 -0.74169011818E+02 -0.69385727280E+02 -0.32960375298E+02  0.10677924800E+03  0.00000000000E+00 0. -1.
<scales pt_clust_5="13000.00000" pt_clust_6="13000.00000" pt_clust_7="13000.00000" pt_clust_8="13000.00000" pt_clust_9="28.95232" pt_clust_10="13000.00000"></scales>
<clustering>
<clus scale="   28.952">  1  9  2 -1</clus>
<clus scale="   80.863">  5  6 -1 -1</clus>
<clus scale="   91.854">  7  8 -1 -1</clus>
<clus scale="   98.791">  7 10 -1 -1</clus>
<clus scale="  342.710">  2  5  1 -1</clus>
<clus scale="   28.952">  1  5  2 -1</clus>
</clustering>
</event>
<event>
10    4  0.2866397E-005  0.3844142E+03  0.7546771E-02  0.1061327E+00
         21   -1    0    0  503  502  0.00000000000E+00  0.00000000000E+00  0.69125410131E+03  0.69125410131E+03  0.00000000000E+00 0. -1.
          2   -1    0    0  502    0 -0.00000000000E+00 -0.00000000000E+00 -0.53625263934E+03  0.53625263934E+03  0.00000000000E+00 0. -1.
         24    2    1    2    0    0  0.57941586316E+02 -0.25525372413E+03 -0.37973132363E+03  0.46905862470E+03  0.85489321814E+02 0.  0.
         23    2    1    2    0    0  0.88686201435E+02  0.13626043713E+03  0.17640078433E+02  0.18895932071E+03  0.94669443139E+02 0.  0.
        -11    1    3    3    0    0  0.36018475538E+02 -0.39585443220E+02 -0.11538236266E+03  0.12719051658E+03  0.00000000000E+00 0.  1.
         12    1    3    3    0    0  0.21923110779E+02 -0.21566828091E+03 -0.26434896097E+03  0.34186810811E+03  0.00000000000E+00 0. -1.
        -11    1    4    4    0    0  0.16163400251E+02 -0.12814191131E+02  0.10205596132E+02  0.23013326453E+02  0.00000000000E+00 0. -1.
         11    1    4    4    0    0  0.72522801184E+02  0.14907462826E+03  0.74344823015E+01  0.16594599426E+03  0.00000000000E+00 0.  1.
         21    1    1    2  503  501 -0.60691185382E+02  0.10020515349E+01  0.31142943479E+03  0.31728964204E+03  0.00000000000E+00 0. -1.
          1    1    1    2  501    0 -0.85936602369E+02  0.11799123546E+03  0.20566327238E+03  0.25219915321E+03  0.00000000000E+00 0. -1.
<scales pt_clust_5="13000.00000" pt_clust_6="13000.00000" pt_clust_7="13000.00000" pt_clust_8="13000.00000" pt_clust_9="60.69946" pt_clust_10="13000.00000"></scales>
<clustering>
<clus scale="   60.699">  1  9  2 -1</clus>
<clus scale="   85.489">  5  6 -1 -1</clus>
<clus scale="   94.669">  7  8 -1 -1</clus>
<clus scale="  170.722">  7 10 -1 -1</clus>
<clus scale="  273.821">  2  5  1 -1</clus>
<clus scale="   60.699">  1  5  2 -1</clus>
</clustering>
</event>
<event>
10    4  0.2866397E-005  0.3970789E+03  0.7546771E-02  0.1058620E+00
          2   -1    0    0  502    0 -0.00000000000E+00  0.00000000000E+00  0.67329261029E+03  0.67329261029E+03  0.00000000000E+00 0. -1.
         21   -1    0    0  503  502  0.00000000000E+00 -0.00000000000E+00 -0.43758616458E+03  0.43758616458E+03  0.00000000000E+00 0. -1.
         24    2    1    2    0    0  0.21102553443E+03  0.13845701649E+03  0.15193811688E+03  0.30537544822E+03  0.80416735940E+02 0.  0.
         23    2    1    2    0    0 -0.35895613610E+03  0.74695410878E+02  0.21089883236E+03  0.43296151610E+03  0.92457800560E+02 0.  0.
        -11    1    3    3    0    0  0.42922168896E+02  0.31909179727E+02  0.74733729340E+02  0.91900155793E+02  0.00000000000E+00 0.  1.
         12    1    3    3    0    0  0.16810336553E+03  0.10654783676E+03  0.77204387540E+02  0.21347529243E+03  0.00000000000E+00 0. -1.
        -11    1    4    4    0    0 -0.31318794665E+03  0.78235624166E+02  0.21342782351E+03  0.38698700064E+03  0.00000000000E+00 0. -1.
         11    1    4    4    0    0 -0.45768189455E+02 -0.35402132875E+01 -0.25289911516E+01  0.45974515466E+02  0.00000000000E+00 0.  1.
         21    1    1    2  503  501  0.96094274695E+02 -0.20003849008E+03 -0.18848104408E+03  0.29116079942E+03  0.00000000000E+00 0. -1.
          1    1    1    2  501    0  0.51836326977E+02 -0.13113937287E+02  0.61350540553E+02  0.81381011125E+02  0.00000000000E+00 0. -1.
<scales pt_clust_5="13000.00000" pt_clust_6="13000.00000" pt_clust_7="13000.00000" pt_clust_8="13000.00000" pt_clust_9="221.92230" pt_clust_10="13000.00000"></scales>
<clustering>
<clus scale="   80.417">  5  6 -1 -1</clus>
<clus scale="   92.458">  7  8 -1 -1</clus>
<clus scale="   53.469">  7 10 -1 -1</clus>
<clus scale="  221.922">  2  9  1 -1</clus>
<clus scale="  268.002">  1  5  2 -1</clus>
<clus scale="  221.922">  2  5  1 -1</clus>
</clustering>
</event>
<event>
10    4  0.2866397E-005  0.5442189E+03  0.7546771E-02  0.1049010E+00
          2   -1    0    0  503    0 -0.00000000000E+00  0.00000000000E+00  0.97852644244E+03  0.97852644244E+03  0.00000000000E+00 0. -1.
         21   -1    0    0  501  502  0.00000000000E+00 -0.00000000000E+00 -0.15060811414E+03  0.15060811414E+03  0.00000000000E+00 0. -1.
         24    2    1    2    0    0 -0.87879983963E+02 -0.58057327351E+02  0.17974309189E+03  0.22371979533E+03  0.81543993637E+02 0.  0.
         23    2    1    2    0    0  0.26273127007E+03 -0.88524745468E+02  0.36097610630E+03  0.46415594264E+03  0.90954048477E+02 0.  0.
        -11    1    3    3    0    0 -0.26021220866E+02  0.57136024743E+01  0.41937682501E+01  0.26969183909E+02  0.00000000000E+00 0.  1.
         12    1    3    3    0    0 -0.61858763097E+02 -0.63770929825E+02  0.17554932364E+03  0.19675061142E+03  0.00000000000E+00 0. -1.
        -13    1    4    4    0    0  0.15941804447E+03 -0.94411127037E+02  0.26255329847E+03  0.32134375417E+03  0.00000000000E+00 0. -1.
         13    1    4    4    0    0  0.10331322561E+03  0.58863815690E+01  0.98422807835E+02  0.14281218847E+03  0.00000000000E+00 0.  1.
         21    1    1    2  503  502  0.38116711010E+00 -0.42084694740E+02 -0.14595443430E+02  0.44545412656E+02  0.00000000000E+00 0.  1.
          1    1    1    2  501    0 -0.17523245322E+03  0.18866676756E+03  0.30179457353E+03  0.39671340595E+03  0.00000000000E+00 0. -1.
<scales pt_clust_5="13000.00000" pt_clust_6="13000.00000" pt_clust_7="13000.00000" pt_clust_8="13000.00000" pt_clust_9="42.08642" pt_clust_10="13000.00000"></scales>
<clustering>
<clus scale="   42.086">  2  9  1 -1</clus>
<clus scale="   81.544">  5  6 -1 -1</clus>
<clus scale="   90.954">  7  8 -1 -1</clus>
<clus scale="  136.664">  1  5  2 -1</clus>
<clus scale="  256.828">  7 10 -1 -1</clus>
<clus scale="   42.086">  2  5  1 -1</clus>
</clustering>
</event>
<event>
10    4  0.2866397E-005  0.1592311E+03  0.7546771E-02  0.1218822E+00
          2   -1    0    0  503    0 -0.00000000000E+00  0.00000000000E+00  0.47773087105E+03  0.47773087105E+03  0.00000000000E+00 0. -1.
         21   -1    0    0  501  502  0.00000000000E+00 -0.00000000000E+00 -0.29169777872E+03  0.29169777872E+03  0.00000000000E+00 0.  1.
         24    2    1    2    0    0 -0.13659497090E+02  0.38017709559E+02  0.12418753395E+03  0.15329156070E+03  0.80273475642E+02 0.  0.
         23    2    1    2    0    0  0.31172471987E+02  0.58949019876E+02  0.20498735343E+03  0.23494562621E+03  0.93450105705E+02 0.  0.
        -11    1    3    3    0    0  0.65323192588E+01 -0.23834320421E+02  0.37261019922E+02  0.44711627464E+02  0.00000000000E+00 0.  1.
         12    1    3    3    0    0 -0.20191816349E+02  0.61852029979E+02  0.86926514024E+02  0.10857993323E+03  0.00000000000E+00 0. -1.
        -11    1    4    4    0    0  0.64205338288E+02  0.39373959542E+02  0.11986212358E+03  0.14156116284E+03  0.00000000000E+00 0. -1.
         11    1    4    4    0    0 -0.33032866300E+02  0.19575060335E+02  0.85125229843E+02  0.93384463370E+02  0.00000000000E+00 0.  1.
         21    1    1    2  503  502 -0.19826770474E+02 -0.52224966513E+02 -0.25481512758E+03  0.26086643555E+03  0.00000000000E+00 0.  1.
          1    1    1    2  501    0  0.23137955771E+01 -0.44741762922E+02  0.11167333253E+03  0.12032502732E+03  0.00000000000E+00 0. -1.
<scales pt_clust_5="13000.00000" pt_clust_6="13000.00000" pt_clust_7="13000.00000" pt_clust_8="13000.00000" pt_clust_9="55.86186" pt_clust_10="13000.00000"></scales>
<clustering>
<clus scale="   55.862">  2  9  1 -1</clus>
<clus scale="   80.273">  5  6 -1 -1</clus>
<clus scale="   84.725">  1  5  2 -1</clus>
<clus scale="   93.450">  7  8 -1 -1</clus>
<clus scale="   45.530">  7 10 -1 -1</clus>
<clus scale="   55.862">  2  5  1 -1</clus>
</clustering>
</event>
<event>
10    4  0.2866397E-005  0.7319525E+03  0.7546771E-02  0.9999125E-01
         21   -1    0    0  501  502  0.00000000000E+00  0.00000000000E+00  0.38041457284E+03  0.38041457284E+03  0.00000000000E+00 0. -1.
          2   -1    0    0  503    0 -0.00000000000E+00 -0.00000000000E+00 -0.75614243651E+03  0.75614243651E+03  0.00000000000E+00 0. -1.
         24    2    1    2    0    0 -0.20548310114E+03  0.10548862495E+03 -0.12563870228E+03  0.27322929823E+03  0.74283316131E+02 0.  0.
         23    2    1    2    0    0 -0.23981753809E+03 -0.15127135551E+03 -0.20244673479E+03  0.36006426261E+03  0.90918195180E+02 0.  0.
        -11    1    3    3    0    0 -0.73948019165E+02  0.51349714883E+02 -0.11308591057E+02  0.90735808746E+02  0.00000000000E+00 0.  1.
         12    1    3    3    0    0 -0.13153508197E+03  0.54138910065E+02 -0.11433011123E+03  0.18249348949E+03  0.00000000000E+00 0. -1.
        -11    1    4    4    0    0 -0.17310948300E+03 -0.11770916137E+03 -0.96661193408E+02  0.23057694179E+03  0.00000000000E+00 0.  1.
         11    1    4    4    0    0 -0.66708055081E+02 -0.33562194140E+02 -0.10578554138E+03  0.12948732082E+03  0.00000000000E+00 0. -1.
         21    1    1    2  503  502  0.29558975190E+02  0.78249245063E+02 -0.96472362556E+00  0.83651706850E+02  0.00000000000E+00 0. -1.
          1    1    1    2  501    0  0.41574166403E+03 -0.32466514504E+02 -0.46677702975E+02  0.41961174165E+03  0.00000000000E+00 0. -1.
<scales pt_clust_5="13000.00000" pt_clust_6="13000.00000" pt_clust_7="13000.00000" pt_clust_8="13000.00000" pt_clust_9="83.64614" pt_clust_10="13000.00000"></scales>
<clustering>
<clus scale="   74.283">  5  6 -1 -1</clus>
<clus scale="   83.646">  1  9  2 -1</clus>
<clus scale="   90.918">  7  8 -1 -1</clus>
<clus scale="  245.254">  2  5  1 -1</clus>
<clus scale="  340.779">  7 10 -1 -1</clus>
<clus scale="   83.646">  1  5  2 -1</clus>
</clustering>
</event>
<event>
10    4  0.2866397E-005  0.1962887E+03  0.7546771E-02  0.1167567E+00
         21   -1    0    0  503  502  0.00000000000E+00  0.00000000000E+00  0.26969322288E+03  0.26969322288E+03  0.00000000000E+00 0. -1.
          2   -1    0    0  502    0 -0.00000000000E+00 -0.00000000000E+00 -0.23412696314E+03  0.23412696314E+03  0.00000000000E+00 0. -1.
         24    2    1    2    0    0 -0.63620153290E+02 -0.83123335500E+02  0.11729204975E+03  0.17821132689E+03  0.83933540885E+02 0.  0.
         23    2    1    2    0    0  0.93025569050E+02  0.98323130480E+02 -0.10358052583E+03  0.19324198068E+03  0.91062304395E+02 0.  0.
        -11    1    3    3    0    0 -0.55650153756E+02 -0.13174938049E+02  0.80585437586E+02  0.98815643278E+02  0.00000000000E+00 0.  1.
         12    1    3    3    0    0 -0.79699995344E+01 -0.69948397451E+02  0.36706612169E+02  0.79395683607E+02  0.00000000000E+00 0. -1.
        -11    1    4    4    0    0 -0.95188963268E+01  0.41367577800E+02 -0.11115809586E+02  0.43879916854E+02  0.00000000000E+00 0.  1.
         11    1    4    4    0    0  0.10254446538E+03  0.56955552680E+02 -0.92464716246E+02  0.14936206383E+03  0.00000000000E+00 0. -1.
         21    1    1    2  503  501 -0.28183047973E+02  0.14259411823E+02  0.69497718800E+02  0.76338377877E+02  0.00000000000E+00 0. -1.
          1    1    1    2  501    0 -0.12223677878E+01 -0.29459206803E+02 -0.47642982988E+02  0.56028500573E+02  0.00000000000E+00 0. -1.
<scales pt_clust_5="13000.00000" pt_clust_6="13000.00000" pt_clust_7="13000.00000" pt_clust_8="13000.00000" pt_clust_9="31.58504" pt_clust_10="13000.00000"></scales>
<clustering>
<clus scale="   31.585">  1  9  2 -1</clus>
<clus scale="   83.934">  5  6 -1 -1</clus>
<clus scale="   91.062">  7  8 -1 -1</clus>
<clus scale="   29.212">  7 10 -1 -1</clus>
<clus scale="  139.560">  2  5  1 -1</clus>
<clus scale="   31.585">  1  5  2 -1</clus>
</clustering>
</event>
<event>
10    4  0.2866397E-005  0.1891857E+03  0.7546771E-02  0.1170492E+00
          2   -1    0    0  502    0 -0.00000000000E+00  0.00000000000E+00  0.57627215268E+03  0.57627215268E+03  0.00000000000E+00 0. -1.
         21   -1    0    0  503  502  0.00000000000E+00 -0.00000000000E+00 -0.96931233440E+02  0.96931233440E+02  0.00000000000E+00 0. -1.
         24    2    1    2    0    0 -0.40803164259E+02 -0.13933177452E+03  0.79752150557E+02  0.18414065406E+03  0.80430922877E+02 0.  0.
         23    2    1    2    0    0 -0.23781305366E+02  0.11431119866E+03  0.31864084601E+03  0.35160125017E+03  0.91972005250E+02 0.  0.
        -11    1    3    3    0    0  0.59857879730E+01 -0.92288512345E+02  0.72268949097E+02  0.11737035474E+03  0.00000000000E+00 0.  1.
         12    1    3    3    0    0 -0.46788952232E+02 -0.47043262173E+02  0.74832014598E+01  0.66770299317E+02  0.00000000000E+00 0. -1.
        -11    1    4    4    0    0 -0.17052771826E+02 -0.12592809405E+02  0.37614408331E+02  0.43176609289E+02  0.00000000000E+00 0.  1.
         11    1    4    4    0    0 -0.67285335406E+01  0.12690400806E+03  0.28102643768E+03  0.30842464088E+03  0.00000000000E+00 0. -1.
         21    1    1    2  503  501  0.29691081112E+02  0.26596033030E+02 -0.90911972901E+01  0.40884705438E+02  0.00000000000E+00 0. -1.
          1    1    1    2  501    0  0.34893388513E+02 -0.15754571726E+01  0.90039119970E+02  0.96576776464E+02  0.00000000000E+00 0. -1.
<scales pt_clust_5="13000.00000" pt_clust_6="13000.00000" pt_clust_7="13000.00000" pt_clust_8="13000.00000" pt_clust_9="39.86112" pt_clust_10="13000.00000"></scales>
<clustering>
<clus scale="   39.861">  2  9  1 -1</clus>
<clus scale="   80.431">  5  6 -1 -1</clus>
<clus scale="   91.972">  7  8 -1 -1</clus>
<clus scale="   36.244">  7 10 -1 -1</clus>
<clus scale="  145.770">  1  5  2 -1</clus>
<clus scale="   39.861">  2  5  1 -1</clus>
</clustering>
</event>
<event>
10    4  0.2866397E-005  0.4695836E+03  0.7546771E-02  0.1056314E+00
          2   -1    0    0  503    0 -0.00000000000E+00  0.00000000000E+00  0.21857953691E+04  0.21857953691E+04  0.00000000000E+00 0. -1.
         21   -1    0    0  501  502  0.00000000000E+00 -0.00000000000E+00 -0.97579838842E+02  0.97579838842E+02  0.00000000000E+00 0. -1.
         24    2    1    2    0    0 -0.88176975770E+02  0.12805659059E+03  0.41013292742E+03  0.44553148790E+03  0.78202423920E+02 0.  0.
         23    2    1    2    0    0  0.21061615425E+03 -0.21491737658E+03  0.12977105068E+04  0.13353804712E+04  0.92950526615E+02 0.  0.
        -13    1    3    3    0    0 -0.22663559786E+02  0.26450042815E+02  0.27878135880E+02  0.44614259685E+02  0.00000000000E+00 0.  1.
         14    1    3    3    0    0 -0.65513415984E+02  0.10160654777E+03  0.38225479154E+03  0.40091722821E+03  0.00000000000E+00 0. -1.
        -11    1    4    4    0    0  0.29055834740E+02 -0.44968026953E+02  0.11563227795E+03  0.12742522782E+03  0.00000000000E+00 0.  1.
         11    1    4    4    0    0  0.18156031951E+03 -0.16994934963E+03  0.11820782288E+04  0.12079552434E+04  0.00000000000E+00 0. -1.
         21    1    1    2  503  502 -0.15067399164E+02 -0.15305017705E+02 -0.46161491327E+02  0.50913194420E+02  0.00000000000E+00 0. -1.
          1    1    1    2  501    0 -0.10737177932E+03  0.10216580370E+03  0.42653358745E+03  0.45155005444E+03  0.00000000000E+00 0. -1.
<scales pt_clust_5="13000.00000" pt_clust_6="13000.00000" pt_clust_7="13000.00000" pt_clust_8="13000.00000" pt_clust_9="21.47720" pt_clust_10="13000.00000"></scales>
<clustering>
<clus scale="   21.477">  2  9  1 -1</clus>
<clus scale="   78.202">  5  6 -1 -1</clus>
<clus scale="   92.951">  7  8 -1 -1</clus>
<clus scale="  148.406">  7 10 -1 -1</clus>
<clus scale="  172.898">  1  5  2 -1</clus>
<clus scale="   21.477">  2  5  1 -1</clus>
</clustering>
</event>
<event>
10    4  0.2866397E-005  0.2439362E+03  0.7546771E-02  0.1129324E+00
         21   -1    0    0  501  502  0.00000000000E+00  0.00000000000E+00  0.18786549969E+03  0.18786549969E+03  0.00000000000E+00 0. -1.
          2   -1    0    0  503    0 -0.00000000000E+00 -0.00000000000E+00 -0.41928876196E+03  0.41928876196E+03  0.00000000000E+00 0. -1.
         24    2    1    2    0    0 -0.10568880331E+03  0.96673646241E+02  0.77600350747E+02  0.18616791085E+03  0.90115257153E+02 0.  0.
         23    2    1    2    0    0  0.38134736318E+02 -0.35732089296E+01 -0.44675290199E+02  0.10642287553E+03  0.88673112870E+02 0.  0.
        -11    1    3    3    0    0 -0.25415245896E+02 -0.16109346148E+02  0.75665027813E+01  0.31027370524E+02  0.00000000000E+00 0.  1.
         12    1    3    3    0    0 -0.80273557414E+02  0.11278299239E+03  0.70033847966E+02  0.15514054033E+03  0.00000000000E+00 0. -1.
        -13    1    4    4    0    0  0.34450857451E+02  0.32308862009E+02  0.21928010864E+01  0.47281418338E+02  0.00000000000E+00 0.  1.
         13    1    4    4    0    0  0.36838788665E+01 -0.35882070938E+02 -0.46868091285E+02  0.59141457194E+02  0.00000000000E+00 0. -1.
         21    1    1    2  503  502 -0.34542045684E+02 -0.15622381645E+02 -0.33824483588E+02  0.50806568653E+02  0.00000000000E+00 0.  1.
          1    1    1    2  501    0  0.10209611268E+03 -0.77478055667E+02 -0.23052383923E+03  0.26375690662E+03  0.00000000000E+00 0. -1.
<scales pt_clust_5="13000.00000" pt_clust_6="13000.00000" pt_clust_7="13000.00000" pt_clust_8="13000.00000" pt_clust_9="37.91059" pt_clust_10="13000.00000"></scales>
<clustering>
<clus scale="   37.911">  1  9  2 -1</clus>
<clus scale="   88.673">  7  8 -1 -1</clus>
<clus scale="   90.115">  5  6 -1 -1</clus>
<clus scale="  126.529">  7 10 -1 -1</clus>
<clus scale="  180.447">  2  5  1 -1</clus>
<clus scale="   37.911">  1  5  2 -1</clus>
</clustering>
</event>
<event>
10    4  0.2866397E-005  0.5042113E+03  0.7546771E-02  0.1066518E+00
         21   -1    0    0  501  502  0.00000000000E+00  0.00000000000E+00  0.18016227242E+03  0.18016227242E+03  0.00000000000E+00 0. -1.
          2   -1    0    0  503    0 -0.00000000000E+00 -0.00000000000E+00 -0.85234779270E+03  0.85234779270E+03  0.00000000000E+00 0. -1.
         24    2    1    2    0    0  0.66388114679E+02 -0.42375654065E+02 -0.69379728213E+02  0.13173335501E+03  0.79605604745E+02 0.  0.
         23    2    1    2    0    0 -0.83012248068E+02  0.75244268425E+02  0.21717173257E+02  0.14649471256E+03  0.91849506989E+02 0.  0.
        -11    1    3    3    0    0 -0.15661616420E+02 -0.13511656356E+02 -0.34415801624E+00  0.20687424468E+02  0.00000000000E+00 0.  1.
         12    1    3    3    0    0  0.82049731099E+02 -0.28863997709E+02 -0.69035570197E+02  0.11104593054E+03  0.00000000000E+00 0. -1.
        -11    1    4    4    0    0  0.19848058913E+02  0.16888584348E+02  0.89121911942E+01  0.27542637415E+02  0.00000000000E+00 0.  1.
         11    1    4    4    0    0 -0.10286030698E+03  0.58355684078E+02  0.12804982063E+02  0.11895207515E+03  0.00000000000E+00 0. -1.
         21    1    1    2  503  502  0.11410334516E+01  0.10415470754E+03  0.10286947284E+02  0.10466769485E+03  0.00000000000E+00 0. -1.
          1    1    1    2  501    0  0.15483099937E+02 -0.13702332190E+03 -0.63480991261E+03  0.64961430270E+03  0.00000000000E+00 0. -1.
<scales pt_clust_5="13000.00000" pt_clust_6="13000.00000" pt_clust_7="13000.00000" pt_clust_8="13000.00000" pt_clust_9="104.16096" pt_clust_10="13000.00000"></scales>
<clustering>
<clus scale="   79.606">  5  6 -1 -1</clus>
<clus scale="   91.850">  7  8 -1 -1</clus>
<clus scale="  104.161">  1  9  2 -1</clus>
<clus scale="  105.053">  2  5  1 -1</clus>
<clus scale="  158.875">  7 10 -1 -1</clus>
<clus scale="  104.161">  1  5  2 -1</clus>
</clustering>
</event>
<event>
10    4  0.2866397E-005  0.2774320E+03  0.7546771E-02  0.1102679E+00
          2   -1    0    0  503    0 -0.00000000000E+00  0.00000000000E+00  0.15001682617E+03  0.15001682617E+03  0.00000000000E+00 0. -1.
         21   -1    0    0  501  502  0.00000000000E+00 -0.00000000000E+00 -0.55791352074E+03  0.55791352074E+03  0.00000000000E+00 0.  1.
         24    2    1    2    0    0 -0.23062359599E+03  0.64195673126E+02 -0.13789232730E+03  0.28788615631E+03  0.80968003497E+02 0.  0.
         23    2    1    2    0    0  0.15806409555E+03 -0.60170808652E+02 -0.17298205501E+03  0.25895146788E+03  0.92348724117E+02 0.  0.
        -11    1    3    3    0    0 -0.20748823070E+03  0.33283784663E+02 -0.96365400624E+02  0.23118275593E+03  0.00000000000E+00 0.  1.
         12    1    3    3    0    0 -0.23135365285E+02  0.30911888463E+02 -0.41526926674E+02  0.56703400376E+02  0.00000000000E+00 0. -1.
        -13    1    4    4    0    0  0.56467248114E+02  0.23222887319E+02 -0.49396128735E+02  0.78535534244E+02  0.00000000000E+00 0.  1.
         13    1    4    4    0    0  0.10159684744E+03 -0.83393695971E+02 -0.12358592628E+03  0.18041593364E+03  0.00000000000E+00 0. -1.
         21    1    1    2  503  502  0.19754960824E+02 -0.52518487025E+02 -0.51539419388E+02  0.76188986785E+02  0.00000000000E+00 0.  1.
          1    1    1    2  501    0  0.52804539615E+02  0.48493622551E+02 -0.45482892871E+02  0.84903735937E+02  0.00000000000E+00 0. -1.
<scales pt_clust_5="13000.00000" pt_clust_6="13000.00000" pt_clust_7="13000.00000" pt_clust_8="13000.00000" pt_clust_9="56.11105" pt_clust_10="13000.00000"></scales>
<clustering>
<clus scale="   56.111">  2  9  1 -1</clus>
<clus scale="   80.968">  5  6 -1 -1</clus>
<clus scale="   92.349">  7  8 -1 -1</clus>
<clus scale="   69.267">  7 10 -1 -1</clus>
<clus scale="  240.035">  1  5  2 -1</clus>
<clus scale="   56.111">  2  5  1 -1</clus>
</clustering>
</event>
<event>
10    4  0.2866397E-005  0.5388693E+03  0.7546771E-02  0.1046626E+00
          2   -1    0    0  502    0 -0.00000000000E+00  0.00000000000E+00  0.51184521070E+03  0.51184521070E+03  0.00000000000E+00 0. -1.
         21   -1    0    0  503  502  0.00000000000E+00 -0.00000000000E+00 -0.36810917370E+03  0.36810917370E+03  0.00000000000E+00 0. -1.
         24    2    1    2    0    0 -0.10300313335E+03 -0.73613334797E+02  0.24435314910E+03  0.28690883013E+03  0.81115021990E+02 0.  0.
         23    2    1    2    0    0  0.16843647939E+03 -0.20544417326E+03 -0.70053131858E+02  0.28900584559E+03  0.89659252676E+02 0.  0.
        -13    1    3    3    0    0 -0.11357268407E+03 -0.71831443566E+02  0.24053972934E+03  0.27553198044E+03  0.00000000000E+00 0.  1.
         14    1    3    3    0    0  0.10569550718E+02 -0.17818912305E+01  0.38134197598E+01  0.11376849696E+02  0.00000000000E+00 0. -1.
        -13    1    4    4    0    0  0.14973076049E+01 -0.46422009638E+02 -0.29184658820E+02  0.54854254341E+02  0.00000000000E+00 0.  1.
         13    1    4    4    0    0  0.16693917178E+03 -0.15902216362E+03 -0.40868473038E+02  0.23415159125E+03  0.00000000000E+00 0. -1.
         21    1    1    2  503  501 -0.25844705312E+02  0.25095164680E+02 -0.30203072412E+02  0.47010016657E+02  0.00000000000E+00 0.  1.
          1    1    1    2  501    0 -0.39588640722E+02  0.25396234337E+03 -0.36090782864E+00  0.25702969202E+03  0.00000000000E+00 0. -1.
<scales pt_clust_5="13000.00000" pt_clust_6="13000.00000" pt_clust_7="13000.00000" pt_clust_8="13000.00000" pt_clust_9="36.02383" pt_clust_10="13000.00000"></scales>
<clustering>
<clus scale="   36.024">  2  9  1 -1</clus>
<clus scale="   81.115">  5  6 -1 -1</clus>
<clus scale="   89.659">  7  8 -1 -1</clus>
<clus scale="  150.728">  1  5  2 -1</clus>
<clus scale="  247.820">  7 10 -1 -1</clus>
<clus scale="   36.024">  2  5  1 -1</clus>
</clustering>
</event>
<event>
10    4  0.2866397E-005  0.4270352E+03  0.7546771E-02  0.1067062E+00
         21   -1    0    0  503  502  0.00000000000E+00  0.00000000000E+00  0.68921227646E+03  0.68921227646E+03  0.00000000000E+00 0.  1.
         -1   -1    0    0    0  501 -0.00000000000E+00 -0.00000000000E+00 -0.19058392250E+03  0.19058392250E+03  0.00000000000E+00 0.  1.
         24    2    1    2    0    0 -0.12274390300E+03 -0.46669206063E+02  0.26546448583E+03  0.30687132606E+03  0.80340133215E+02 0.  0.
         23    2    1    2    0    0 -0.10929194181E+03 -0.31592595456E+02  0.96571369130E+02  0.17407691076E+03  0.89632142077E+02 0.  0.
        -11    1    3    3    0    0 -0.94530610932E+02  0.15395963135E+01  0.13364218634E+03  0.16370290385E+03  0.00000000000E+00 0.  1.
         12    1    3    3    0    0 -0.28213292073E+02 -0.48208802377E+02  0.13182229949E+03  0.14316842221E+03  0.00000000000E+00 0. -1.
        -13    1    4    4    0    0 -0.38105793351E+02  0.21839427242E+02  0.67329764914E+02  0.80388489925E+02  0.00000000000E+00 0. -1.
         13    1    4    4    0    0 -0.71186148457E+02 -0.53432022699E+02  0.29241604216E+02  0.93688420837E+02  0.00000000000E+00 0.  1.
         21    1    1    2  503  501 -0.57581838679E+02  0.61850408871E+02  0.35431439047E+02  0.91632571153E+02  0.00000000000E+00 0.  1.
         -2    1    1    2    0  502  0.28961768349E+03  0.16411392649E+02  0.10116105996E+03  0.30721539097E+03  0.00000000000E+00 0.  1.
<scales pt_clust_5="13000.00000" pt_clust_6="13000.00000" pt_clust_7="13000.00000" pt_clust_8="13000.00000" pt_clust_9="84.50532" pt_clust_10="13000.00000"></scales>
<clustering>
<clus scale="   80.340">  5  6 -1 -1</clus>
<clus scale="   84.505">  1  9  2 -1</clus>
<clus scale="   89.632">  7  8 -1 -1</clus>
<clus scale="  170.345">  2  5  1 -1</clus>
<clus scale="  176.711">  7 10 -1 -1</clus>
<clus scale="   84.505">  1  5  2 -1</clus>
</clustering>
</event>
<event>
10    4  0.2866397E-005  0.2141132E+03  0.7546771E-02  0.1171942E+00
         21   -1    0    0  503  502  0.00000000000E+00  0.00000000000E+00  0.38458885137E+03  0.38458885137E+03  0.00000000000E+00 0. -1.
          2   -1    0    0  502    0 -0.00000000000E+00 -0.00000000000E+00 -0.45034925868E+03  0.45034925868E+03  0.00000000000E+00 0. -1.
         24    2    1    2    0    0  0.35892159611E+02 -0.43222198090E+02 -0.39900013783E+03  0.41075746620E+03  0.79775814152E+02 0.  0.
         23    2    1    2    0    0 -0.75899316699E+02  0.69529711458E+02  0.10621874090E+03  0.17330726102E+03  0.90321086986E+02 0.  0.
        -11    1    3    3    0    0 -0.77413103399E+01 -0.21985044045E+02 -0.27272074018E+02  0.35875284928E+02  0.00000000000E+00 0.  1.
         12    1    3    3    0    0  0.43633469951E+02 -0.21237154045E+02 -0.37172806381E+03  0.37488218127E+03  0.00000000000E+00 0. -1.
        -13    1    4    4    0    0 -0.35975282418E+02  0.50479212636E+02  0.11267699913E+03  0.12860201392E+03  0.00000000000E+00 0. -1.
         13    1    4    4    0    0 -0.39924034280E+02  0.19050498823E+02 -0.64582582304E+01  0.44705247097E+02  0.00000000000E+00 0.  1.
         21    1    1    2  503  501 -0.12282287741E+02  0.18076568072E+02  0.13135935878E+03  0.13316492798E+03  0.00000000000E+00 0. -1.
          1    1    1    2  501    0  0.52289444829E+02 -0.44384081440E+02  0.95661630848E+02  0.11770845485E+03  0.00000000000E+00 0. -1.
<scales pt_clust_5="13000.00000" pt_clust_6="13000.00000" pt_clust_7="13000.00000" pt_clust_8="13000.00000" pt_clust_9="21.85445" pt_clust_10="13000.00000"></scales>
<clustering>
<clus scale="   21.854">  1  9  2 -1</clus>
<clus scale="   79.776">  5  6 -1 -1</clus>
<clus scale="   90.321">  7  8 -1 -1</clus>
<clus scale="   59.733">  7 10 -1 -1</clus>
<clus scale="   97.283">  2  5  1 -1</clus>
<clus scale="   21.854">  1  5  2 -1</clus>
</clustering>
</event>
<event>
10    4  0.2866397E-005  0.3028083E+03  0.7546771E-02  0.1132362E+00
         21   -1    0    0  501  502  0.00000000000E+00  0.00000000000E+00  0.10485068282E+03  0.10485068282E+03  0.00000000000E+00 0.  1.
          2   -1    0    0  503    0 -0.00000000000E+00 -0.00000000000E+00 -0.89510858654E+03  0.89510858654E+03  0.00000000000E+00 0. -1.
         24    2    1    2    0    0  0.17406005241E+02  0.37923455989E+02 -0.34291798933E+03  0.35471375811E+03  0.80547782447E+02 0.  0.
         23    2    1    2    0    0  0.12260336563E+03  0.76666511418E+02 -0.20939542687E+03  0.27026740241E+03  0.91042214246E+02 0.  0.
        -13    1    3    3    0    0  0.18446098845E+02 -0.21051172232E+02 -0.16266743231E+03  0.16505788061E+03  0.00000000000E+00 0.  1.
         14    1    3    3    0    0 -0.10400936033E+01  0.58974628221E+02 -0.18025055702E+03  0.18965587751E+03  0.00000000000E+00 0. -1.
        -13    1    4    4    0    0 -0.42462646045E+01  0.37769416214E+02 -0.52023812230E+02  0.64428538732E+02  0.00000000000E+00 0.  1.
         13    1    4    4    0    0  0.12684963023E+03  0.38897095204E+02 -0.15737161464E+03  0.20583886368E+03  0.00000000000E+00 0. -1.
         21    1    1    2  503  502 -0.37527058909E+02 -0.50568415478E+02  0.38130586801E+02  0.73616482150E+02  0.00000000000E+00 0.  1.
          1    1    1    2  501    0 -0.10248231196E+03 -0.64021551930E+02 -0.27607507432E+03  0.30136162668E+03  0.00000000000E+00 0. -1.
<scales pt_clust_5="13000.00000" pt_clust_6="13000.00000" pt_clust_7="13000.00000" pt_clust_8="13000.00000" pt_clust_9="62.97178" pt_clust_10="13000.00000"></scales>
<clustering>
<clus scale="   62.972">  1  9  2 -1</clus>
<clus scale="   80.548">  5  6 -1 -1</clus>
<clus scale="   87.564">  2  5  1 -1</clus>
<clus scale="   91.042">  7  8 -1 -1</clus>
<clus scale="  117.823">  7 10 -1 -1</clus>
<clus scale="   62.972">  1  5  2 -1</clus>
</clustering>
</event>
<event>
10    4  0.2866397E-005  0.5271256E+03  0.7546771E-02  0.1053206E+00
         21   -1    0    0  503  502  0.00000000000E+00  0.00000000000E+00  0.14807498126E+03  0.14807498126E+03  0.00000000000E+00 0. -1.
          2   -1    0    0  502    0 -0.00000000000E+00 -0.00000000000E+00 -0.32629431984E+04  0.32629431984E+04  0.00000000000E+00 0. -1.
         24    2    1    2    0    0  0.60872199296E+02  0.87080116888E+02 -0.19115436578E+04  0.19161475991E+04  0.79587025312E+02 0.  0.
         23    2    1    2    0    0  0.18250296768E+03 -0.17395964991E+03 -0.53737655456E+03  0.60083604972E+03  0.93065053806E+02 0.  0.
        -11    1    3    3    0    0 -0.35524360240E+01  0.26259404087E+02 -0.14619692972E+03  0.14857899704E+03  0.00000000000E+00 0.  1.
         12    1    3    3    0    0  0.64424635320E+02  0.60820712802E+02 -0.17653467280E+04  0.17675686021E+04  0.00000000000E+00 0. -1.
        -11    1    4    4    0    0  0.14695558861E+03 -0.17363636437E+03 -0.41327422903E+03  0.47174264216E+03  0.00000000000E+00 0. -1.
         11    1    4    4    0    0  0.35547379069E+02 -0.32328554713E+00 -0.12410232553E+03  0.12909340756E+03  0.00000000000E+00 0.  1.
         21    1    1    2  503  501  0.26469885995E+01  0.23759819101E+02  0.91794740414E+02  0.94856786367E+02  0.00000000000E+00 0. -1.
          1    1    1    2  501    0 -0.24602215558E+03  0.63119713923E+02 -0.75774274524E+03  0.79917774449E+03  0.00000000000E+00 0. -1.
<scales pt_clust_5="13000.00000" pt_clust_6="13000.00000" pt_clust_7="13000.00000" pt_clust_8="13000.00000" pt_clust_9="23.90681" pt_clust_10="13000.00000"></scales>
<clustering>
<clus scale="   23.907">  1  9  2 -1</clus>
<clus scale="   79.587">  5  6 -1 -1</clus>
<clus scale="   93.065">  7  8 -1 -1</clus>
<clus scale="  133.458">  2  5  1 -1</clus>
<clus scale="  243.063">  7 10 -1 -1</clus>
<clus scale="   23.907">  1  5  2 -1</clus>
</clustering>
</event>
<event>
10    4  0.2866397E-005  0.5381312E+03  0.7546771E-02  0.1016977E+00
         21   -1    0    0  501  502  0.00000000000E+00  0.00000000000E+00  0.45424628619E+03  0.45424628619E+03  0.00000000000E+00 0. -1.
          2   -1    0    0  503    0 -0.00000000000E+00 -0.00000000000E+00 -0.16805356883E+04  0.16805356883E+04  0.00000000000E+00 0. -1.
         24    2    1    2    0    0  0.18925614206E+03  0.26798098379E+03 -0.98281677435E+03  0.10392507829E+04  0.80508898873E+02 0.  0.
         23    2    1    2    0    0 -0.17859401920E+02  0.55012843059E+02 -0.10993086914E+03  0.14758958780E+03  0.79702693166E+02 0.  0.
        -11    1    3    3    0    0 -0.50589250687E+01  0.21882926961E+02 -0.43127692563E+02  0.48625642217E+02  0.00000000000E+00 0.  1.
         12    1    3    3    0    0  0.19431506713E+03  0.24609805683E+03 -0.93968908179E+03  0.99062514067E+03  0.00000000000E+00 0. -1.
        -13    1    4    4    0    0  0.25367696004E+02  0.94527198528E+01 -0.64871907469E+02  0.70293942071E+02  0.00000000000E+00 0.  1.
         13    1    4    4    0    0 -0.43227097924E+02  0.45560123206E+02 -0.45058961673E+02  0.77295645728E+02  0.00000000000E+00 0. -1.
         21    1    1    2  503  502  0.10453509742E+03  0.15266035930E+03  0.22513630356E+03  0.29140886581E+03  0.00000000000E+00 0. -1.
          1    1    1    2  501    0 -0.27593183756E+03 -0.47565418615E+03 -0.35867806220E+03  0.65653273802E+03  0.00000000000E+00 0. -1.
<scales pt_clust_5="13000.00000" pt_clust_6="13000.00000" pt_clust_7="13000.00000" pt_clust_8="13000.00000" pt_clust_9="185.02100" pt_clust_10="13000.00000"></scales>
<clustering>
<clus scale="   79.703">  7  8 -1 -1</clus>
<clus scale="   80.509">  5  6 -1 -1</clus>
<clus scale="  185.021">  1  9  2 -1</clus>
<clus scale="  363.732">  2  5  1 -1</clus>
<clus scale="  189.579">  7 10 -1 -1</clus>
<clus scale="  185.021">  1  5  2 -1</clus>
</clustering>
</event>
<event>
10    4  0.2866397E-005  0.3630116E+03  0.7546771E-02  0.1106026E+00
          2   -1    0    0  502    0 -0.00000000000E+00  0.00000000000E+00  0.69426597883E+03  0.69426597883E+03  0.00000000000E+00 0. -1.
         21   -1    0    0  503  502  0.00000000000E+00 -0.00000000000E+00 -0.16064204442E+03  0.16064204442E+03  0.00000000000E+00 0.  1.
         24    2    1    2    0    0 -0.44712073854E+02 -0.97496950470E+01  0.93156613813E+02  0.13083133393E+03  0.79652100656E+02 0.  0.
         23    2    1    2    0    0  0.62557263731E+02 -0.11622150036E+03  0.85139630890E+02  0.18206516523E+03  0.92076703080E+02 0.  0.
        -11    1    3    3    0    0  0.10793296604E+02  0.21221575229E+02  0.45623556807E+02  0.51462213735E+02  0.00000000000E+00 0.  1.
         12    1    3    3    0    0 -0.55505370458E+02 -0.30971270276E+02  0.47533057006E+02  0.79369120195E+02  0.00000000000E+00 0. -1.
        -11    1    4    4    0    0 -0.15928798693E+02 -0.26054766515E+02 -0.67652580727E+01  0.31278526224E+02  0.00000000000E+00 0. -1.
         11    1    4    4    0    0  0.78486062424E+02 -0.90166733849E+02  0.91904888963E+02  0.15078663901E+03  0.00000000000E+00 0.  1.
         21    1    1    2  503  501 -0.47934120495E+02 -0.12344644321E+02 -0.74517628528E+02  0.89459192442E+02  0.00000000000E+00 0. -1.
          1    1    1    2  501    0  0.30088930618E+02  0.13831583973E+03  0.42984531824E+03  0.45255233165E+03  0.00000000000E+00 0. -1.
<scales pt_clust_5="13000.00000" pt_clust_6="13000.00000" pt_clust_7="13000.00000" pt_clust_8="13000.00000" pt_clust_9="49.49818" pt_clust_10="13000.00000"></scales>
<clustering>
<clus scale="   49.498">  2  9  1 -1</clus>
<clus scale="   79.652">  5  6 -1 -1</clus>
<clus scale="   92.077">  7  8 -1 -1</clus>
<clus scale="   98.303">  1  5  2 -1</clus>
<clus scale="  128.394">  7 10 -1 -1</clus>
<clus scale="   49.498">  2  5  1 -1</clus>
</clustering>
</event>
<event>
10    4  0.2866397E-005  0.4413320E+03  0.7546771E-02  0.1044069E+00
         21   -1    0    0  501  502  0.00000000000E+00  0.00000000000E+00  0.13846373605E+03  0.13846373605E+03  0.00000000000E+00 0. -1.
          2   -1    0    0  503    0 -0.00000000000E+00 -0.00000000000E+00 -0.10958662222E+04  0.10958662222E+04  0.00000000000E+00 0. -1.
         24    2    1    2    0    0  0.14938002771E+02 -0.29699819647E+03 -0.37646826633E+03  0.48658944881E+03  0.81301067111E+02 0.  0.
         23    2    1    2    0    0  0.36966010990E+02  0.99339532356E+02 -0.24228496548E+02  0.14086055160E+03  0.89553594543E+02 0.  0.
        -11    1    3    3    0    0 -0.78306140975E+01 -0.55967815697E+02 -0.30194194891E+02  0.64073429096E+02  0.00000000000E+00 0.  1.
         12    1    3    3    0    0  0.22768616869E+02 -0.24103038077E+03 -0.34627407144E+03  0.42251601972E+03  0.00000000000E+00 0. -1.
        -13    1    4    4    0    0 -0.15273766215E+02  0.17957575046E+02  0.23265364689E+02  0.33121588579E+02  0.00000000000E+00 0. -1.
         13    1    4    4    0    0  0.52239777205E+02  0.81381957310E+02 -0.47493861237E+02  0.10773896302E+03  0.00000000000E+00 0.  1.
         21    1    1    2  503  502  0.17830535342E+01  0.31163001194E+02 -0.98600872118E+01  0.32734282383E+02  0.00000000000E+00 0.  1.
          1    1    1    2  501    0 -0.53687067296E+02  0.16649566292E+03 -0.54684563606E+03  0.57414567546E+03  0.00000000000E+00 0. -1.
<scales pt_clust_5="13000.00000" pt_clust_6="13000.00000" pt_clust_7="13000.00000" pt_clust_8="13000.00000" pt_clust_9="31.21397" pt_clust_10="13000.00000"></scales>
<clustering>
<clus scale="   31.214">  1  9  2 -1</clus>
<clus scale="   81.301">  5  6 -1 -1</clus>
<clus scale="   89.554">  7  8 -1 -1</clus>
<clus scale="  178.070">  7 10 -1 -1</clus>
<clus scale="  295.336">  2  5  1 -1</clus>
<clus scale="   31.214">  1  5  2 -1</clus>
</clustering>
</event>
<event>
10    4  0.2866397E-005  0.5074138E+03  0.7546771E-02  0.1061681E+00
         -1   -1    0    0    0  501 -0.00000000000E+00  0.00000000000E+00  0.31186202324E+03  0.31186202324E+03  0.00000000000E+00 0.  1.
         21   -1    0    0  503  502  0.00000000000E+00 -0.00000000000E+00 -0.53840400353E+03  0.53840400353E+03  0.00000000000E+00 0.  1.
         24    2    1    2    0    0 -0.61001990356E+02  0.59356850051E+02  0.13873905800E+03  0.18167217869E+03  0.80695574963E+02 0.  0.
         23    2    1    2    0    0  0.15994878342E+03  0.45258078457E+02 -0.36292245838E+03  0.40934281728E+03  0.90647251944E+02 0.  0.
        -11    1    3    3    0    0 -0.42340251622E+01  0.32554250245E+02  0.10580417024E+03  0.11078009126E+03  0.00000000000E+00 0.  1.
         12    1    3    3    0    0 -0.56767965194E+02  0.26802599806E+02  0.32934887759E+02  0.70892087431E+02  0.00000000000E+00 0. -1.
        -11    1    4    4    0    0  0.20262833644E+02 -0.24730908438E+02 -0.46249085472E+02  0.56224355634E+02  0.00000000000E+00 0. -1.
         11    1    4    4    0    0  0.13968594977E+03  0.69988986896E+02 -0.31667337291E+03  0.35311846165E+03  0.00000000000E+00 0.  1.
         21    1    1    2  503  501 -0.59299437586E+01  0.19176669695E+02 -0.82493551118E+02  0.84900499820E+02  0.00000000000E+00 0.  1.
         -2    1    1    2    0  502 -0.93016849301E+02 -0.12379159820E+03  0.80134971207E+02  0.17435053097E+03  0.00000000000E+00 0.  1.
<scales pt_clust_5="13000.00000" pt_clust_6="13000.00000" pt_clust_7="13000.00000" pt_clust_8="13000.00000" pt_clust_9="20.07259" pt_clust_10="13000.00000"></scales>
<clustering>
<clus scale="   20.073">  2  9  1 -1</clus>
<clus scale="   80.696">  5  6 -1 -1</clus>
<clus scale="   90.647">  7  8 -1 -1</clus>
<clus scale="  117.893">  1  5  2 -1</clus>
<clus scale="  161.536">  7 10 -1 -1</clus>
<clus scale="   20.073">  2  5  1 -1</clus>
</clustering>
</event>
<event>
10    4  0.2866397E-005  0.2383894E+03  0.7546771E-02  0.1133896E+00
          2   -1    0    0  502    0 -0.00000000000E+00  0.00000000000E+00  0.37412514678E+03  0.37412514678E+03  0.00000000000E+00 0. -1.
         21   -1    0    0  503  502  0.00000000000E+00 -0.00000000000E+00 -0.18414434004E+03  0.18414434004E+03  0.00000000000E+00 0.  1.
         24    2    1    2    0    0  0.13582277931E+03 -0.37140058618E+02  0.38907527634E+02  0.16710437640E+03  0.81134860400E+02 0.  0.
         23    2    1    2    0    0 -0.10480992756E+03 -0.26575702355E+02  0.98231862821E+02  0.17032529823E+03  0.87577505521E+02 0.  0.
        -11    1    3    3    0    0  0.12761996831E+03 -0.68916454428E+01  0.44374477366E+02  0.13529022629E+03  0.00000000000E+00 0.  1.
         12    1    3    3    0    0  0.82028110006E+01 -0.30248413175E+02 -0.54669497312E+01  0.31814150111E+02  0.00000000000E+00 0. -1.
        -13    1    4    4    0    0 -0.32046384898E+02  0.26774503936E+02  0.76119798690E+01  0.42447462629E+02  0.00000000000E+00 0.  1.
         13    1    4    4    0    0 -0.72763542664E+02 -0.53350206291E+02  0.90619882952E+02  0.12787783560E+03  0.00000000000E+00 0. -1.
         21    1    1    2  503  501  0.13434774930E+02 -0.30809754018E+02 -0.58940109720E+02  0.67850354854E+02  0.00000000000E+00 0.  1.
          1    1    1    2  501    0 -0.44447626677E+02  0.94525514990E+02  0.11178152600E+03  0.15298945734E+03  0.00000000000E+00 0. -1.
<scales pt_clust_5="13000.00000" pt_clust_6="13000.00000" pt_clust_7="13000.00000" pt_clust_8="13000.00000" pt_clust_9="33.61152" pt_clust_10="13000.00000"></scales>
<clustering>
<clus scale="   33.612">  2  9  1 -1</clus>
<clus scale="   81.135">  5  6 -1 -1</clus>
<clus scale="   87.578">  7  8 -1 -1</clus>
<clus scale="   98.721">  7 10 -1 -1</clus>
<clus scale="  172.860">  1  5  2 -1</clus>
<clus scale="   33.612">  2  5  1 -1</clus>
</clustering>
</event>
<event>
10    4  0.2866397E-005  0.3955060E+03  0.7546771E-02  0.1099803E+00
          2   -1    0    0  503    0 -0.00000000000E+00  0.00000000000E+00  0.35247834735E+03  0.35247834735E+03  0.00000000000E+00 0. -1.
         21   -1    0    0  501  502  0.00000000000E+00 -0.00000000000E+00 -0.26905314936E+03  0.26905314936E+03  0.00000000000E+00 0. -1.
         24    2    1    2    0    0  0.35147425380E+02 -0.22974737899E+02  0.16970258611E+03  0.19153419112E+03  0.78250869279E+02 0.  0.
         23    2    1    2    0    0  0.21635732832E+02 -0.16031477845E+03 -0.72210945991E+02  0.19929399883E+03  0.91294819819E+02 0.  0.
        -11    1    3    3    0    0  0.27716607130E+02  0.12106237423E+02  0.17036736401E+02  0.34713422224E+02  0.00000000000E+00 0.  1.
         12    1    3    3    0    0  0.74308182501E+01 -0.35080975322E+02  0.15266584971E+03  0.15682076890E+03  0.00000000000E+00 0. -1.
        -13    1    4    4    0    0 -0.11162482049E+02 -0.82457602997E+02 -0.78738991276E+02  0.11455865766E+03  0.00000000000E+00 0. -1.
         13    1    4    4    0    0  0.32798214880E+02 -0.77857175453E+02  0.65280452848E+01  0.84735341175E+02  0.00000000000E+00 0.  1.
         21    1    1    2  503  502  0.19918009865E+02 -0.99602569893E+01  0.54001912970E+00  0.22276118534E+02  0.00000000000E+00 0. -1.
          1    1    1    2  501    0 -0.76701168077E+02  0.19324977334E+03 -0.14606461254E+02  0.20842718822E+03  0.00000000000E+00 0. -1.
<scales pt_clust_5="13000.00000" pt_clust_6="13000.00000" pt_clust_7="13000.00000" pt_clust_8="13000.00000" pt_clust_9="22.26957" pt_clust_10="13000.00000"></scales>
<clustering>
<clus scale="   22.270">  2  9  1 -1</clus>
<clus scale="   78.251">  5  6 -1 -1</clus>
<clus scale="   89.251">  1  5  2 -1</clus>
<clus scale="   91.295">  7  8 -1 -1</clus>
<clus scale="  182.297">  7 10 -1 -1</clus>
<clus scale="   22.270">  2  5  1 -1</clus>
</clustering>
</event>
<event>
10    4  0.2866397E-005  0.3063976E+03  0.7546771E-02  0.1103232E+00
         21   -1    0    0  501  502  0.00000000000E+00  0.00000000000E+00  0.15772437218E+03  0.15772437218E+03  0.00000000000E+00 0.  1.
          2   -1    0    0  503    0 -0.00000000000E+00 -0.00000000000E+00 -0.95373749196E+03  0.95373749196E+03  0.00000000000E+00 0. -1.
         24    2    1    2    0    0 -0.10833320362E+03  0.77108486660E+02 -0.19152075163E+03  0.24652865839E+03  0.80089820700E+02 0.  0.
         23    2    1    2    0    0 -0.29621313025E+02  0.28007254857E+01 -0.22146319456E+03  0.24136090829E+03  0.91235274172E+02 0.  0.
        -11    1    3    3    0    0 -0.11388022029E+03  0.68148899355E+02 -0.13602582169E+03  0.19004210382E+03  0.00000000000E+00 0.  1.
         12    1    3    3    0    0  0.55470166662E+01  0.89595873049E+01 -0.55494929935E+02  0.56486554569E+02  0.00000000000E+00 0. -1.
        -11    1    4    4    0    0 -0.90593115657E+01  0.43367853585E+02 -0.15206432703E+03  0.15838687258E+03  0.00000000000E+00 0.  1.
         11    1    4    4    0    0 -0.20562001459E+02 -0.40567128099E+02 -0.69398867532E+02  0.82974035704E+02  0.00000000000E+00 0. -1.
         21    1    1    2  503  502 -0.10053555755E+03 -0.72214761811E+02  0.46488203244E+02  0.13222527443E+03  0.00000000000E+00 0.  1.
          1    1    1    2  501    0  0.23849007420E+03 -0.76944503343E+01 -0.42951737683E+03  0.49134702305E+03  0.00000000000E+00 0. -1.
<scales pt_clust_5="13000.00000" pt_clust_6="13000.00000" pt_clust_7="13000.00000" pt_clust_8="13000.00000" pt_clust_9="123.78356" pt_clust_10="13000.00000"></scales>
<clustering>
<clus scale="   80.090">  5  6 -1 -1</clus>
<clus scale="   91.235">  7  8 -1 -1</clus>
<clus scale="  123.784">  1  9  2 -1</clus>
<clus scale="  175.667">  2  5  1 -1</clus>
<clus scale="  114.433">  7 10 -1 -1</clus>
<clus scale="  123.784">  1  5  2 -1</clus>
</clustering>
</event>
<event>
10    4  0.2866397E-005  0.2048166E+03  0.7546771E-02  0.1179150E+00
         21   -1    0    0  503  502  0.00000000000E+00  0.00000000000E+00  0.76238541095E+02  0.76238541095E+02  0.00000000000E+00 0.  1.
          2   -1    0    0  502    0 -0.00000000000E+00 -0.00000000000E+00 -0.61523832243E+03  0.61523832243E+03  0.00000000000E+00 0. -1.
         24    2    1    2    0    0 -0.53943670074E+02 -0.26416549397E+02 -0.31278058883E+02  0.10513140869E+03  0.80414815197E+02 0.  0.
         23    2    1    2    0    0 -0.35141071776E+02  0.81028116960E+02 -0.30627665204E+03  0.33098837753E+03  0.89148571531E+02 0.  0.
        -13    1    3    3    0    0 -0.49395286345E+02 -0.53140113466E+02 -0.17100357352E+02  0.74539842996E+02  0.00000000000E+00 0.  1.
         14    1    3    3    0    0 -0.45483837290E+01  0.26723564069E+02 -0.14177701530E+02  0.30591565697E+02  0.00000000000E+00 0. -1.
        -13    1    4    4    0    0 -0.43431486510E+01  0.89585678517E+02 -0.25747991261E+03  0.27265429051E+03  0.00000000000E+00 0.  1.
         13    1    4    4    0    0 -0.30797923125E+02 -0.85575615572E+01 -0.48796739434E+02  0.58334087016E+02  0.00000000000E+00 0. -1.
         21    1    1    2  503  501  0.25389083832E+02 -0.92238276957E+01  0.10852095036E+02  0.29111038145E+02  0.00000000000E+00 0.  1.
          1    1    1    2  501    0  0.63695658017E+02 -0.45387739867E+02 -0.21229716544E+03  0.22624603916E+03  0.00000000000E+00 0. -1.
<scales pt_clust_5="13000.00000" pt_clust_6="13000.00000" pt_clust_7="13000.00000" pt_clust_8="13000.00000" pt_clust_9="27.01267" pt_clust_10="13000.00000"></scales>
<clustering>
<clus scale="   27.013">  1  9  2 -1</clus>
<clus scale="   80.415">  5  6 -1 -1</clus>
<clus scale="   89.149">  7  8 -1 -1</clus>
<clus scale="   81.444">  7 10 -1 -1</clus>
<clus scale="   94.396">  2  5  1 -1</clus>
<clus scale="   27.013">  1  5  2 -1</clus>
</clustering>
</event>
<event>
10    4  0.2866397E-005  0.1913069E+03  0.7546771E-02  0.1173143E+00
          2   -1    0    0  502    0 -0.00000000000E+00  0.00000000000E+00  0.16829265982E+04  0.16829265982E+04  0.00000000000E+00 0. -1.
         21   -1    0    0  503  502  0.00000000000E+00 -0.00000000000E+00 -0.24307483697E+02  0.24307483697E+02  0.00000000000E+00 0.  1.
         24    2    1    2    0    0 -0.11397953440E+03 -0.93557010691E+01  0.90187524390E+03  0.91246228429E+03  0.78291770281E+02 0.  0.
         23    2    1    2    0    0  0.34768497034E+02  0.34570100285E+02  0.30654675620E+03  0.32394199574E+03  0.92539519389E+02 0.  0.
        -11    1    3    3    0    0 -0.76913598623E+02 -0.26391319197E+02  0.36072173264E+03  0.36977340599E+03  0.00000000000E+00 0.  1.
         12    1    3    3    0    0 -0.37065935777E+02  0.17035618128E+02  0.54115351126E+03  0.54268887830E+03  0.00000000000E+00 0. -1.
        -13    1    4    4    0    0 -0.30610888579E+02  0.67659026636E+01  0.12790930233E+03  0.13169507796E+03  0.00000000000E+00 0. -1.
         13    1    4    4    0    0  0.65379385612E+02  0.27804197621E+02  0.17863745387E+03  0.19224691777E+03  0.00000000000E+00 0.  1.
         21    1    1    2  503  501  0.21950250114E+02  0.50620011206E+01  0.79859080162E+01  0.23900043144E+02  0.00000000000E+00 0.  1.
          1    1    1    2  501    0  0.57260787251E+02 -0.30276400336E+02  0.44221120639E+03  0.44692975872E+03  0.00000000000E+00 0. -1.
<scales pt_clust_5="13000.00000" pt_clust_6="13000.00000" pt_clust_7="13000.00000" pt_clust_8="13000.00000" pt_clust_9="22.52637" pt_clust_10="13000.00000"></scales>
<clustering>
<clus scale="   22.526">  2  9  1 -1</clus>
<clus scale="   78.292">  5  6 -1 -1</clus>
<clus scale="   92.540">  7  8 -1 -1</clus>
<clus scale="   67.265">  7 10 -1 -1</clus>
<clus scale="  132.706">  1  5  2 -1</clus>
<clus scale="   22.526">  2  5  1 -1</clus>
</clustering>
</event>
<event>
10    4  0.2866397E-005  0.3102279E+03  0.7546771E-02  0.1126133E+00
          2   -1    0    0  503    0 -0.00000000000E+00  0.00000000000E+00  0.99614669211E+03  0.99614669211E+03  0.00000000000E+00 0. -1.
         21   -1    0    0  501  502  0.00000000000E+00 -0.00000000000E+00 -0.16794639303E+03  0.16794639303E+03  0.00000000000E+00 0. -1.
         24    2    1    2    0    0  0.26453255514E+02  0.41960194142E+02  0.79057803029E+03  0.79624151345E+03  0.80786713895E+02 0.  0.
         23    2    1    2    0    0  0.27534734656E+02 -0.13054333173E+03  0.49656714629E+02  0.17524581578E+03  0.10220363775E+03 0.  0.
        -11    1    3    3    0    0 -0.83433236633E+01  0.36925655323E+02  0.15013763681E+03  0.15483676907E+03  0.00000000000E+00 0.  1.
         12    1    3    3    0    0  0.34796579177E+02  0.50345388184E+01  0.64044039348E+03  0.64140474437E+03  0.00000000000E+00 0. -1.
        -13    1    4    4    0    0 -0.29075835480E+02 -0.69166034566E+02 -0.54111340517E+01  0.75223832116E+02  0.00000000000E+00 0.  1.
         13    1    4    4    0    0  0.56610570136E+02 -0.61377297163E+02  0.55067848681E+02  0.10002198367E+03  0.00000000000E+00 0. -1.
         21    1    1    2  503  502  0.30995463428E+02 -0.53383118461E+01  0.44013749845E+02  0.54096455539E+02  0.00000000000E+00 0. -1.
          1    1    1    2  501    0 -0.84983453598E+02  0.93921449434E+02 -0.56048195681E+02  0.13850930037E+03  0.00000000000E+00 0. -1.
<scales pt_clust_5="13000.00000" pt_clust_6="13000.00000" pt_clust_7="13000.00000" pt_clust_8="13000.00000" pt_clust_9="31.45183" pt_clust_10="13000.00000"></scales>
<clustering>
<clus scale="   31.452">  2  9  1 -1</clus>
<clus scale="   80.787">  5  6 -1 -1</clus>
<clus scale="   94.910">  1  5  2 -1</clus>
<clus scale="  102.204">  7  8 -1 -1</clus>
<clus scale="  119.222">  7 10 -1 -1</clus>
<clus scale="   31.452">  2  5  1 -1</clus>
</clustering>
</event>
<event>
10    4  0.2866397E-005  0.1909588E+03  0.7546771E-02  0.1163746E+00
         21   -1    0    0  501  502  0.00000000000E+00  0.00000000000E+00  0.58541181766E+03  0.58541181766E+03  0.00000000000E+00 0. -1.
          4   -1    0    0  503    0 -0.00000000000E+00 -0.00000000000E+00 -0.87670423549E+02  0.87670423549E+02  0.00000000000E+00 0. -1.
         24    2    1    2    0    0  0.63229346935E+02  0.15784379208E+03  0.24518187775E+03  0.30882930322E+03  0.79679183856E+02 0.  0.
         23    2    1    2    0    0 -0.50270149725E+02 -0.95668813708E+02  0.11083009724E+03  0.18030261460E+03  0.92445186509E+02 0.  0.
        -11    1    3    3    0    0  0.23685804834E+02  0.29781254554E+02  0.12046190804E+02  0.39913045315E+02  0.00000000000E+00 0.  1.
         12    1    3    3    0    0  0.39543542101E+02  0.12806253753E+03  0.23313568694E+03  0.26891625790E+03  0.00000000000E+00 0. -1.
        -11    1    4    4    0    0  0.26335919352E+02 -0.14586124775E+02  0.17231170639E+02  0.34687878656E+02  0.00000000000E+00 0.  1.
         11    1    4    4    0    0 -0.76606069077E+02 -0.81082688932E+02  0.93598926600E+02  0.14561473595E+03  0.00000000000E+00 0. -1.
         21    1    1    2  503  502 -0.71806201887E+01 -0.39015105036E+02  0.15263584069E+03  0.15770681530E+03  0.00000000000E+00 0. -1.
          3    1    1    2  501    0 -0.57785770210E+01 -0.23159873338E+02 -0.10906421568E+02  0.26243508089E+02  0.00000000000E+00 0. -1.
<scales pt_clust_5="13000.00000" pt_clust_6="13000.00000" pt_clust_7="13000.00000" pt_clust_8="13000.00000" pt_clust_9="39.67039" pt_clust_10="13000.00000"></scales>
<clustering>
<clus scale="   39.670">  1  9  2 -1</clus>
<clus scale="   79.679">  5  6 -1 -1</clus>
<clus scale="   92.445">  7  8 -1 -1</clus>
<clus scale="   24.576">  7 10 -1 -1</clus>
<clus scale="  165.527">  2  5  1 -1</clus>
<clus scale="   39.670">  1  5  2 -1</clus>
</clustering>
</event>
<event>
10    4  0.2866397E-005  0.2958068E+03  0.7546771E-02  0.1117329E+00
          2   -1    0    0  502    0 -0.00000000000E+00  0.00000000000E+00  0.15073361391E+04  0.15073361391E+04  0.00000000000E+00 0. -1.
         21   -1    0    0  503  502  0.00000000000E+00 -0.00000000000E+00 -0.50124675510E+02  0.50124675510E+02  0.00000000000E+00 0. -1.
         24    2    1    2    0    0 -0.88082210274E+02 -0.79604268088E+02  0.70962294503E+03  0.72364547775E+03  0.77477339266E+02 0.  0.
         23    2    1    2    0    0 -0.78827296584E+02  0.44197067973E+02  0.35834418798E+03  0.38320736350E+03  0.10134200943E+03 0.  0.
        -13    1    3    3    0    0 -0.74881992432E+02 -0.66553463193E+02  0.36430783769E+03  0.37783181027E+03  0.00000000000E+00 0.  1.
         14    1    3    3    0    0 -0.13200217841E+02 -0.13050804895E+02  0.34531510734E+03  0.34581366748E+03  0.00000000000E+00 0. -1.
        -11    1    4    4    0    0 -0.90365728397E+02  0.21433876706E+02  0.33812545719E+03  0.35064825785E+03  0.00000000000E+00 0. -1.
         11    1    4    4    0    0  0.11538431813E+02  0.22763191267E+02  0.20218730794E+02  0.32559105643E+02  0.00000000000E+00 0.  1.
         21    1    1    2  503  501  0.15308403244E+02  0.30094870003E+02  0.99830130548E+00  0.33779357837E+02  0.00000000000E+00 0.  1.
          1    1    1    2  501    0  0.15160110361E+03  0.53123301111E+01  0.38824602930E+03  0.41682861554E+03  0.00000000000E+00 0. -1.
<scales pt_clust_5="13000.00000" pt_clust_6="13000.00000" pt_clust_7="13000.00000" pt_clust_8="13000.00000" pt_clust_9="33.76460" pt_clust_10="13000.00000"></scales>
<clustering>
<clus scale="   33.765">  2  9  1 -1</clus>
<clus scale="   77.477">  5  6 -1 -1</clus>
<clus scale="  101.342">  7  8 -1 -1</clus>
<clus scale="  136.349">  1  5  2 -1</clus>
<clus scale="  114.533">  7 10 -1 -1</clus>
<clus scale="   33.765">  2  5  1 -1</clus>
</clustering>
</event>
<event>
10    4  0.2866397E-005  0.2867692E+03  0.7546771E-02  0.1101861E+00
         21   -1    0    0  501  502  0.00000000000E+00  0.00000000000E+00  0.27039362128E+03  0.27039362128E+03  0.00000000000E+00 0. -1.
          2   -1    0    0  503    0 -0.00000000000E+00 -0.00000000000E+00 -0.56190026804E+03  0.56190026804E+03  0.00000000000E+00 0. -1.
         24    2    1    2    0    0  0.19952049525E+03 -0.40676679112E+02 -0.40440552606E+03  0.45981271866E+03  0.80130434175E+02 0.  0.
         23    2    1    2    0    0 -0.10902895453E+03  0.14897012291E+02 -0.17472094219E+02  0.14364365123E+03  0.90658648572E+02 0.  0.
        -13    1    3    3    0    0  0.82977353668E+02  0.16824634494E+02 -0.11729070975E+03  0.14465621363E+03  0.00000000000E+00 0.  1.
         14    1    3    3    0    0  0.11654314158E+03 -0.57501313605E+02 -0.28711481631E+03  0.31515650503E+03  0.00000000000E+00 0. -1.
        -13    1    4    4    0    0 -0.25423553181E+02 -0.35474839293E+02 -0.14504212691E+02  0.45991232480E+02  0.00000000000E+00 0. -1.
         13    1    4    4    0    0 -0.83605401350E+02  0.50371851584E+02 -0.29678815272E+01  0.97652418750E+02  0.00000000000E+00 0.  1.
         21    1    1    2  503  502  0.35431993932E+02  0.18602140679E+02 -0.88437506397E+01  0.40983871915E+02  0.00000000000E+00 0. -1.
          1    1    1    2  501    0 -0.12592353465E+03  0.71775261420E+01  0.13921472416E+03  0.18785364751E+03  0.00000000000E+00 0. -1.
<scales pt_clust_5="13000.00000" pt_clust_6="13000.00000" pt_clust_7="13000.00000" pt_clust_8="13000.00000" pt_clust_9="40.01832" pt_clust_10="13000.00000"></scales>
<clustering>
<clus scale="   40.018">  1  9  2 -1</clus>
<clus scale="   80.130">  5  6 -1 -1</clus>
<clus scale="   90.659">  7  8 -1 -1</clus>
<clus scale="  104.901">  7 10 -1 -1</clus>
<clus scale="  221.987">  2  5  1 -1</clus>
<clus scale="   40.018">  1  5  2 -1</clus>
</clustering>
</event>
<event>
10    4  0.2866397E-005  0.8332300E+03  0.7546771E-02  0.1004111E+00
          2   -1    0    0  502    0 -0.00000000000E+00  0.00000000000E+00  0.14738903879E+04  0.14738903879E+04  0.00000000000E+00 0. -1.
         21   -1    0    0  503  502  0.00000000000E+00 -0.00000000000E+00 -0.19972341763E+03  0.19972341763E+03  0.00000000000E+00 0. -1.
         24    2    1    2    0    0 -0.75951775222E+02 -0.88887780015E+02  0.14395703884E+03  0.20199535207E+03  0.80054878858E+02 0.  0.
         23    2    1    2    0    0  0.99807211331E+02  0.36025741325E+03  0.11241532235E+04  0.11882026845E+04  0.91423555083E+02 0.  0.
        -11    1    3    3    0    0 -0.56854400809E+02 -0.67314253190E+01  0.54494819417E+02  0.79040624500E+02  0.00000000000E+00 0.  1.
         12    1    3    3    0    0 -0.19097374413E+02 -0.82156354696E+02  0.89462219424E+02  0.12295472757E+03  0.00000000000E+00 0. -1.
        -13    1    4    4    0    0  0.63227969129E+02  0.30920565307E+03  0.84354142595E+03  0.90064868248E+03  0.00000000000E+00 0. -1.
         13    1    4    4    0    0  0.36579242202E+02  0.51051760183E+02  0.28061179752E+03  0.28755400204E+03  0.00000000000E+00 0.  1.
         21    1    1    2  503  501 -0.49124689321E+00 -0.35285743889E+02 -0.26259915064E+02  0.43987591256E+02  0.00000000000E+00 0. -1.
          1    1    1    2  501    0 -0.23364189216E+02 -0.23608388935E+03  0.32316623022E+02  0.23942817769E+03  0.00000000000E+00 0. -1.
<scales pt_clust_5="13000.00000" pt_clust_6="13000.00000" pt_clust_7="13000.00000" pt_clust_8="13000.00000" pt_clust_9="35.28916" pt_clust_10="13000.00000"></scales>
<clustering>
<clus scale="   35.289">  2  9  1 -1</clus>
<clus scale="   80.055">  5  6 -1 -1</clus>
<clus scale="   91.424">  7  8 -1 -1</clus>
<clus scale="  145.727">  1  5  2 -1</clus>
<clus scale="  272.906">  7 10 -1 -1</clus>
<clus scale="   35.289">  2  5  1 -1</clus>
</clustering>
</event>
<event>
10    4  0.2866397E-005  0.3620946E+03  0.7546771E-02  0.1099588E+00
          2   -1    0    0  503    0 -0.00000000000E+00  0.00000000000E+00  0.15464607895E+04  0.15464607895E+04  0.00000000000E+00 0. -1.
         21   -1    0    0  501  502  0.00000000000E+00 -0.00000000000E+00 -0.66856480882E+02  0.66856480882E+02  0.00000000000E+00 0.  1.
         24    2    1    2    0    0 -0.45729569181E+02 -0.80436409453E+02  0.34001183335E+03  0.36164589721E+03  0.81354155914E+02 0.  0.
         23    2    1    2    0    0 -0.44339396822E+02 -0.72129116058E+02  0.15791120496E+03  0.20099565562E+03  0.91075317375E+02 0.  0.
        -13    1    3    3    0    0 -0.37114861085E+02 -0.69343094008E+02  0.13565100414E+03  0.15680297358E+03  0.00000000000E+00 0.  1.
         14    1    3    3    0    0 -0.86147080965E+01 -0.11093315445E+02  0.20436082922E+03  0.20484292363E+03  0.00000000000E+00 0. -1.
        -11    1    4    4    0    0 -0.47438117975E+02 -0.31185077609E+02  0.25263341552E+02  0.62137915389E+02  0.00000000000E+00 0.  1.
         11    1    4    4    0    0  0.30987211534E+01 -0.40944038449E+02  0.13264786341E+03  0.13885774024E+03  0.00000000000E+00 0. -1.
         21    1    1    2  503  502  0.15151064799E+02  0.25500354274E+02 -0.21546618217E+02  0.36661691031E+02  0.00000000000E+00 0.  1.
          1    1    1    2  501    0  0.74917901204E+02  0.12706517124E+03  0.10032278885E+04  0.10140140265E+04  0.00000000000E+00 0. -1.
<scales pt_clust_5="13000.00000" pt_clust_6="13000.00000" pt_clust_7="13000.00000" pt_clust_8="13000.00000" pt_clust_9="29.66181" pt_clust_10="13000.00000"></scales>
<clustering>
<clus scale="   29.662">  2  9  1 -1</clus>
<clus scale="   81.354">  5  6 -1 -1</clus>
<clus scale="   91.075">  7  8 -1 -1</clus>
<clus scale="  116.959">  1  5  2 -1</clus>
<clus scale="   78.570">  7 10 -1 -1</clus>
<clus scale="   29.662">  2  5  1 -1</clus>
</clustering>
</event>
<event>
10    4  0.2866397E-005  0.2773146E+03  0.7546771E-02  0.1139462E+00
          2   -1    0    0  503    0 -0.00000000000E+00  0.00000000000E+00  0.10577324254E+04  0.10577324254E+04  0.00000000000E+00 0. -1.
         21   -1    0    0  501  502  0.00000000000E+00 -0.00000000000E+00 -0.43915478937E+02  0.43915478937E+02  0.00000000000E+00 0. -1.
         24    2    1    2    0    0  0.33008826281E+02 -0.45763310045E+02  0.32145718427E+03  0.33432747096E+03  0.72500161084E+02 0.  0.
         23    2    1    2    0    0  0.34007244464E+02 -0.64245861706E+02  0.34287001332E+03  0.36185076489E+03  0.89956137082E+02 0.  0.
        -13    1    3    3    0    0  0.40057542720E+02 -0.20071206942E+02  0.82427285241E+02  0.93817468678E+02  0.00000000000E+00 0.  1.
         14    1    3    3    0    0 -0.70487164391E+01 -0.25692103103E+02  0.23902989903E+03  0.24051000228E+03  0.00000000000E+00 0. -1.
        -11    1    4    4    0    0  0.56570066273E+02 -0.67283007916E+02  0.30724439931E+03  0.31957205206E+03  0.00000000000E+00 0. -1.
         11    1    4    4    0    0 -0.22562821809E+02  0.30371462101E+01  0.35625614006E+02  0.42278712828E+02  0.00000000000E+00 0.  1.
         21    1    1    2  503  502  0.22686135686E+02 -0.27776057667E+02  0.32590747863E+02  0.48459539599E+02  0.00000000000E+00 0. -1.
          1    1    1    2  501    0 -0.89702206431E+02  0.13778522942E+03  0.31689900096E+03  0.35701012884E+03  0.00000000000E+00 0. -1.
<scales pt_clust_5="13000.00000" pt_clust_6="13000.00000" pt_clust_7="13000.00000" pt_clust_8="13000.00000" pt_clust_9="35.86321" pt_clust_10="13000.00000"></scales>
<clustering>
<clus scale="   35.863">  2  9  1 -1</clus>
<clus scale="   72.500">  5  6 -1 -1</clus>
<clus scale="   89.956">  7  8 -1 -1</clus>
<clus scale="   95.936">  1  5  2 -1</clus>
<clus scale="  119.125">  7 10 -1 -1</clus>
<clus scale="   35.863">  2  5  1 -1</clus>
</clustering>
</event>
<event>
10    4  0.2866397E-005  0.8279942E+03  0.7546771E-02  0.1015974E+00
         21   -1    0    0  501  502  0.00000000000E+00  0.00000000000E+00  0.94077501021E+03  0.94077501021E+03  0.00000000000E+00 0.  1.
          2   -1    0    0  503    0 -0.00000000000E+00 -0.00000000000E+00 -0.18333565396E+04  0.18333565396E+04  0.00000000000E+00 0. -1.
         24    2    1    2    0    0 -0.60203031824E+02 -0.25204695856E+02 -0.90427397865E+02  0.13702682402E+03  0.79621319277E+02 0.  0.
         23    2    1    2    0    0  0.39757746095E+02  0.29195065052E+03 -0.39834556559E+03  0.50175352547E+03  0.79129956284E+02 0.  0.
        -11    1    3    3    0    0 -0.35855858183E+02 -0.51031021588E+02 -0.35892515721E+02  0.71958880030E+02  0.00000000000E+00 0.  1.
         12    1    3    3    0    0 -0.24347173641E+02  0.25826325732E+02 -0.54534882144E+02  0.65067943994E+02  0.00000000000E+00 0. -1.
        -13    1    4    4    0    0  0.44599170520E+02  0.12992912174E+03 -0.23111031527E+03  0.26885431094E+03  0.00000000000E+00 0.  1.
         13    1    4    4    0    0 -0.48414244259E+01  0.16202152878E+03 -0.16723525032E+03  0.23289921453E+03  0.00000000000E+00 0. -1.
         21    1    1    2  503  502 -0.40213931821E+03  0.57945516790E+02  0.75639488175E+03  0.85860755372E+03  0.00000000000E+00 0.  1.
          1    1    1    2  501    0  0.42258460394E+03 -0.32469147145E+03 -0.11602034477E+04  0.12767436466E+04  0.00000000000E+00 0. -1.
<scales pt_clust_5="13000.00000" pt_clust_6="13000.00000" pt_clust_7="13000.00000" pt_clust_8="13000.00000" pt_clust_9="407.95794" pt_clust_10="13000.00000"></scales>
<clustering>
<clus scale="   79.130">  7  8 -1 -1</clus>
<clus scale="   79.621">  5  6 -1 -1</clus>
<clus scale="  102.953">  2  5  1 -1</clus>
<clus scale="  407.958">  1  9  2 -1</clus>
<clus scale="  355.567">  7 10 -1 -1</clus>
<clus scale="  407.958">  1  5  2 -1</clus>
</clustering>
</event>
<event>
10    4  0.2866397E-005  0.1861817E+03  0.7546771E-02  0.1196249E+00
         21   -1    0    0  501  502  0.00000000000E+00  0.00000000000E+00  0.46352777158E+02  0.46352777158E+02  0.00000000000E+00 0.  1.
          2   -1    0    0  503    0 -0.00000000000E+00 -0.00000000000E+00 -0.52567283796E+03  0.52567283796E+03  0.00000000000E+00 0. -1.
         24    2    1    2    0    0 -0.18164772612E+02 -0.27996882781E+02 -0.15954230621E+03  0.18190560702E+03  0.80759630902E+02 0.  0.
         23    2    1    2    0    0  0.84030132851E+02  0.23072070618E+02 -0.19355837367E+03  0.23134541226E+03  0.91991695754E+02 0.  0.
        -13    1    3    3    0    0 -0.25476957899E+02  0.18273749327E+02 -0.10706556613E+03  0.11156182478E+03  0.00000000000E+00 0.  1.
         14    1    3    3    0    0  0.73121852866E+01 -0.46270632108E+02 -0.52476740081E+02  0.70343782233E+02  0.00000000000E+00 0. -1.
        -13    1    4    4    0    0 -0.11785850854E+01  0.32800902886E+02 -0.21906305821E+02  0.39461050767E+02  0.00000000000E+00 0. -1.
         13    1    4    4    0    0  0.85208717937E+02 -0.97288322682E+01 -0.17165206785E+03  0.19188436149E+03  0.00000000000E+00 0.  1.
         21    1    1    2  503  502 -0.11106406743E+02  0.25602884546E+02 -0.11895371145E+02  0.30337432694E+02  0.00000000000E+00 0. -1.
          1    1    1    2  501    0 -0.54758953496E+02 -0.20678072383E+02 -0.11432400978E+03  0.12843716315E+03  0.00000000000E+00 0. -1.
<scales pt_clust_5="13000.00000" pt_clust_6="13000.00000" pt_clust_7="13000.00000" pt_clust_8="13000.00000" pt_clust_9="27.90806" pt_clust_10="13000.00000"></scales>
<clustering>
<clus scale="   27.908">  1  9  2 -1</clus>
<clus scale="   80.760">  5  6 -1 -1</clus>
<clus scale="   86.002">  2  5  1 -1</clus>
<clus scale="   91.992">  7  8 -1 -1</clus>
<clus scale="   68.891">  7 10 -1 -1</clus>
<clus scale="   27.908">  1  5  2 -1</clus>
</clustering>
</event>
<event>
10    4  0.2866397E-005  0.3195844E+03  0.7546771E-02  0.1091110E+00
          4   -1    0    0  503    0 -0.00000000000E+00  0.00000000000E+00  0.30088576825E+03  0.30088576825E+03  0.00000000000E+00 0. -1.
         21   -1    0    0  501  502  0.00000000000E+00 -0.00000000000E+00 -0.73655420093E+03  0.73655420093E+03  0.00000000000E+00 0. -1.
         24    2    1    2    0    0 -0.19850903965E+03  0.43574903143E+02  0.20418974185E+03  0.29608540989E+03  0.68326482873E+02 0.  0.
         23    2    1    2    0    0  0.76896426921E+02 -0.18700719677E+02 -0.69696674111E+02  0.14075917671E+03  0.93234875744E+02 0.  0.
        -11    1    3    3    0    0 -0.78444339066E+02  0.25627290219E+02  0.39508560166E+02  0.91494254802E+02  0.00000000000E+00 0.  1.
         12    1    3    3    0    0 -0.12006470059E+03  0.17947612924E+02  0.16468118169E+03  0.20459115509E+03  0.00000000000E+00 0. -1.
        -11    1    4    4    0    0  0.76898912724E+01  0.24438758320E+02  0.92659503223E+01  0.27244176834E+02  0.00000000000E+00 0. -1.
         11    1    4    4    0    0  0.69206535649E+02 -0.43139477998E+02 -0.78962624433E+02  0.11351499987E+03  0.00000000000E+00 0.  1.
         21    1    1    2  503  502  0.41112705149E+02  0.50969538893E+02 -0.11646299752E+03  0.13361054678E+03  0.00000000000E+00 0. -1.
          3    1    1    2  501    0  0.80499907584E+02 -0.75843722359E+02 -0.45369850290E+03  0.46698483581E+03  0.00000000000E+00 0. -1.
<scales pt_clust_5="13000.00000" pt_clust_6="13000.00000" pt_clust_7="13000.00000" pt_clust_8="13000.00000" pt_clust_9="65.48396" pt_clust_10="13000.00000"></scales>
<clustering>
<clus scale="   65.484">  2  9  1 -1</clus>
<clus scale="   68.326">  5  6 -1 -1</clus>
<clus scale="   93.235">  7  8 -1 -1</clus>
<clus scale="  117.581">  7 10 -1 -1</clus>
<clus scale="  212.379">  1  5  2 -1</clus>
<clus scale="   65.484">  2  5  1 -1</clus>
</clustering>
</event>
<event>
10    4  0.2866397E-005  0.6241302E+03  0.7546771E-02  0.1007145E+00
         21   -1    0    0  501  502  0.00000000000E+00  0.00000000000E+00  0.31301763749E+03  0.31301763749E+03  0.00000000000E+00 0. -1.
          2   -1    0    0  503    0 -0.00000000000E+00 -0.00000000000E+00 -0.16184108973E+04  0.16184108973E+04  0.00000000000E+00 0. -1.
         24    2    1    2    0    0  0.20000622672E+03 -0.16735839220E+03 -0.27271453980E+03  0.38574989983E+03  0.80115184789E+02 0.  0.
         23    2    1    2    0    0  0.55102145546E+02 -0.66962160458E+02 -0.54272179191E+02  0.13609204165E+03  0.89751863436E+02 0.  0.
        -11    1    3    3    0    0  0.65912833422E+02 -0.52790287696E+02 -0.39168522957E+02  0.93088609805E+02  0.00000000000E+00 0.  1.
         12    1    3    3    0    0  0.13409339330E+03 -0.11456810450E+03 -0.23354601685E+03  0.29266129003E+03  0.00000000000E+00 0. -1.
        -11    1    4    4    0    0  0.18975871293E+02 -0.60250765458E+02  0.81157947740E+01  0.63687554156E+02  0.00000000000E+00 0. -1.
         11    1    4    4    0    0  0.36126274253E+02 -0.67113949999E+01 -0.62387973965E+02  0.72404487497E+02  0.00000000000E+00 0.  1.
         21    1    1    2  503  502  0.74514346241E+02 -0.84396242533E+02  0.15233293473E+03  0.18942132022E+03  0.00000000000E+00 0. -1.
          1    1    1    2  501    0 -0.32962271851E+03  0.31871679519E+03 -0.11307394755E+04  0.12201652731E+04  0.00000000000E+00 0. -1.
<scales pt_clust_5="13000.00000" pt_clust_6="13000.00000" pt_clust_7="13000.00000" pt_clust_8="13000.00000" pt_clust_9="112.58381" pt_clust_10="13000.00000"></scales>
<clustering>
<clus scale="   80.115">  5  6 -1 -1</clus>
<clus scale="   89.752">  7  8 -1 -1</clus>
<clus scale="  112.584">  1  9  2 -1</clus>
<clus scale="  315.464">  2  5  1 -1</clus>
<clus scale="  159.102">  7 10 -1 -1</clus>
<clus scale="  112.584">  1  5  2 -1</clus>
</clustering>
</event>
<event>
10    4  0.2866397E-005  0.2475352E+03  0.7546771E-02  0.1151842E+00
         21   -1    0    0  503  502  0.00000000000E+00  0.00000000000E+00  0.39897674829E+03  0.39897674829E+03  0.00000000000E+00 0.  1.
         -3   -1    0    0    0  501 -0.00000000000E+00 -0.00000000000E+00 -0.16197411668E+03  0.16197411668E+03  0.00000000000E+00 0.  1.
         24    2    1    2    0    0  0.56661294666E+02 -0.24258406815E+02 -0.26176792894E+02  0.10442132056E+03  0.80122500509E+02 0.  0.
         23    2    1    2    0    0  0.42427949998E+02 -0.20166849909E+02 -0.41102289484E+02  0.10691538227E+03  0.86802465344E+02 0.  0.
        -11    1    3    3    0    0  0.75511437134E+02 -0.78794763938E+01 -0.16882465021E+02  0.77775837581E+02  0.00000000000E+00 0.  1.
         12    1    3    3    0    0 -0.18850142468E+02 -0.16378930421E+02 -0.92943278735E+01  0.26645482983E+02  0.00000000000E+00 0. -1.
        -11    1    4    4    0    0  0.45081297368E+02 -0.40056704222E+02 -0.55706091531E+02  0.82097695212E+02  0.00000000000E+00 0.  1.
         11    1    4    4    0    0 -0.26533473703E+01  0.19889854313E+02  0.14603802047E+02  0.24817687062E+02  0.00000000000E+00 0. -1.
         21    1    1    2  503  501 -0.16704813461E+02 -0.20926061289E+02  0.19906419318E+03  0.20085692381E+03  0.00000000000E+00 0.  1.
         -4    1    1    2    0  502 -0.82384431203E+02  0.65351318013E+02  0.10521752080E+03  0.14875723832E+03  0.00000000000E+00 0.  1.
<scales pt_clust_5="13000.00000" pt_clust_6="13000.00000" pt_clust_7="13000.00000" pt_clust_8="13000.00000" pt_clust_9="26.77594" pt_clust_10="13000.00000"></scales>
<clustering>
<clus scale="   26.776">  1  9  2 -1</clus>
<clus scale="   80.123">  5  6 -1 -1</clus>
<clus scale="   86.802">  7  8 -1 -1</clus>
<clus scale="  100.368">  2  5  1 -1</clus>
<clus scale="   92.137">  7 10 -1 -1</clus>
<clus scale="   26.776">  1  5  2 -1</clus>
</clustering>
</event>
<event>
10    4  0.2866397E-005  0.1609509E+03  0.7546771E-02  0.1193985E+00
          2   -1    0    0  502    0 -0.00000000000E+00  0.00000000000E+00  0.14795073462E+04  0.14795073462E+04  0.00000000000E+00 0. -1.
         21   -1    0    0  503  502  0.00000000000E+00 -0.00000000000E+00 -0.10094501024E+03  0.10094501024E+03  0.00000000000E+00 0.  1.
         24    2    1    2    0    0 -0.66530111585E+01  0.11314480252E+03  0.12766156063E+04  0.12841455722E+04  0.80227399029E+02 0.  0.
         23    2    1    2    0    0  0.93159534641E+01 -0.89283870909E+02  0.12994728763E+03  0.18240024462E+03  0.91242287782E+02 0.  0.
        -11    1    3    3    0    0 -0.23160247596E+02  0.33366732593E+02  0.18081764319E+03  0.18532338223E+03  0.00000000000E+00 0.  1.
         12    1    3    3    0    0  0.16507236438E+02  0.79778069922E+02  0.10957979631E+04  0.10988221900E+04  0.00000000000E+00 0. -1.
        -13    1    4    4    0    0 -0.28253723086E+02 -0.10509919711E+02  0.70858627901E+02  0.77004392268E+02  0.00000000000E+00 0. -1.
         13    1    4    4    0    0  0.37569676550E+02 -0.78773951198E+02  0.59088659730E+02  0.10539585235E+03  0.00000000000E+00 0.  1.
         21    1    1    2  503  501  0.14420810232E+02  0.14285662389E+02 -0.58658213420E+02  0.62071135959E+02  0.00000000000E+00 0.  1.
          1    1    1    2  501    0 -0.17083752538E+02 -0.38146593995E+02  0.30657655493E+02  0.51835403679E+02  0.00000000000E+00 0. -1.
<scales pt_clust_5="13000.00000" pt_clust_6="13000.00000" pt_clust_7="13000.00000" pt_clust_8="13000.00000" pt_clust_9="20.29877" pt_clust_10="13000.00000"></scales>
<clustering>
<clus scale="   20.299">  2  9  1 -1</clus>
<clus scale="   80.227">  5  6 -1 -1</clus>
<clus scale="   91.242">  7  8 -1 -1</clus>
<clus scale="   36.907">  7 10 -1 -1</clus>
<clus scale="  139.886">  1  5  2 -1</clus>
<clus scale="   20.299">  2  5  1 -1</clus>
</clustering>
</event>
<event>
10    4  0.2866397E-005  0.1925048E+03  0.7546771E-02  0.1195604E+00
         21   -1    0    0  503  502  0.00000000000E+00  0.00000000000E+00  0.11686328825E+03  0.11686328825E+03  0.00000000000E+00 0. -1.
          2   -1    0    0  502    0 -0.00000000000E+00 -0.00000000000E+00 -0.23552398758E+03  0.23552398758E+03  0.00000000000E+00 0. -1.
         24    2    1    2    0    0 -0.10276577869E+01 -0.10231925786E+02 -0.83742948621E+02  0.11530062012E+03  0.78585006015E+02 0.  0.
         23    2    1    2    0    0  0.92545724407E+01 -0.77443151294E+02 -0.36309228701E+02  0.12505860584E+03  0.90764563635E+02 0.  0.
        -13    1    3    3    0    0  0.41569344741E+01  0.33427772818E+02 -0.25109968979E+02  0.42014362329E+02  0.00000000000E+00 0.  1.
         14    1    3    3    0    0 -0.51845922611E+01 -0.43659698605E+02 -0.58632979642E+02  0.73286257790E+02  0.00000000000E+00 0. -1.
        -13    1    4    4    0    0  0.36065993430E+02 -0.84503860471E+02 -0.29654906892E+02  0.96545698089E+02  0.00000000000E+00 0. -1.
         13    1    4    4    0    0 -0.26811420989E+02  0.70607091775E+01 -0.66543218083E+01  0.28512907749E+02  0.00000000000E+00 0.  1.
         21    1    1    2  503  501  0.13212807672E+02  0.17690130644E+02  0.26639716278E+02  0.34600483987E+02  0.00000000000E+00 0. -1.
          1    1    1    2  501    0 -0.21439722326E+02  0.69984946436E+02 -0.25248238285E+02  0.77427565877E+02  0.00000000000E+00 0. -1.
<scales pt_clust_5="13000.00000" pt_clust_6="13000.00000" pt_clust_7="13000.00000" pt_clust_8="13000.00000" pt_clust_9="22.07983" pt_clust_10="13000.00000"></scales>
<clustering>
<clus scale="   22.080">  1  9  2 -1</clus>
<clus scale="   78.585">  5  6 -1 -1</clus>
<clus scale="   78.908">  2  5  1 -1</clus>
<clus scale="   90.765">  7  8 -1 -1</clus>
<clus scale="   74.244">  7 10 -1 -1</clus>
<clus scale="   22.080">  1  5  2 -1</clus>
</clustering>
</event>
<event>
10    4  0.2866397E-005  0.3056832E+03  0.7546771E-02  0.1104298E+00
         21   -1    0    0  503  502  0.00000000000E+00  0.00000000000E+00  0.23917521632E+03  0.23917521632E+03  0.00000000000E+00 0.  1.
          2   -1    0    0  502    0 -0.00000000000E+00 -0.00000000000E+00 -0.53854468464E+03  0.53854468464E+03  0.00000000000E+00 0. -1.
         24    2    1    2    0    0  0.14274605254E+03  0.86823670387E+01  0.99657201905E+02  0.19188631766E+03  0.80230804560E+02 0.  0.
         23    2    1    2    0    0 -0.75791715087E+02 -0.14612401835E+03 -0.21811200258E+03  0.28817536672E+03  0.91518214019E+02 0.  0.
        -13    1    3    3    0    0  0.91689543281E+02 -0.23238711108E+01  0.10496071844E+03  0.13938839671E+03  0.00000000000E+00 0.  1.
         14    1    3    3    0    0  0.51056509261E+02  0.11006238150E+02 -0.53035165314E+01  0.52497920947E+02  0.00000000000E+00 0. -1.
        -11    1    4    4    0    0 -0.86855436502E+02 -0.11775350561E+03 -0.21122507242E+03  0.25695483290E+03  0.00000000000E+00 0. -1.
         11    1    4    4    0    0  0.11063721415E+02 -0.28370512744E+02 -0.68869301685E+01  0.31220533820E+02  0.00000000000E+00 0.  1.
         21    1    1    2  503  501  0.39672765122E+01  0.47578749567E+02  0.30911549473E+02  0.56877065537E+02  0.00000000000E+00 0. -1.
          1    1    1    2  501    0 -0.70921613968E+02  0.89862901744E+02 -0.21182621712E+03  0.24078115104E+03  0.00000000000E+00 0. -1.
<scales pt_clust_5="13000.00000" pt_clust_6="13000.00000" pt_clust_7="13000.00000" pt_clust_8="13000.00000" pt_clust_9="47.74387" pt_clust_10="13000.00000"></scales>
<clustering>
<clus scale="   47.744">  1  9  2 -1</clus>
<clus scale="   80.231">  5  6 -1 -1</clus>
<clus scale="   91.518">  7  8 -1 -1</clus>
<clus scale="  117.090">  7 10 -1 -1</clus>
<clus scale="  172.108">  2  5  1 -1</clus>
<clus scale="   47.744">  1  5  2 -1</clus>
</clustering>
</event>
<event>
10    4  0.2866397E-005  0.2748080E+03  0.7546771E-02  0.1139043E+00
          2   -1    0    0  503    0 -0.00000000000E+00  0.00000000000E+00  0.27848482292E+03  0.27848482292E+03  0.00000000000E+00 0. -1.
         21   -1    0    0  501  502  0.00000000000E+00 -0.00000000000E+00 -0.24810976301E+03  0.24810976301E+03  0.00000000000E+00 0. -1.
         24    2    1    2    0    0 -0.35481505663E+01 -0.58139749277E+02  0.10849891219E+03  0.14693200601E+03  0.80150986428E+02 0.  0.
         23    2    1    2    0    0  0.58293917688E+02  0.67639384071E+02 -0.98744660788E+02  0.16110874425E+03  0.90731760270E+02 0.  0.
        -13    1    3    3    0    0  0.24875158262E+02  0.87619987941E+01  0.27646324612E+02  0.38208184804E+02  0.00000000000E+00 0.  1.
         14    1    3    3    0    0 -0.28423308829E+02 -0.66901748071E+02  0.80852587577E+02  0.10872382121E+03  0.00000000000E+00 0. -1.
        -13    1    4    4    0    0  0.37714410851E+02  0.31997055910E+02 -0.10812183650E+03  0.11889709795E+03  0.00000000000E+00 0. -1.
         13    1    4    4    0    0  0.20579506837E+02  0.35642328161E+02  0.93771757162E+01  0.42211646293E+02  0.00000000000E+00 0.  1.
         21    1    1    2  503  502 -0.34893459231E+02 -0.32846496529E+01 -0.94905200629E+02  0.10116985483E+03  0.00000000000E+00 0. -1.
          1    1    1    2  501    0 -0.19852307891E+02 -0.62149851408E+01  0.11552600914E+03  0.11738398083E+03  0.00000000000E+00 0. -1.
<scales pt_clust_5="13000.00000" pt_clust_6="13000.00000" pt_clust_7="13000.00000" pt_clust_8="13000.00000" pt_clust_9="35.04772" pt_clust_10="13000.00000"></scales>
<clustering>
<clus scale="   35.048">  2  9  1 -1</clus>
<clus scale="   80.151">  5  6 -1 -1</clus>
<clus scale="   90.732">  7  8 -1 -1</clus>
<clus scale="   21.015">  7 10 -1 -1</clus>
<clus scale="   99.588">  1  5  2 -1</clus>
<clus scale="   35.048">  2  5  1 -1</clus>
</clustering>
</event>
<event>
10    4  0.2866397E-005  0.4184702E+03  0.7546771E-02  0.1044554E+00
         21   -1    0    0  503  502  0.00000000000E+00  0.00000000000E+00  0.37765736237E+03  0.37765736237E+03  0.00000000000E+00 0.  1.
          2   -1    0    0  502    0 -0.00000000000E+00 -0.00000000000E+00 -0.48961708724E+03  0.48961708724E+03  0.00000000000E+00 0. -1.
         24    2    1    2    0    0 -0.31240910901E+03  0.14572137831E+03 -0.96901890899E+02  0.36952881682E+03  0.91254580795E+02 0.  0.
         23    2    1    2    0    0  0.24600297108E+02 -0.65717846441E+02  0.21985710623E+02  0.13144765121E+03  0.10895459411E+03 0.  0.
        -13    1    3    3    0    0 -0.27622179066E+03  0.13055238473E+03 -0.52026072844E+02  0.30991791664E+03  0.00000000000E+00 0.  1.
         14    1    3    3    0    0 -0.36187318345E+02  0.15168993576E+02 -0.44875818055E+02  0.59610900188E+02  0.00000000000E+00 0. -1.
        -13    1    4    4    0    0 -0.34878149556E+02 -0.31946406298E+00  0.25132818130E+02  0.42991230744E+02  0.00000000000E+00 0. -1.
         13    1    4    4    0    0  0.59478446665E+02 -0.65398382378E+02 -0.31471075066E+01  0.88456420462E+02  0.00000000000E+00 0.  1.
         21    1    1    2  503  501  0.43773278920E+02  0.11627855360E+02  0.70923769158E+02  0.84151577521E+02  0.00000000000E+00 0.  1.
          1    1    1    2  501    0  0.24403553298E+03 -0.91631387229E+02 -0.10796731376E+03  0.28214640406E+03  0.00000000000E+00 0. -1.
<scales pt_clust_5="13000.00000" pt_clust_6="13000.00000" pt_clust_7="13000.00000" pt_clust_8="13000.00000" pt_clust_9="45.29136" pt_clust_10="13000.00000"></scales>
<clustering>
<clus scale="   45.291">  1  9  2 -1</clus>
<clus scale="   91.255">  5  6 -1 -1</clus>
<clus scale="  108.955">  7  8 -1 -1</clus>
<clus scale="  271.484">  7 10 -1 -1</clus>
<clus scale="  341.616">  2  5  1 -1</clus>
<clus scale="   45.291">  1  5  2 -1</clus>
</clustering>
</event>
<event>
10    4  0.2866397E-005  0.4624476E+03  0.7546771E-02  0.1071678E+00
         -1   -1    0    0    0  501 -0.00000000000E+00  0.00000000000E+00  0.47966752632E+03  0.47966752632E+03  0.00000000000E+00 0.  1.
         21   -1    0    0  501  502  0.00000000000E+00 -0.00000000000E+00 -0.35732776325E+03  0.35732776325E+03  0.00000000000E+00 0. -1.
         24    2    1    2    0    0 -0.72695622848E+02 -0.31055692802E+02  0.71321251122E+02  0.13328738038E+03  0.80185380649E+02 0.  0.
         23    2    1    2    0    0  0.15374302173E+03 -0.58163457513E+02  0.33775038993E+03  0.38645852964E+03  0.90856836340E+02 0.  0.
        -13    1    3    3    0    0 -0.86527214156E+02 -0.22394971952E+02  0.74862144218E+02  0.11658831071E+03  0.00000000000E+00 0.  1.
         14    1    3    3    0    0  0.13831591308E+02 -0.86607208505E+01 -0.35408930954E+01  0.16699069665E+02  0.00000000000E+00 0. -1.
        -13    1    4    4    0    0  0.28964960435E+02 -0.36196456530E+02  0.34445440053E+02  0.57755006179E+02  0.00000000000E+00 0.  1.
         13    1    4    4    0    0  0.12477806129E+03 -0.21967000983E+02  0.30330494988E+03  0.32870352346E+03  0.00000000000E+00 0. -1.
         21    1    1    2  503  502 -0.56756193984E+02  0.22796832753E+02 -0.17109835343E+03  0.18170197491E+03  0.00000000000E+00 0. -1.
         -2    1    1    2    0  503 -0.24291204893E+02  0.66422317562E+02 -0.11563352456E+03  0.13554740465E+03  0.00000000000E+00 0.  1.
<scales pt_clust_5="13000.00000" pt_clust_6="13000.00000" pt_clust_7="13000.00000" pt_clust_8="13000.00000" pt_clust_9="61.16340" pt_clust_10="13000.00000"></scales>
<clustering>
<clus scale="   61.163">  2  9  1 -1</clus>
<clus scale="   80.185">  5  6 -1 -1</clus>
<clus scale="   90.857">  7  8 -1 -1</clus>
<clus scale="  104.023">  7 10 -1 -1</clus>
<clus scale="  118.149">  1  5  2 -1</clus>
<clus scale="   61.163">  2  5  1 -1</clus>
</clustering>
</event>
<event>
10    4  0.2866397E-005  0.2045629E+03  0.7546771E-02  0.1184039E+00
         21   -1    0    0  503  502  0.00000000000E+00  0.00000000000E+00  0.39908547538E+02  0.39908547538E+02  0.00000000000E+00 0. -1.
          2   -1    0    0  502    0 -0.00000000000E+00 -0.00000000000E+00 -0.75688669748E+03  0.75688669748E+03  0.00000000000E+00 0. -1.
         24    2    1    2    0    0 -0.19108996449E+02  0.11192777495E+01 -0.10645118126E+03  0.13459447322E+03  0.80108749228E+02 0.  0.
         23    2    1    2    0    0  0.84982663311E+02 -0.11579664262E+02 -0.48103571304E+03  0.49709800816E+03  0.91405310606E+02 0.  0.
        -13    1    3    3    0    0 -0.50634745449E+02  0.11189863597E+01 -0.70009857699E+02  0.86408968008E+02  0.00000000000E+00 0.  1.
         14    1    3    3    0    0  0.31525748999E+02  0.29138982650E-03 -0.36441323557E+02  0.48185505213E+02  0.00000000000E+00 0. -1.
        -13    1    4    4    0    0  0.98068895467E+02  0.79206642409E+01 -0.42684373768E+03  0.43803632449E+03  0.00000000000E+00 0. -1.
         13    1    4    4    0    0 -0.13086232156E+02 -0.19500328503E+02 -0.54191975363E+02  0.59061683666E+02  0.00000000000E+00 0.  1.
         21    1    1    2  503  501 -0.13988410791E+02 -0.30823932946E+02 -0.28291670454E+02  0.44115859912E+02  0.00000000000E+00 0. -1.
          1    1    1    2  501    0 -0.51885256071E+02  0.41284319459E+02 -0.10119958520E+03  0.12098690373E+03  0.00000000000E+00 0. -1.
<scales pt_clust_5="13000.00000" pt_clust_6="13000.00000" pt_clust_7="13000.00000" pt_clust_8="13000.00000" pt_clust_9="33.84953" pt_clust_10="13000.00000"></scales>
<clustering>
<clus scale="   33.850">  1  9  2 -1</clus>
<clus scale="   80.109">  5  6 -1 -1</clus>
<clus scale="   84.913">  2  5  1 -1</clus>
<clus scale="   91.405">  7  8 -1 -1</clus>
<clus scale="   67.862">  7 10 -1 -1</clus>
<clus scale="   33.850">  1  5  2 -1</clus>
</clustering>
</event>
<event>
10    4  0.2866397E-005  0.3545488E+03  0.7546771E-02  0.1093899E+00
         21   -1    0    0  503  502  0.00000000000E+00  0.00000000000E+00  0.25846717446E+03  0.25846717446E+03  0.00000000000E+00 0.  1.
          2   -1    0    0  502    0 -0.00000000000E+00 -0.00000000000E+00 -0.33920183472E+03  0.33920183472E+03  0.00000000000E+00 0. -1.
         24    2    1    2    0    0 -0.24391598357E+02 -0.11071850456E+03 -0.99275500687E+02  0.17061848635E+03  0.80009408985E+02 0.  0.
         23    2    1    2    0    0 -0.44228623090E-01  0.67413658090E+02  0.14417641026E+03  0.18260814600E+03  0.89522591877E+02 0.  0.
        -11    1    3    3    0    0  0.18932589736E+02 -0.28953673458E+02  0.42122933356E+00  0.34596757001E+02  0.00000000000E+00 0.  1.
         12    1    3    3    0    0 -0.43324188093E+02 -0.81764831100E+02 -0.99696730021E+02  0.13602172935E+03  0.00000000000E+00 0. -1.
        -13    1    4    4    0    0  0.20143906890E+02 -0.13901104450E+02  0.55257798648E+02  0.60435436634E+02  0.00000000000E+00 0.  1.
         13    1    4    4    0    0 -0.20188135514E+02  0.81314762540E+02  0.88918611609E+02  0.12217270936E+03  0.00000000000E+00 0. -1.
         21    1    1    2  503  501  0.89534297895E+01 -0.43971956793E+02  0.37697665570E+02  0.58607259607E+02  0.00000000000E+00 0.  1.
          1    1    1    2  501    0  0.15482397191E+02  0.87276803261E+02 -0.16333323539E+03  0.18583511723E+03  0.00000000000E+00 0. -1.
<scales pt_clust_5="13000.00000" pt_clust_6="13000.00000" pt_clust_7="13000.00000" pt_clust_8="13000.00000" pt_clust_9="44.87423" pt_clust_10="13000.00000"></scales>
<clustering>
<clus scale="   44.874">  1  9  2 -1</clus>
<clus scale="   80.009">  5  6 -1 -1</clus>
<clus scale="   89.523">  7  8 -1 -1</clus>
<clus scale="   86.411">  7 10 -1 -1</clus>
<clus scale="  144.535">  2  5  1 -1</clus>
<clus scale="   44.874">  1  5  2 -1</clus>
</clustering>
</event>
<event>
10    4  0.2866397E-005  0.5158952E+03  0.7546771E-02  0.1068279E+00
          2   -1    0    0  502    0 -0.00000000000E+00  0.00000000000E+00  0.41149440114E+03  0.41149440114E+03  0.00000000000E+00 0. -1.
         21   -1    0    0  503  502  0.00000000000E+00 -0.00000000000E+00 -0.44363208377E+03  0.44363208377E+03  0.00000000000E+00 0. -1.
         24    2    1    2    0    0 -0.38185617481E+02  0.20115162159E+02  0.13297494554E+03  0.16323810593E+03  0.84270884384E+02 0.  0.
         23    2    1    2    0    0 -0.10832442428E+03  0.17732953508E+03  0.15177232756E+03  0.27329383574E+03  0.92058331167E+02 0.  0.
        -11    1    3    3    0    0 -0.31698120304E+02 -0.29068941575E+02  0.78849165882E+02  0.89816285580E+02  0.00000000000E+00 0.  1.
         12    1    3    3    0    0 -0.64874971772E+01  0.49184103734E+02  0.54125779656E+02  0.73421820347E+02  0.00000000000E+00 0. -1.
        -11    1    4    4    0    0 -0.23093686641E+02  0.10854092866E+03  0.10947876235E+03  0.15588473614E+03  0.00000000000E+00 0.  1.
         11    1    4    4    0    0 -0.85230737636E+02  0.68788606417E+02  0.42293565211E+02  0.11740909960E+03  0.00000000000E+00 0. -1.
         21    1    1    2  503  501  0.34824971488E+02 -0.43395078790E+02 -0.16805441878E+03  0.17702598446E+03  0.00000000000E+00 0. -1.
          1    1    1    2  501    0  0.11168507027E+03 -0.15404961844E+03 -0.14883053695E+03  0.24156855879E+03  0.00000000000E+00 0. -1.
<scales pt_clust_5="13000.00000" pt_clust_6="13000.00000" pt_clust_7="13000.00000" pt_clust_8="13000.00000" pt_clust_9="55.64092" pt_clust_10="13000.00000"></scales>
<clustering>
<clus scale="   55.641">  2  9  1 -1</clus>
<clus scale="   84.271">  5  6 -1 -1</clus>
<clus scale="   92.058">  7  8 -1 -1</clus>
<clus scale="   93.424">  1  5  2 -1</clus>
<clus scale="  220.603">  7 10 -1 -1</clus>
<clus scale="   55.641">  2  5  1 -1</clus>
</clustering>
</event>
<event>
10    4  0.2866397E-005  0.1997055E+03  0.7546771E-02  0.1167865E+00
         21   -1    0    0  503  502  0.00000000000E+00  0.00000000000E+00  0.14259753979E+03  0.14259753979E+03  0.00000000000E+00 0. -1.
          4   -1    0    0  502    0 -0.00000000000E+00 -0.00000000000E+00 -0.62627007710E+03  0.62627007710E+03  0.00000000000E+00 0. -1.
         24    2    1    2    0    0  0.92165645193E+02  0.58991253070E+02 -0.45288985359E+03  0.47267361334E+03  0.79603085221E+02 0.  0.
         23    2    1    2    0    0 -0.27962449378E+02  0.71297376101E+01 -0.11677836152E+03  0.14741748810E+03  0.85217359412E+02 0.  0.
        -11    1    3    3    0    0  0.66657930261E+02  0.55200695442E+01 -0.15289750966E+03  0.16688738507E+03  0.00000000000E+00 0.  1.
         12    1    3    3    0    0  0.25507714932E+02  0.53471183525E+02 -0.29999234392E+03  0.30578622827E+03  0.00000000000E+00 0. -1.
        -13    1    4    4    0    0  0.28616872846E+02  0.15863896658E+02 -0.42861146567E+02  0.53922782882E+02  0.00000000000E+00 0. -1.
         13    1    4    4    0    0 -0.56579322224E+02 -0.87341590475E+01 -0.73917214957E+02  0.93494705222E+02  0.00000000000E+00 0.  1.
         21    1    1    2  503  501 -0.30699285911E+02 -0.83119076684E+01  0.74465053737E+02  0.80972700292E+02  0.00000000000E+00 0. -1.
          3    1    1    2  501    0 -0.33503909903E+02 -0.57809083011E+02  0.11530624060E+02  0.67803815148E+02  0.00000000000E+00 0. -1.
<scales pt_clust_5="13000.00000" pt_clust_6="13000.00000" pt_clust_7="13000.00000" pt_clust_8="13000.00000" pt_clust_9="31.80462" pt_clust_10="13000.00000"></scales>
<clustering>
<clus scale="   31.805">  1  9  2 -1</clus>
<clus scale="   79.603">  5  6 -1 -1</clus>
<clus scale="   85.217">  7  8 -1 -1</clus>
<clus scale="   81.779">  7 10 -1 -1</clus>
<clus scale="  131.614">  2  5  1 -1</clus>
<clus scale="   31.805">  1  5  2 -1</clus>
</clustering>
</event>
<event>
10    4  0.2866397E-005  0.3026224E+03  0.7546771E-02  0.1112945E+00
          2   -1    0    0  503    0 -0.00000000000E+00  0.00000000000E+00  0.43401284884E+03  0.43401284884E+03  0.00000000000E+00 0. -1.
         21   -1    0    0  501  502  0.00000000000E+00 -0.00000000000E+00 -0.28882571937E+03  0.28882571937E+03  0.00000000000E+00 0.  1.
         24    2    1    2    0    0 -0.12361119796E+03 -0.15341205304E+02  0.22476921509E+03  0.26989390952E+03  0.82501160631E+02 0.  0.
         23    2    1    2    0    0  0.44211681069E+02 -0.49358635144E+02 -0.65075295887E+02  0.13183316119E+03  0.93564099145E+02 0.  0.
        -13    1    3    3    0    0 -0.64073177112E+02 -0.49154354997E+02  0.11504867266E+03  0.14056215608E+03  0.00000000000E+00 0.  1.
         14    1    3    3    0    0 -0.59538020846E+02  0.33813149694E+02  0.10972054243E+03  0.12933175345E+03  0.00000000000E+00 0. -1.
        -11    1    4    4    0    0  0.37272286011E+02 -0.14830163006E+02 -0.83095790902E+02  0.92271704791E+02  0.00000000000E+00 0.  1.
         11    1    4    4    0    0  0.69393950573E+01 -0.34528472139E+02  0.18020495016E+02  0.39561456401E+02  0.00000000000E+00 0. -1.
         21    1    1    2  503  502  0.66876872847E+02 -0.56004685472E+02 -0.12804024932E+03  0.15493013381E+03  0.00000000000E+00 0.  1.
          1    1    1    2  501    0  0.12522644043E+02  0.12070452592E+03  0.11353345959E+03  0.16618136369E+03  0.00000000000E+00 0. -1.
<scales pt_clust_5="13000.00000" pt_clust_6="13000.00000" pt_clust_7="13000.00000" pt_clust_8="13000.00000" pt_clust_9="87.22982" pt_clust_10="13000.00000"></scales>
<clustering>
<clus scale="   82.501">  5  6 -1 -1</clus>
<clus scale="   87.230">  2  9  1 -1</clus>
<clus scale="   93.564">  7  8 -1 -1</clus>
<clus scale="  113.371">  7 10 -1 -1</clus>
<clus scale="  142.237">  1  5  2 -1</clus>
<clus scale="   87.230">  2  5  1 -1</clus>
</clustering>
</event>
<event>
10    4  0.2866397E-005  0.1652773E+03  0.7546771E-02  0.1199414E+00
         21   -1    0    0  501  502  0.00000000000E+00  0.00000000000E+00  0.61392198751E+02  0.61392198751E+02  0.00000000000E+00 0.  1.
          2   -1    0    0  503    0 -0.00000000000E+00 -0.00000000000E+00 -0.13006562598E+04  0.13006562598E+04  0.00000000000E+00 0. -1.
         24    2    1    2    0    0 -0.77338426342E+02 -0.22300766195E+02 -0.90645239976E+03  0.91368547989E+03  0.81771919275E+02 0.  0.
         23    2    1    2    0    0 -0.68039540251E+02  0.25638803179E+02 -0.15313825619E+03  0.19245129716E+03  0.91101311765E+02 0.  0.
        -13    1    3    3    0    0  0.11104776539E+02 -0.19992721074E+02 -0.11123978110E+03  0.11356634121E+03  0.00000000000E+00 0.  1.
         14    1    3    3    0    0 -0.88443202881E+02 -0.23080451205E+01 -0.79521261866E+03  0.80011913868E+03  0.00000000000E+00 0. -1.
        -11    1    4    4    0    0 -0.82330798516E+02 -0.29746666485E+01 -0.92310227045E+02  0.12372706674E+03  0.00000000000E+00 0. -1.
         11    1    4    4    0    0  0.14291258265E+02  0.28613469828E+02 -0.60828029141E+02  0.68724230426E+02  0.00000000000E+00 0.  1.
         21    1    1    2  503  502  0.15268769478E+03 -0.23962497013E+02 -0.17510505872E+03  0.23355837598E+03  0.00000000000E+00 0.  1.
          1    1    1    2  501    0 -0.73097281922E+01  0.20624460028E+02 -0.45683463551E+01  0.22353305485E+02  0.00000000000E+00 0. -1.
<scales pt_clust_5="13000.00000" pt_clust_6="13000.00000" pt_clust_7="13000.00000" pt_clust_8="13000.00000" pt_clust_9="117.74871" pt_clust_10="13000.00000"></scales>
<clustering>
<clus scale="   81.772">  5  6 -1 -1</clus>
<clus scale="   91.101">  7  8 -1 -1</clus>
<clus scale="   21.882">  7 10 -1 -1</clus>
<clus scale="  114.740">  2  5  1 -1</clus>
<clus scale="  117.749">  1  9  2 -1</clus>
<clus scale="  117.749">  1  5  2 -1</clus>
</clustering>
</event>
<event>
10    4  0.2866397E-005  0.2572310E+03  0.7546771E-02  0.1136180E+00
          2   -1    0    0  503    0 -0.00000000000E+00  0.00000000000E+00  0.56443098685E+03  0.56443098685E+03  0.00000000000E+00 0. -1.
         21   -1    0    0  501  502  0.00000000000E+00 -0.00000000000E+00 -0.29101897889E+03  0.29101897889E+03  0.00000000000E+00 0. -1.
         24    2    1    2    0    0 -0.64726782298E+02 -0.61907720393E+02  0.47911244408E+02  0.12879109636E+03  0.79180407744E+02 0.  0.
         23    2    1    2    0    0  0.63190340056E+02 -0.24223381717E+02  0.82864147620E+02  0.14069966267E+03  0.91379083034E+02 0.  0.
        -13    1    3    3    0    0 -0.46375066692E+02 -0.41408424741E+02  0.69915844389E+02  0.93560300057E+02  0.00000000000E+00 0.  1.
         14    1    3    3    0    0 -0.18351715607E+02 -0.20499295652E+02 -0.22004599981E+02  0.35230796305E+02  0.00000000000E+00 0. -1.
        -11    1    4    4    0    0  0.63149721779E+02  0.18227936942E+02  0.28286487035E+02  0.71556064696E+02  0.00000000000E+00 0.  1.
         11    1    4    4    0    0  0.40618276247E-01 -0.42451318659E+02  0.54577660585E+02  0.69143597973E+02  0.00000000000E+00 0. -1.
         21    1    1    2  503  502 -0.22381354469E+02 -0.14148950766E+02 -0.21353358228E+03  0.21516902332E+03  0.00000000000E+00 0. -1.
          1    1    1    2  501    0  0.23917796712E+02  0.10028005288E+03  0.35617019821E+03  0.37079018339E+03  0.00000000000E+00 0. -1.
<scales pt_clust_5="13000.00000" pt_clust_6="13000.00000" pt_clust_7="13000.00000" pt_clust_8="13000.00000" pt_clust_9="26.47863" pt_clust_10="13000.00000"></scales>
<clustering>
<clus scale="   26.479">  2  9  1 -1</clus>
<clus scale="   79.180">  5  6 -1 -1</clus>
<clus scale="   91.379">  7  8 -1 -1</clus>
<clus scale="  101.301">  7 10 -1 -1</clus>
<clus scale="  130.150">  1  5  2 -1</clus>
<clus scale="   26.479">  2  5  1 -1</clus>
</clustering>
</event>
<event>
10    4  0.2866397E-005  0.5890964E+03  0.7546771E-02  0.1042028E+00
          4   -1    0    0  502    0 -0.00000000000E+00  0.00000000000E+00  0.20293869954E+03  0.20293869954E+03  0.00000000000E+00 0. -1.
         21   -1    0    0  503  502  0.00000000000E+00 -0.00000000000E+00 -0.91951784266E+03  0.91951784266E+03  0.00000000000E+00 0. -1.
         24    2    1    2    0    0 -0.42647794634E+02  0.10344368437E+03 -0.36330573076E+02  0.14300993063E+03  0.81317276748E+02 0.  0.
         23    2    1    2    0    0 -0.81450945049E+02 -0.24428412244E+03 -0.46000197643E+03  0.53523816968E+03  0.92569384993E+02 0.  0.
        -13    1    3    3    0    0 -0.23123738558E+02 -0.26393791919E+01 -0.25622722535E+02  0.34614989781E+02  0.00000000000E+00 0.  1.
         14    1    3    3    0    0 -0.19524056076E+02  0.10608306356E+03 -0.10707850541E+02  0.10839494085E+03  0.00000000000E+00 0. -1.
        -13    1    4    4    0    0 -0.33874354500E+02 -0.35297027715E+02 -0.38074820378E+02  0.61992289885E+02  0.00000000000E+00 0.  1.
         13    1    4    4    0    0 -0.47576590548E+02 -0.20898709473E+03 -0.42192715605E+03  0.47324587980E+03  0.00000000000E+00 0. -1.
         21    1    1    2  503  501  0.56601940544E+02 -0.45134893246E+02 -0.23491833379E+03  0.24582018187E+03  0.00000000000E+00 0.  1.
          3    1    1    2  501    0  0.67496799139E+02  0.18597533132E+03  0.14671740179E+02  0.19838826002E+03  0.00000000000E+00 0. -1.
<scales pt_clust_5="13000.00000" pt_clust_6="13000.00000" pt_clust_7="13000.00000" pt_clust_8="13000.00000" pt_clust_9="72.39432" pt_clust_10="13000.00000"></scales>
<clustering>
<clus scale="   72.394">  2  9  1 -1</clus>
<clus scale="   81.317">  5  6 -1 -1</clus>
<clus scale="   92.569">  7  8 -1 -1</clus>
<clus scale="  131.731">  1  5  2 -1</clus>
<clus scale="  251.880">  7 10 -1 -1</clus>
<clus scale="   72.394">  2  5  1 -1</clus>
</clustering>
</event>
<event>
10    4  0.2866397E-005  0.2323634E+03  0.7546771E-02  0.1169733E+00
         21   -1    0    0  501  502  0.00000000000E+00  0.00000000000E+00  0.48749148739E+02  0.48749148739E+02  0.00000000000E+00 0. -1.
          2   -1    0    0  503    0 -0.00000000000E+00 -0.00000000000E+00 -0.10434345944E+04  0.10434345944E+04  0.00000000000E+00 0. -1.
         24    2    1    2    0    0  0.41369616600E+01 -0.20643834928E+02 -0.20174670952E+03  0.21704877556E+03  0.77234408125E+02 0.  0.
         23    2    1    2    0    0 -0.61214860502E+02 -0.45984110921E+02 -0.24313412307E+03  0.26977104204E+03  0.88319962191E+02 0.  0.
        -11    1    3    3    0    0 -0.17425972818E+02  0.24155451212E+02 -0.88216870436E+02  0.93109433365E+02  0.00000000000E+00 0.  1.
         12    1    3    3    0    0  0.21562934478E+02 -0.44799286139E+02 -0.11352983908E+03  0.12393934219E+03  0.00000000000E+00 0. -1.
        -11    1    4    4    0    0 -0.67686293079E+02 -0.66577209265E+02 -0.20583593762E+03  0.22667684549E+03  0.00000000000E+00 0. -1.
         11    1    4    4    0    0  0.64714325772E+01  0.20593098344E+02 -0.37298185448E+02  0.43094196555E+02  0.00000000000E+00 0.  1.
         21    1    1    2  503  502  0.12575388582E+03 -0.28450609855E+02 -0.21600777630E+03  0.25156080064E+03  0.00000000000E+00 0. -1.
          1    1    1    2  501    0 -0.68675986976E+02  0.95078555703E+02 -0.33379683681E+03  0.35380312492E+03  0.00000000000E+00 0. -1.
<scales pt_clust_5="13000.00000" pt_clust_6="13000.00000" pt_clust_7="13000.00000" pt_clust_8="13000.00000" pt_clust_9="131.45044" pt_clust_10="13000.00000"></scales>
<clustering>
<clus scale="   77.234">  5  6 -1 -1</clus>
<clus scale="   80.053">  2  5  1 -1</clus>
<clus scale="   88.320">  7  8 -1 -1</clus>
<clus scale="  109.450">  7 10 -1 -1</clus>
<clus scale="  131.450">  1  9  2 -1</clus>
<clus scale="  131.450">  1  5  2 -1</clus>
</clustering>
</event>
<event>
10    4  0.2866397E-005  0.2433797E+03  0.7546771E-02  0.1160928E+00
         21   -1    0    0  501  502  0.00000000000E+00  0.00000000000E+00  0.60020052637E+02  0.60020052637E+02  0.00000000000E+00 0. -1.
          2   -1    0    0  503    0 -0.00000000000E+00 -0.00000000000E+00 -0.16578237766E+04  0.16578237766E+04  0.00000000000E+00 0. -1.
         24    2    1    2    0    0  0.61324211156E+01  0.23504061921E+02 -0.25647514503E+03  0.27030435907E+03  0.81822362478E+02 0.  0.
         23    2    1    2    0    0 -0.20862975849E+02 -0.35597183544E+02 -0.44943824759E+03  0.46048645743E+03  0.91381704069E+02 0.  0.
        -13    1    3    3    0    0  0.22747688117E+02 -0.19295135102E+02 -0.45602758450E+02  0.54491936390E+02  0.00000000000E+00 0.  1.
         14    1    3    3    0    0 -0.16615267002E+02  0.42799197023E+02 -0.21087238658E+03  0.21581242269E+03  0.00000000000E+00 0. -1.
        -13    1    4    4    0    0 -0.56349997461E+02 -0.24711386647E+02 -0.23862392565E+03  0.24642920431E+03  0.00000000000E+00 0.  1.
         13    1    4    4    0    0  0.35487021612E+02 -0.10885796898E+02 -0.21081432194E+03  0.21405725311E+03  0.00000000000E+00 0. -1.
         21    1    1    2  503  502  0.42653091511E+02  0.16831565999E+03 -0.15336285570E+03  0.23166703071E+03  0.00000000000E+00 0. -1.
          1    1    1    2  501    0 -0.27922536778E+02 -0.15622253836E+03 -0.73852747562E+03  0.75538598199E+03  0.00000000000E+00 0. -1.
<scales pt_clust_5="13000.00000" pt_clust_6="13000.00000" pt_clust_7="13000.00000" pt_clust_8="13000.00000" pt_clust_9="176.98947" pt_clust_10="13000.00000"></scales>
<clustering>
<clus scale="   81.822">  5  6 -1 -1</clus>
<clus scale="   85.352">  2  5  1 -1</clus>
<clus scale="   91.382">  7  8 -1 -1</clus>
<clus scale="  145.730">  7 10 -1 -1</clus>
<clus scale="  176.989">  1  9  2 -1</clus>
<clus scale="  176.989">  1  5  2 -1</clus>
</clustering>
</event>
<event>
10    4  0.2866397E-005  0.2445276E+03  0.7546771E-02  0.1156084E+00
         21   -1    0    0  503  502  0.00000000000E+00  0.00000000000E+00  0.33085137099E+03  0.33085137099E+03  0.00000000000E+00 0.  1.
         -3   -1    0    0    0  501 -0.00000000000E+00 -0.00000000000E+00 -0.51501064997E+03  0.51501064997E+03  0.00000000000E+00 0.  1.
         24    2    1    2    0    0 -0.47436224192E+02  0.13040028870E+01 -0.30379708946E+03  0.31845778272E+03  0.82890240845E+02 0.  0.
         23    2    1    2    0    0  0.18016307435E+02  0.36781705406E+02  0.23626912447E+02  0.10247897952E+03  0.90918804795E+02 0.  0.
        -13    1    3    3    0    0 -0.63024621994E+02  0.23782666798E+02 -0.23361481932E+03  0.24313288964E+03  0.00000000000E+00 0.  1.
         14    1    3    3    0    0  0.15588397802E+02 -0.22478663911E+02 -0.70182270132E+02  0.75324893084E+02  0.00000000000E+00 0. -1.
        -13    1    4    4    0    0 -0.31832682693E+02  0.13643223651E+02 -0.12376821444E+02  0.36778294524E+02  0.00000000000E+00 0.  1.
         13    1    4    4    0    0  0.49848990129E+02  0.23138481755E+02  0.36003733891E+02  0.65700684996E+02  0.00000000000E+00 0. -1.
         21    1    1    2  503  501  0.34670705176E+02  0.54390320025E+02  0.24287403622E+03  0.25129298076E+03  0.00000000000E+00 0.  1.
         -4    1    1    2    0  502 -0.52507884198E+01 -0.92476028318E+02 -0.14686313818E+03  0.17363227796E+03  0.00000000000E+00 0.  1.
<scales pt_clust_5="13000.00000" pt_clust_6="13000.00000" pt_clust_7="13000.00000" pt_clust_8="13000.00000" pt_clust_9="64.50089" pt_clust_10="13000.00000"></scales>
<clustering>
<clus scale="   64.501">  1  9  2 -1</clus>
<clus scale="   82.890">  5  6 -1 -1</clus>
<clus scale="   90.919">  7  8 -1 -1</clus>
<clus scale="   83.786">  7 10 -1 -1</clus>
<clus scale="   94.229">  2  5  1 -1</clus>
<clus scale="   64.501">  1  5  2 -1</clus>
</clustering>
</event>
<event>
10    4  0.2866397E-005  0.5143561E+03  0.7546771E-02  0.1071855E+00
          2   -1    0    0  503    0 -0.00000000000E+00  0.00000000000E+00  0.16584990495E+04  0.16584990495E+04  0.00000000000E+00 0. -1.
         21   -1    0    0  501  502  0.00000000000E+00 -0.00000000000E+00 -0.92539210934E+02  0.92539210934E+02  0.00000000000E+00 0. -1.
         24    2    1    2    0    0  0.18449470255E+02  0.13063230984E+02  0.37052252129E+03  0.38013934837E+03  0.81902102776E+02 0.  0.
         23    2    1    2    0    0 -0.22347076061E+03 -0.11517615145E+02  0.29853153974E+03  0.38423057298E+03  0.91870651921E+02 0.  0.
        -13    1    3    3    0    0  0.46178289979E+02  0.26780603801E+02  0.25639939786E+03  0.26189747312E+03  0.00000000000E+00 0.  1.
         14    1    3    3    0    0 -0.27728819724E+02 -0.13717372818E+02  0.11412312343E+03  0.11824187525E+03  0.00000000000E+00 0. -1.
        -13    1    4    4    0    0 -0.13764117356E+03 -0.28471823580E+01  0.10765429727E+03  0.17476454683E+03  0.00000000000E+00 0. -1.
         13    1    4    4    0    0 -0.85829587046E+02 -0.86704327875E+01  0.19087724247E+03  0.20946602615E+03  0.00000000000E+00 0.  1.
         21    1    1    2  503  502  0.20520685905E+02  0.70895739835E+01 -0.32501365744E+02  0.39085795175E+02  0.00000000000E+00 0. -1.
          1    1    1    2  501    0  0.18450060445E+03 -0.86351898218E+01  0.92940714326E+03  0.94758254389E+03  0.00000000000E+00 0. -1.
<scales pt_clust_5="13000.00000" pt_clust_6="13000.00000" pt_clust_7="13000.00000" pt_clust_8="13000.00000" pt_clust_9="21.71084" pt_clust_10="13000.00000"></scales>
<clustering>
<clus scale="   21.711">  2  9  1 -1</clus>
<clus scale="   81.902">  5  6 -1 -1</clus>
<clus scale="   85.453">  1  5  2 -1</clus>
<clus scale="   91.871">  7  8 -1 -1</clus>
<clus scale="  203.168">  7 10 -1 -1</clus>
<clus scale="   21.711">  2  5  1 -1</clus>
</clustering>
</event>
<event>
10    4  0.2866397E-005  0.5115291E+03  0.7546771E-02  0.1048677E+00
         21   -1    0    0  501  502  0.00000000000E+00  0.00000000000E+00  0.11722656735E+03  0.11722656735E+03  0.00000000000E+00 0. -1.
          2   -1    0    0  503    0 -0.00000000000E+00 -0.00000000000E+00 -0.12029014884E+04  0.12029014884E+04  0.00000000000E+00 0. -1.
         24    2    1    2    0    0 -0.14791896297E+03  0.35237525588E+02 -0.39547974958E+03  0.42948682503E+03  0.70235302597E+02 0.  0.
         23    2    1    2    0    0  0.45086376442E+00  0.17836086143E+03 -0.45686453666E+03  0.49872031474E+03  0.90465171806E+02 0.  0.
        -13    1    3    3    0    0 -0.34047214354E+02 -0.21463630748E+02 -0.99098066179E+02  0.10695946415E+03  0.00000000000E+00 0.  1.
         14    1    3    3    0    0 -0.11387174862E+03  0.56701156336E+02 -0.29638168340E+03  0.32252736088E+03  0.00000000000E+00 0. -1.
        -11    1    4    4    0    0 -0.38479169316E+02  0.56526556919E+02 -0.20733802814E+03  0.21832305426E+03  0.00000000000E+00 0.  1.
         11    1    4    4    0    0  0.38930033080E+02  0.12183430451E+03 -0.24952650852E+03  0.28039726048E+03  0.00000000000E+00 0. -1.
         21    1    1    2  503  502  0.15903819138E+02  0.26613576430E+02  0.16557091668E+01  0.31047629321E+02  0.00000000000E+00 0.  1.
          1    1    1    2  501    0  0.13156428007E+03 -0.24021196345E+03 -0.23498634399E+03  0.36087328667E+03  0.00000000000E+00 0. -1.
<scales pt_clust_5="13000.00000" pt_clust_6="13000.00000" pt_clust_7="13000.00000" pt_clust_8="13000.00000" pt_clust_9="31.00345" pt_clust_10="13000.00000"></scales>
<clustering>
<clus scale="   31.003">  1  9  2 -1</clus>
<clus scale="   70.235">  5  6 -1 -1</clus>
<clus scale="   90.465">  7  8 -1 -1</clus>
<clus scale="  166.148">  2  5  1 -1</clus>
<clus scale="  227.451">  7 10 -1 -1</clus>
<clus scale="   31.003">  1  5  2 -1</clus>
</clustering>
</event>
<event>
10    4  0.2866397E-005  0.3975121E+03  0.7546771E-02  0.1054833E+00
          2   -1    0    0  502    0 -0.00000000000E+00  0.00000000000E+00  0.11907556709E+04  0.11907556709E+04  0.00000000000E+00 0. -1.
         21   -1    0    0  503  502  0.00000000000E+00 -0.00000000000E+00 -0.17714217815E+03  0.17714217815E+03  0.00000000000E+00 0. -1.
         24    2    1    2    0    0 -0.28074749785E+03 -0.25957693613E+02  0.47947883475E+03  0.56193912558E+03  0.79891604549E+02 0.  0.
         23    2    1    2    0    0  0.15971941279E+03 -0.15307055253E+03  0.42590317299E+03  0.49127326519E+03  0.10495248190E+03 0.  0.
        -13    1    3    3    0    0 -0.43959342776E+02  0.15788966104E+02  0.42360589693E+02  0.63056600186E+02  0.00000000000E+00 0.  1.
         14    1    3    3    0    0 -0.23678815507E+03 -0.41746659717E+02  0.43711824506E+03  0.49888252539E+03  0.00000000000E+00 0. -1.
        -11    1    4    4    0    0  0.21163191312E+02  0.76455328921E+01  0.99098787266E+02  0.10162137805E+03  0.00000000000E+00 0.  1.
         11    1    4    4    0    0  0.13855622147E+03 -0.16071608542E+03  0.32680438572E+03  0.38965188714E+03  0.00000000000E+00 0. -1.
         21    1    1    2  503  501 -0.13548601154E+02  0.10560610685E+03 -0.27461020034E+02  0.10995600037E+03  0.00000000000E+00 0. -1.
          1    1    1    2  501    0  0.13457668621E+03  0.73422139295E+02  0.13569250506E+03  0.20472945792E+03  0.00000000000E+00 0. -1.
<scales pt_clust_5="13000.00000" pt_clust_6="13000.00000" pt_clust_7="13000.00000" pt_clust_8="13000.00000" pt_clust_9="106.47166" pt_clust_10="13000.00000"></scales>
<clustering>
<clus scale="   79.892">  5  6 -1 -1</clus>
<clus scale="  104.952">  7  8 -1 -1</clus>
<clus scale="  106.472">  2  9  1 -1</clus>
<clus scale="  168.601">  7 10 -1 -1</clus>
<clus scale="  297.191">  1  5  2 -1</clus>
<clus scale="  106.472">  2  5  1 -1</clus>
</clustering>
</event>
<event>
10    4  0.2866397E-005  0.4576296E+03  0.7546771E-02  0.1085029E+00
          4   -1    0    0  503    0 -0.00000000000E+00  0.00000000000E+00  0.47219809510E+03  0.47219809510E+03  0.00000000000E+00 0. -1.
         21   -1    0    0  501  502  0.00000000000E+00 -0.00000000000E+00 -0.49948959549E+03  0.49948959549E+03  0.00000000000E+00 0.  1.
         24    2    1    2    0    0  0.93520707976E+01 -0.27574508461E+02 -0.11069861020E+03  0.13956518833E+03  0.79852643959E+02 0.  0.
         23    2    1    2    0    0 -0.57445464562E+02 -0.29052433307E+02 -0.36271394829E+02  0.11776082584E+03  0.91694998448E+02 0.  0.
        -13    1    3    3    0    0  0.14605302874E+02 -0.55050854520E+02 -0.71617212167E+02  0.91503751475E+02  0.00000000000E+00 0.  1.
         14    1    3    3    0    0 -0.52532320769E+01  0.27476346059E+02 -0.39081398037E+02  0.48061436855E+02  0.00000000000E+00 0. -1.
        -11    1    4    4    0    0 -0.71182185243E+01 -0.48474881343E+02  0.58177243549E+01  0.49338920467E+02  0.00000000000E+00 0.  1.
         11    1    4    4    0    0 -0.50327246038E+02  0.19422448036E+02 -0.42089119184E+02  0.68421905375E+02  0.00000000000E+00 0. -1.
         21    1    1    2  503  502  0.12414838198E+02 -0.24080642735E+03 -0.17205179694E+03  0.29621560474E+03  0.00000000000E+00 0.  1.
          3    1    1    2  501    0  0.35678555567E+02  0.29743336911E+03  0.29173030159E+03  0.41814607167E+03  0.00000000000E+00 0. -1.
<scales pt_clust_5="13000.00000" pt_clust_6="13000.00000" pt_clust_7="13000.00000" pt_clust_8="13000.00000" pt_clust_9="244.92858" pt_clust_10="13000.00000"></scales>
<clustering>
<clus scale="   79.853">  5  6 -1 -1</clus>
<clus scale="   84.996">  1  5  2 -1</clus>
<clus scale="   91.695">  7  8 -1 -1</clus>
<clus scale="  244.929">  2  9  1 -1</clus>
<clus scale="  151.447">  7 10 -1 -1</clus>
<clus scale="  244.929">  2  5  1 -1</clus>
</clustering>
</event>
<event>
10    4  0.2866397E-005  0.4011561E+03  0.7546771E-02  0.1047572E+00
         21   -1    0    0  501  502  0.00000000000E+00  0.00000000000E+00  0.11852396135E+04  0.11852396135E+04  0.00000000000E+00 0. -1.
          2   -1    0    0  503    0 -0.00000000000E+00 -0.00000000000E+00 -0.22507307038E+03  0.22507307038E+03  0.00000000000E+00 0. -1.
         24    2    1    2    0    0  0.19567235555E+02  0.31373388558E+03  0.29776678737E+03  0.44042251121E+03  0.80592189806E+02 0.  0.
         23    2    1    2    0    0  0.93552534394E+01 -0.97411473795E+02  0.19442569550E+02  0.13617219290E+03  0.92673278864E+02 0.  0.
        -13    1    3    3    0    0 -0.31008777389E+02  0.14723391091E+03  0.13488061662E+03  0.20206966506E+03  0.00000000000E+00 0.  1.
         14    1    3    3    0    0  0.50576012944E+02  0.16649997467E+03  0.16288617074E+03  0.23835284615E+03  0.00000000000E+00 0. -1.
        -11    1    4    4    0    0 -0.33373898448E+01 -0.54901076395E+02  0.56142229863E+02  0.78595269159E+02  0.00000000000E+00 0.  1.
         11    1    4    4    0    0  0.12692643284E+02 -0.42510397401E+02 -0.36699660313E+02  0.57576923744E+02  0.00000000000E+00 0. -1.
         21    1    1    2  503  502  0.86467782660E+02  0.47753588400E+02  0.50435037532E+03  0.51393227543E+03  0.00000000000E+00 0. -1.
          1    1    1    2  501    0 -0.11539027166E+03 -0.26407600018E+03  0.13860681087E+03  0.31978570431E+03  0.00000000000E+00 0. -1.
<scales pt_clust_5="13000.00000" pt_clust_6="13000.00000" pt_clust_7="13000.00000" pt_clust_8="13000.00000" pt_clust_9="98.77795" pt_clust_10="13000.00000"></scales>
<clustering>
<clus scale="   80.592">  5  6 -1 -1</clus>
<clus scale="   92.673">  7  8 -1 -1</clus>
<clus scale="   98.778">  1  9  2 -1</clus>
<clus scale="  262.408">  7 10 -1 -1</clus>
<clus scale="  355.556">  2  5  1 -1</clus>
<clus scale="   98.778">  1  5  2 -1</clus>
</clustering>
</event>
<event>
10    4  0.2866397E-005  0.4462670E+03  0.7546771E-02  0.1051995E+00
          2   -1    0    0  503    0 -0.00000000000E+00  0.00000000000E+00  0.12911334117E+04  0.12911334117E+04  0.00000000000E+00 0. -1.
         21   -1    0    0  501  502  0.00000000000E+00 -0.00000000000E+00 -0.18461382915E+03  0.18461382915E+03  0.00000000000E+00 0. -1.
         24    2    1    2    0    0  0.19449621301E+03  0.45129214792E+02  0.42090188868E+03  0.47335564224E+03  0.83915083536E+02 0.  0.
         23    2    1    2    0    0  0.86804248729E+02  0.30672236596E+02  0.18592136174E+03  0.22619863454E+03  0.90129383788E+02 0.  0.
        -13    1    3    3    0    0  0.13457332822E+03  0.33598686740E+02  0.36550724361E+03  0.39094040154E+03  0.00000000000E+00 0.  1.
         14    1    3    3    0    0  0.59922884790E+02  0.11530528053E+02  0.55394645069E+02  0.82415240708E+02  0.00000000000E+00 0. -1.
        -13    1    4    4    0    0  0.68749213145E+02  0.50551546364E+02  0.80153327974E+02  0.11707463061E+03  0.00000000000E+00 0.  1.
         13    1    4    4    0    0  0.18055035584E+02 -0.19879309768E+02  0.10576803376E+03  0.10912400393E+03  0.00000000000E+00 0. -1.
         21    1    1    2  503  502  0.53662144343E+02 -0.62510622291E+02 -0.74649468906E+02  0.11117439832E+03  0.00000000000E+00 0. -1.
          1    1    1    2  501    0 -0.33496260608E+03 -0.13290829098E+02  0.57434580102E+03  0.66501856573E+03  0.00000000000E+00 0. -1.
<scales pt_clust_5="13000.00000" pt_clust_6="13000.00000" pt_clust_7="13000.00000" pt_clust_8="13000.00000" pt_clust_9="82.38449" pt_clust_10="13000.00000"></scales>
<clustering>
<clus scale="   82.384">  2  9  1 -1</clus>
<clus scale="   83.915">  5  6 -1 -1</clus>
<clus scale="   90.129">  7  8 -1 -1</clus>
<clus scale="  227.637">  1  5  2 -1</clus>
<clus scale="  165.126">  7 10 -1 -1</clus>
<clus scale="   82.384">  2  5  1 -1</clus>
</clustering>
</event>
<event>
10    4  0.2866397E-005  0.3093303E+03  0.7546771E-02  0.1102233E+00
          2   -1    0    0  503    0 -0.00000000000E+00  0.00000000000E+00  0.88403188504E+03  0.88403188504E+03  0.00000000000E+00 0. -1.
         21   -1    0    0  501  502  0.00000000000E+00 -0.00000000000E+00 -0.34176095164E+03  0.34176095164E+03  0.00000000000E+00 0. -1.
         24    2    1    2    0    0 -0.37789408108E+03 -0.16369957673E+03  0.13002857301E+03  0.43922198107E+03  0.80043931197E+02 0.  0.
         23    2    1    2    0    0  0.14371915922E+03 -0.27548100884E+02  0.34474287687E+03  0.38558259178E+03  0.91717988101E+02 0.  0.
        -11    1    3    3    0    0 -0.10438295372E+03 -0.73317983546E+02  0.68036464993E+02  0.14456932008E+03  0.00000000000E+00 0.  1.
         12    1    3    3    0    0 -0.27351112736E+03 -0.90381593187E+02  0.61992108017E+02  0.29465266099E+03  0.00000000000E+00 0. -1.
        -13    1    4    4    0    0  0.68819513258E+02 -0.25440907288E+01  0.64240080364E+02  0.94177416231E+02  0.00000000000E+00 0. -1.
         13    1    4    4    0    0  0.74899645965E+02 -0.25004010155E+02  0.28050279650E+03  0.29140517555E+03  0.00000000000E+00 0.  1.
         21    1    1    2  503  502  0.27107623464E+03  0.14900634390E+03 -0.49429970254E+01  0.30936976053E+03  0.00000000000E+00 0. -1.
          1    1    1    2  501    0 -0.36901312791E+02  0.42241333713E+02  0.72442480542E+02  0.91618503298E+02  0.00000000000E+00 0. -1.
<scales pt_clust_5="13000.00000" pt_clust_6="13000.00000" pt_clust_7="13000.00000" pt_clust_8="13000.00000" pt_clust_9="309.33027" pt_clust_10="13000.00000"></scales>
<clustering>
<clus scale="   80.044">  5  6 -1 -1</clus>
<clus scale="   91.718">  7  8 -1 -1</clus>
<clus scale="   56.090">  7 10 -1 -1</clus>
<clus scale="  309.330">  2  9  1 -1</clus>
<clus scale="  175.176">  1  5  2 -1</clus>
<clus scale="  309.330">  2  5  1 -1</clus>
</clustering>
</event>
<event>
10    4  0.2866397E-005  0.3455395E+03  0.7546771E-02  0.1117733E+00
          2   -1    0    0  502    0 -0.00000000000E+00  0.00000000000E+00  0.55635640830E+03  0.55635640830E+03  0.00000000000E+00 0. -1.
         21   -1    0    0  503  502  0.00000000000E+00 -0.00000000000E+00 -0.55524888569E+03  0.55524888569E+03  0.00000000000E+00 0. -1.
         24    2    1    2    0    0  0.66588226144E+01  0.26761846692E+02 -0.13348012446E+03  0.15807378805E+03  0.80061491897E+02 0.  0.
         23    2    1    2    0    0  0.46390585575E+02  0.18742461915E+02  0.19964542676E+03  0.22555473458E+03  0.92267413298E+02 0.  0.
        -13    1    3    3    0    0  0.21708530823E+02  0.23889456656E+02 -0.10210829376E+02  0.33855981545E+02  0.00000000000E+00 0.  1.
         14    1    3    3    0    0 -0.15049708209E+02  0.28723900361E+01 -0.12326929508E+03  0.12421780650E+03  0.00000000000E+00 0. -1.
        -11    1    4    4    0    0  0.72505342918E+02  0.88628279071E+01  0.16892677063E+03  0.18404300668E+03  0.00000000000E+00 0. -1.
         11    1    4    4    0    0 -0.26114757343E+02  0.98796340081E+01  0.30718656124E+02  0.41511727901E+02  0.00000000000E+00 0.  1.
         21    1    1    2  503  501  0.30472962798E+02  0.18664292987E+03 -0.32094867737E+03  0.37252146010E+03  0.00000000000E+00 0. -1.
          1    1    1    2  501    0 -0.83522370987E+02 -0.23214723847E+03  0.25589089769E+03  0.35545531126E+03  0.00000000000E+00 0. -1.
<scales pt_clust_5="13000.00000" pt_clust_6="13000.00000" pt_clust_7="13000.00000" pt_clust_8="13000.00000" pt_clust_9="190.41693" pt_clust_10="13000.00000"></scales>
<clustering>
<clus scale="   80.061">  5  6 -1 -1</clus>
<clus scale="   84.678">  1  5  2 -1</clus>
<clus scale="   92.267">  7  8 -1 -1</clus>
<clus scale="  190.417">  2  9  1 -1</clus>
<clus scale="  129.374">  7 10 -1 -1</clus>
<clus scale="  190.417">  2  5  1 -1</clus>
</clustering>
</event>
<event>
10    4  0.2866397E-005  0.2163671E+03  0.7546771E-02  0.1155950E+00
         21   -1    0    0  503  502  0.00000000000E+00  0.00000000000E+00  0.90920050506E+02  0.90920050506E+02  0.00000000000E+00 0. -1.
          2   -1    0    0  502    0 -0.00000000000E+00 -0.00000000000E+00 -0.79862672072E+03  0.79862672072E+03  0.00000000000E+00 0. -1.
         24    2    1    2    0    0  0.55315587270E+02 -0.93191628244E+02 -0.56355250703E+03  0.57940704092E+03  0.79853598019E+02 0.  0.
         23    2    1    2    0    0 -0.10343948496E+02  0.11587029010E+03 -0.68512384254E+02  0.16271331751E+03  0.90822659629E+02 0.  0.
        -13    1    3    3    0    0 -0.14341552111E+02 -0.48432041175E+02 -0.25392340975E+03  0.25889851438E+03  0.00000000000E+00 0.  1.
         14    1    3    3    0    0  0.69657139381E+02 -0.44759587069E+02 -0.30962909727E+03  0.32050852653E+03  0.00000000000E+00 0. -1.
        -11    1    4    4    0    0  0.89385162974E+01  0.57231376232E+02  0.14070988996E+02  0.59609732682E+02  0.00000000000E+00 0.  1.
         11    1    4    4    0    0 -0.19282464794E+02  0.58638913868E+02 -0.82583373250E+02  0.10310358483E+03  0.00000000000E+00 0. -1.
         21    1    1    2  503  501  0.19011025533E+02 -0.10202335577E+02  0.21487164268E+02  0.30450040580E+02  0.00000000000E+00 0.  1.
          1    1    1    2  501    0 -0.63982664307E+02 -0.12476326279E+02 -0.97128943197E+02  0.11697637221E+03  0.00000000000E+00 0. -1.
<scales pt_clust_5="13000.00000" pt_clust_6="13000.00000" pt_clust_7="13000.00000" pt_clust_8="13000.00000" pt_clust_9="21.57561" pt_clust_10="13000.00000"></scales>
<clustering>
<clus scale="   21.576">  1  9  2 -1</clus>
<clus scale="   79.854">  5  6 -1 -1</clus>
<clus scale="   90.823">  7  8 -1 -1</clus>
<clus scale="   62.670">  7 10 -1 -1</clus>
<clus scale="  136.443">  2  5  1 -1</clus>
<clus scale="   21.576">  1  5  2 -1</clus>
</clustering>
</event>
<event>
10    4  0.2866397E-005  0.3310490E+03  0.7546771E-02  0.1104620E+00
         -1   -1    0    0    0  501 -0.00000000000E+00  0.00000000000E+00  0.25037122288E+03  0.25037122288E+03  0.00000000000E+00 0.  1.
         21   -1    0    0  501  502  0.00000000000E+00 -0.00000000000E+00 -0.28826000627E+03  0.28826000627E+03  0.00000000000E+00 0.  1.
         24    2    1    2    0    0  0.91930296576E+02 -0.59348852807E+02 -0.52350756568E+02  0.14824138398E+03  0.85214085993E+02 0.  0.
         23    2    1    2    0    0  0.90682789763E+02 -0.38805090011E+02  0.39231536238E+02  0.13736961801E+03  0.87189994526E+02 0.  0.
        -11    1    3    3    0    0  0.86119530820E+02 -0.11422879706E+02 -0.17293401138E+02  0.88578312766E+02  0.00000000000E+00 0.  1.
         12    1    3    3    0    0  0.58107657554E+01 -0.47925973102E+02 -0.35057355431E+02  0.59663071210E+02  0.00000000000E+00 0. -1.
        -13    1    4    4    0    0  0.83685855016E+02 -0.62599220695E+02  0.21023497939E+02  0.10660193350E+03  0.00000000000E+00 0.  1.
         13    1    4    4    0    0  0.69969347478E+01  0.23794130684E+02  0.18208038300E+02  0.30767684502E+02  0.00000000000E+00 0. -1.
         21    1    1    2  503  502 -0.29523251342E+00  0.25144694639E+02 -0.49061724781E+02  0.55130714390E+02  0.00000000000E+00 0.  1.
         -2    1    1    2    0  503 -0.18231785383E+03  0.73009248180E+02  0.24292161719E+02  0.19788951277E+03  0.00000000000E+00 0.  1.
<scales pt_clust_5="13000.00000" pt_clust_6="13000.00000" pt_clust_7="13000.00000" pt_clust_8="13000.00000" pt_clust_9="25.14643" pt_clust_10="13000.00000"></scales>
<clustering>
<clus scale="   25.146">  2  9  1 -1</clus>
<clus scale="   85.214">  5  6 -1 -1</clus>
<clus scale="   87.190">  7  8 -1 -1</clus>
<clus scale="  134.382">  1  5  2 -1</clus>
<clus scale="  141.066">  7 10 -1 -1</clus>
<clus scale="   25.146">  2  5  1 -1</clus>
</clustering>
</event>
<event>
10    4  0.2866397E-005  0.2285468E+03  0.7546771E-02  0.1160703E+00
          2   -1    0    0  503    0 -0.00000000000E+00  0.00000000000E+00  0.30910883997E+03  0.30910883997E+03  0.00000000000E+00 0. -1.
         21   -1    0    0  501  502  0.00000000000E+00 -0.00000000000E+00 -0.12929697450E+03  0.12929697450E+03  0.00000000000E+00 0.  1.
         24    2    1    2    0    0  0.31682758051E+01  0.68892364148E+02  0.79809909710E+02  0.13306376257E+03  0.81118107798E+02 0.  0.
         23    2    1    2    0    0 -0.25984718972E+02 -0.10590793320E+02 -0.21028335349E+02  0.96654079741E+02  0.90069138554E+02 0.  0.
        -13    1    3    3    0    0  0.19658941282E+02  0.67436828477E+02  0.89583367117E+02  0.11383927034E+03  0.00000000000E+00 0.  1.
         14    1    3    3    0    0 -0.16490665476E+02  0.14555356716E+01 -0.97734574078E+01  0.19224492234E+02  0.00000000000E+00 0. -1.
        -11    1    4    4    0    0 -0.53660557686E+02 -0.28494467931E+02 -0.83054344547E+01  0.61321859033E+02  0.00000000000E+00 0. -1.
         11    1    4    4    0    0  0.27675838713E+02  0.17903674610E+02 -0.12722900894E+02  0.35332220708E+02  0.00000000000E+00 0.  1.
         21    1    1    2  503  502 -0.16771757436E+02 -0.15191080426E+02 -0.35204295257E+02  0.41849769134E+02  0.00000000000E+00 0.  1.
          1    1    1    2  501    0  0.39588200603E+02 -0.43110490402E+02  0.15623458637E+03  0.16683820302E+03  0.00000000000E+00 0. -1.
<scales pt_clust_5="13000.00000" pt_clust_6="13000.00000" pt_clust_7="13000.00000" pt_clust_8="13000.00000" pt_clust_9="22.62876" pt_clust_10="13000.00000"></scales>
<clustering>
<clus scale="   22.629">  2  9  1 -1</clus>
<clus scale="   81.118">  5  6 -1 -1</clus>
<clus scale="   90.069">  7  8 -1 -1</clus>
<clus scale="   58.536">  7 10 -1 -1</clus>
<clus scale="  103.611">  1  5  2 -1</clus>
<clus scale="   22.629">  2  5  1 -1</clus>
</clustering>
</event>
<event>
10    4  0.2866397E-005  0.2216776E+03  0.7546771E-02  0.1158603E+00
         -1   -1    0    0    0  501 -0.00000000000E+00  0.00000000000E+00  0.41367511468E+03  0.41367511468E+03  0.00000000000E+00 0.  1.
         21   -1    0    0  503  502  0.00000000000E+00 -0.00000000000E+00 -0.32844148277E+03  0.32844148277E+03  0.00000000000E+00 0. -1.
         24    2    1    2    0    0 -0.46166777446E+02 -0.32972316792E+02  0.35023339451E+03  0.36984701625E+03  0.10442624086E+03 0.  0.
         23    2    1    2    0    0 -0.94934551601E+01 -0.51250625661E+02 -0.10447980328E+03  0.15136332515E+03  0.96322762553E+02 0.  0.
        -11    1    3    3    0    0 -0.69508798121E+02  0.60551277942E+01  0.25402028928E+03  0.26342825390E+03  0.00000000000E+00 0.  1.
         12    1    3    3    0    0  0.23342020675E+02 -0.39027444586E+02  0.96213105232E+02  0.10641876234E+03  0.00000000000E+00 0. -1.
        -13    1    4    4    0    0 -0.39791497763E+02 -0.13643251942E+02 -0.70923766177E+01  0.42659154046E+02  0.00000000000E+00 0.  1.
         13    1    4    4    0    0  0.30298042603E+02 -0.37607373719E+02 -0.97387426667E+02  0.10870417111E+03  0.00000000000E+00 0. -1.
         21    1    1    2  503  501 -0.25652967549E+02 -0.24844121661E+01 -0.59748369940E+02  0.65070075752E+02  0.00000000000E+00 0. -1.
         -2    1    1    2    0  502  0.81313200155E+02  0.86707354619E+02 -0.10077158938E+03  0.15583618030E+03  0.00000000000E+00 0.  1.
<scales pt_clust_5="13000.00000" pt_clust_6="13000.00000" pt_clust_7="13000.00000" pt_clust_8="13000.00000" pt_clust_9="25.77299" pt_clust_10="13000.00000"></scales>
<clustering>
<clus scale="   25.773">  2  9  1 -1</clus>
<clus scale="   96.323">  7  8 -1 -1</clus>
<clus scale="  104.426">  5  6 -1 -1</clus>
<clus scale="  109.839">  7 10 -1 -1</clus>
<clus scale="  119.238">  1  5  2 -1</clus>
<clus scale="   25.773">  2  5  1 -1</clus>
</clustering>
</event>
<event>
10    4  0.2866397E-005  0.4400364E+03  0.7546771E-02  0.1087269E+00
         21   -1    0    0  501  502  0.00000000000E+00  0.00000000000E+00  0.28272862311E+03  0.28272862311E+03  0.00000000000E+00 0. -1.
          2   -1    0    0  503    0 -0.00000000000E+00 -0.00000000000E+00 -0.10706110884E+04  0.10706110884E+04  0.00000000000E+00 0. -1.
         24    2    1    2    0    0 -0.55109832714E+02 -0.97513673406E+01 -0.11236921780E+03  0.15060164592E+03  0.83197546940E+02 0.  0.
         23    2    1    2    0    0 -0.88672442909E+02  0.89681971787E+02 -0.96464955562E+02  0.19102439698E+03  0.10620345755E+03 0.  0.
        -11    1    3    3    0    0  0.20568332852E+02 -0.13172578275E+02 -0.30178925598E+02  0.38824485637E+02  0.00000000000E+00 0.  1.
         12    1    3    3    0    0 -0.75678165567E+02  0.34212109342E+01 -0.82190292203E+02  0.11177716028E+03  0.00000000000E+00 0. -1.
        -11    1    4    4    0    0 -0.35365077724E+02  0.69485558755E+02  0.11585294364E+01  0.77976110370E+02  0.00000000000E+00 0.  1.
         11    1    4    4    0    0 -0.53307365185E+02  0.20196413032E+02 -0.97623484998E+02  0.11304828661E+03  0.00000000000E+00 0. -1.
         21    1    1    2  503  502  0.77553791984E+02  0.19425953955E+02  0.20426378292E+03  0.21935280111E+03  0.00000000000E+00 0. -1.
          1    1    1    2  501    0  0.66228483639E+02 -0.99356558401E+02 -0.78331207483E+03  0.79236086748E+03  0.00000000000E+00 0. -1.
<scales pt_clust_5="13000.00000" pt_clust_6="13000.00000" pt_clust_7="13000.00000" pt_clust_8="13000.00000" pt_clust_9="79.94972" pt_clust_10="13000.00000"></scales>
<clustering>
<clus scale="   79.950">  1  9  2 -1</clus>
<clus scale="   83.198">  5  6 -1 -1</clus>
<clus scale="   90.068">  2  5  1 -1</clus>
<clus scale="  106.203">  7  8 -1 -1</clus>
<clus scale="  110.300">  7 10 -1 -1</clus>
<clus scale="   79.950">  1  5  2 -1</clus>
</clustering>
</event>
<event>
10    4  0.2866397E-005  0.1468984E+03  0.7546771E-02  0.1225214E+00
         21   -1    0    0  501  502  0.00000000000E+00  0.00000000000E+00  0.58887056222E+02  0.58887056222E+02  0.00000000000E+00 0.  1.
          2   -1    0    0  503    0 -0.00000000000E+00 -0.00000000000E+00 -0.63067494394E+03  0.63067494394E+03  0.00000000000E+00 0. -1.
         24    2    1    2    0    0 -0.45963248522E+02 -0.18218962325E+02 -0.42874622077E+03  0.43875448455E+03  0.78978636874E+02 0.  0.
         23    2    1    2    0    0  0.20613052940E+02  0.38439241417E+02 -0.39735398777E+02  0.10986061824E+03  0.92671356372E+02 0.  0.
        -11    1    3    3    0    0  0.58171429730E+00 -0.37578602917E+02 -0.11503374120E+03  0.12101756650E+03  0.00000000000E+00 0.  1.
         12    1    3    3    0    0 -0.46544962820E+02  0.19359640591E+02 -0.31371247957E+03  0.31773691804E+03  0.00000000000E+00 0. -1.
        -11    1    4    4    0    0 -0.25012563168E+02 -0.11615658689E+02 -0.31127619264E+02  0.41587023505E+02  0.00000000000E+00 0. -1.
         11    1    4    4    0    0  0.45625616108E+02  0.50054900106E+02 -0.86077795132E+01  0.68273594734E+02  0.00000000000E+00 0.  1.
         21    1    1    2  503  502 -0.26079557614E+02 -0.34343615460E+01 -0.75843736214E+02  0.80275839999E+02  0.00000000000E+00 0. -1.
          1    1    1    2  501    0  0.51429753196E+02 -0.16785917545E+02 -0.27462531954E+02  0.60671057375E+02  0.00000000000E+00 0. -1.
<scales pt_clust_5="13000.00000" pt_clust_6="13000.00000" pt_clust_7="13000.00000" pt_clust_8="13000.00000" pt_clust_9="26.30473" pt_clust_10="13000.00000"></scales>
<clustering>
<clus scale="   26.305">  1  9  2 -1</clus>
<clus scale="   78.979">  5  6 -1 -1</clus>
<clus scale="   92.671">  7  8 -1 -1</clus>
<clus scale="   47.265">  7 10 -1 -1</clus>
<clus scale="   94.394">  2  5  1 -1</clus>
<clus scale="   26.305">  1  5  2 -1</clus>
</clustering>
</event>
<event>
10    4  0.2866397E-005  0.4194475E+03  0.7546771E-02  0.1051097E+00
          2   -1    0    0  502    0 -0.00000000000E+00  0.00000000000E+00  0.44468714333E+03  0.44468714333E+03  0.00000000000E+00 0. -1.
         21   -1    0    0  503  502  0.00000000000E+00 -0.00000000000E+00 -0.44337087257E+03  0.44337087257E+03  0.00000000000E+00 0. -1.
         24    2    1    2    0    0 -0.17586628733E+03 -0.23035465110E+03 -0.92357779860E+02  0.31444926082E+03  0.79725540609E+02 0.  0.
         23    2    1    2    0    0  0.40259807829E+02 -0.44577785961E+02 -0.11289508962E+02  0.10891702783E+03  0.90152286783E+02 0.  0.
        -13    1    3    3    0    0 -0.12925315650E+03 -0.16806898992E+03 -0.28757288079E+02  0.21396388820E+03  0.00000000000E+00 0.  1.
         14    1    3    3    0    0 -0.46613130832E+02 -0.62285661177E+02 -0.63600491781E+02  0.10048537261E+03  0.00000000000E+00 0. -1.
        -11    1    4    4    0    0 -0.26766534105E+02 -0.11887964202E+02  0.10681298975E+02  0.31174688269E+02  0.00000000000E+00 0. -1.
         11    1    4    4    0    0  0.67026341934E+02 -0.32689821759E+02 -0.21970807938E+02  0.77742339566E+02  0.00000000000E+00 0.  1.
         21    1    1    2  503  501  0.27449203037E+02  0.20374019625E+02 -0.10949390112E+03  0.11470603212E+03  0.00000000000E+00 0. -1.
          1    1    1    2  501    0  0.10815727646E+03  0.25455841743E+03  0.21445746071E+03  0.34998569512E+03  0.00000000000E+00 0. -1.
<scales pt_clust_5="13000.00000" pt_clust_6="13000.00000" pt_clust_7="13000.00000" pt_clust_8="13000.00000" pt_clust_9="34.18420" pt_clust_10="13000.00000"></scales>
<clustering>
<clus scale="   34.184">  2  9  1 -1</clus>
<clus scale="   79.726">  5  6 -1 -1</clus>
<clus scale="   90.152">  7  8 -1 -1</clus>
<clus scale="  281.243">  1  5  2 -1</clus>
<clus scale="   75.797">  7 10 -1 -1</clus>
<clus scale="   34.184">  2  5  1 -1</clus>
</clustering>
</event>
<event>
10    4  0.2866397E-005  0.4406781E+03  0.7546771E-02  0.1079534E+00
         21   -1    0    0  501  502  0.00000000000E+00  0.00000000000E+00  0.26841605465E+03  0.26841605465E+03  0.00000000000E+00 0. -1.
          2   -1    0    0  503    0 -0.00000000000E+00 -0.00000000000E+00 -0.41236112667E+03  0.41236112667E+03  0.00000000000E+00 0. -1.
         24    2    1    2    0    0  0.58682861837E+02 -0.37946093206E+02 -0.14164092211E+03  0.17806549015E+03  0.82228849574E+02 0.  0.
         23    2    1    2    0    0 -0.12846764954E+02  0.12779366298E+03  0.18756466510E+03  0.24546163750E+03  0.92599418049E+02 0.  0.
        -13    1    3    3    0    0  0.15063131417E+02 -0.13562729920E+02  0.68467222110E+01  0.21394466013E+02  0.00000000000E+00 0.  1.
         14    1    3    3    0    0  0.43619730421E+02 -0.24383363286E+02 -0.14848764432E+03  0.15667102414E+03  0.00000000000E+00 0. -1.
        -13    1    4    4    0    0  0.39097447140E+02  0.72066082959E+02  0.10284793428E+03  0.13152881157E+03  0.00000000000E+00 0.  1.
         13    1    4    4    0    0 -0.51944212094E+02  0.55727580023E+02  0.84716730818E+02  0.11393282594E+03  0.00000000000E+00 0. -1.
         21    1    1    2  503  502  0.32396374385E+02 -0.40048563800E+02 -0.67031509972E+01  0.51945594317E+02  0.00000000000E+00 0. -1.
          1    1    1    2  501    0 -0.78232471268E+02 -0.49799005976E+02 -0.18316566401E+03  0.20530445935E+03  0.00000000000E+00 0. -1.
<scales pt_clust_5="13000.00000" pt_clust_6="13000.00000" pt_clust_7="13000.00000" pt_clust_8="13000.00000" pt_clust_9="51.51129" pt_clust_10="13000.00000"></scales>
<clustering>
<clus scale="   51.511">  1  9  2 -1</clus>
<clus scale="   82.229">  5  6 -1 -1</clus>
<clus scale="   92.599">  7  8 -1 -1</clus>
<clus scale="   92.504">  7 10 -1 -1</clus>
<clus scale="  110.303">  2  5  1 -1</clus>
<clus scale="   51.511">  1  5  2 -1</clus>
</clustering>
</event>
<event>
10    4  0.2866397E-005  0.8488337E+03  0.7546771E-02  0.1018664E+00
          2   -1    0    0  502    0 -0.00000000000E+00  0.00000000000E+00  0.82127365474E+03  0.82127365474E+03  0.00000000000E+00 0. -1.
         21   -1    0    0  503  502  0.00000000000E+00 -0.00000000000E+00 -0.62465731730E+03  0.62465731730E+03  0.00000000000E+00 0. -1.
         24    2    1    2    0    0  0.20089179077E+02  0.29743538580E+02  0.22758311236E+03  0.24399528237E+03  0.80320430678E+02 0.  0.
         23    2    1    2    0    0  0.21327404787E+03  0.34225999736E+01  0.52157208640E+03  0.57044764905E+03  0.88744269169E+02 0.  0.
        -13    1    3    3    0    0 -0.21108353631E+02  0.36287329004E+02  0.76525982279E+02  0.87284356004E+02  0.00000000000E+00 0.  1.
         14    1    3    3    0    0  0.41197532708E+02 -0.65437904242E+01  0.15105713008E+03  0.15671092636E+03  0.00000000000E+00 0. -1.
        -11    1    4    4    0    0  0.17792097863E+03 -0.13282841170E+02  0.48551434614E+03  0.51725862856E+03  0.00000000000E+00 0.  1.
         11    1    4    4    0    0  0.35353069246E+02  0.16705441144E+02  0.36057740261E+02  0.53189020499E+02  0.00000000000E+00 0. -1.
         21    1    1    2  503  501 -0.36866521224E+02  0.31968787125E+02 -0.30463165815E+03  0.30851513883E+03  0.00000000000E+00 0. -1.
          1    1    1    2  501    0 -0.19649670573E+03 -0.65134925678E+02 -0.24790720317E+03  0.32297290179E+03  0.00000000000E+00 0. -1.
<scales pt_clust_5="13000.00000" pt_clust_6="13000.00000" pt_clust_7="13000.00000" pt_clust_8="13000.00000" pt_clust_9="48.79696" pt_clust_10="13000.00000"></scales>
<clustering>
<clus scale="   48.797">  2  9  1 -1</clus>
<clus scale="   80.320">  5  6 -1 -1</clus>
<clus scale="   88.046">  1  5  2 -1</clus>
<clus scale="   88.744">  7  8 -1 -1</clus>
<clus scale="  230.414">  7 10 -1 -1</clus>
<clus scale="   48.797">  2  5  1 -1</clus>
</clustering>
</event>
<event>
10    4  0.2866397E-005  0.1981018E+03  0.7546771E-02  0.1187527E+00
         21   -1    0    0  503  502  0.00000000000E+00  0.00000000000E+00  0.63520329442E+03  0.63520329442E+03  0.00000000000E+00 0.  1.
          2   -1    0    0  502    0 -0.00000000000E+00 -0.00000000000E+00 -0.50410990829E+02  0.50410990829E+02  0.00000000000E+00 0. -1.
         24    2    1    2    0    0  0.24747080744E+02  0.23161036529E+02  0.37625802527E+02  0.93504152207E+02  0.78603268671E+02 0.  0.
         23    2    1    2    0    0  0.40457398864E+02  0.96089578978E+01  0.15873253642E+03  0.18810875477E+03  0.91976911825E+02 0.  0.
        -11    1    3    3    0    0  0.91673423986E+01 -0.26471641296E+02  0.29796714575E+02  0.40897825847E+02  0.00000000000E+00 0.  1.
         12    1    3    3    0    0  0.15579738346E+02  0.49632677824E+02  0.78290879518E+01  0.52606326360E+02  0.00000000000E+00 0. -1.
        -13    1    4    4    0    0  0.14656261774E+02  0.32344267315E+02  0.14782692859E+03  0.15203209678E+03  0.00000000000E+00 0.  1.
         13    1    4    4    0    0  0.25801137090E+02 -0.22735309417E+02  0.10905607836E+02  0.36076657990E+02  0.00000000000E+00 0. -1.
         21    1    1    2  503  501  0.56385629258E+01  0.21187992351E+02  0.83455171415E+02  0.86287253100E+02  0.00000000000E+00 0.  1.
          1    1    1    2  501    0 -0.70843042534E+02 -0.53957986778E+02  0.30497879323E+03  0.31771412517E+03  0.00000000000E+00 0. -1.
<scales pt_clust_5="13000.00000" pt_clust_6="13000.00000" pt_clust_7="13000.00000" pt_clust_8="13000.00000" pt_clust_9="21.92543" pt_clust_10="13000.00000"></scales>
<clustering>
<clus scale="   21.925">  1  9  2 -1</clus>
<clus scale="   78.603">  5  6 -1 -1</clus>
<clus scale="   86.512">  2  5  1 -1</clus>
<clus scale="   91.977">  7  8 -1 -1</clus>
<clus scale="   70.175">  7 10 -1 -1</clus>
<clus scale="   21.925">  1  5  2 -1</clus>
</clustering>
</event>
<event>
10    4  0.2866397E-005  0.3852056E+03  0.7546771E-02  0.1083547E+00
          2   -1    0    0  502    0 -0.00000000000E+00  0.00000000000E+00  0.44140889489E+03  0.44140889489E+03  0.00000000000E+00 0. -1.
         21   -1    0    0  503  502  0.00000000000E+00 -0.00000000000E+00 -0.21371634365E+03  0.21371634365E+03  0.00000000000E+00 0.  1.
         24    2    1    2    0    0 -0.77758211560E+02 -0.99277936818E+02 -0.36993739184E+01  0.15975011764E+03  0.97999829163E+02 0.  0.
         23    2    1    2    0    0 -0.47289143873E+02 -0.85676584615E+02 -0.13418870102E+02  0.13367303024E+03  0.90064824765E+02 0.  0.
        -11    1    3    3    0    0  0.24223672150E+01 -0.68622845615E+02 -0.21757790582E+02  0.72030300945E+02  0.00000000000E+00 0.  1.
         12    1    3    3    0    0 -0.80180578775E+02 -0.30655091203E+02  0.18058416664E+02  0.87719816699E+02  0.00000000000E+00 0. -1.
        -11    1    4    4    0    0 -0.70365880782E+02 -0.84382161985E+02 -0.11806537991E+02  0.11050384961E+03  0.00000000000E+00 0.  1.
         11    1    4    4    0    0  0.23076736909E+02 -0.12944226303E+01 -0.16123321106E+01  0.23169180632E+02  0.00000000000E+00 0. -1.
         21    1    1    2  503  501  0.47646839197E+02  0.86913653991E+01 -0.22618212284E+01  0.48485842813E+02  0.00000000000E+00 0.  1.
          1    1    1    2  501    0  0.77400516235E+02  0.17626315603E+03  0.24707261649E+03  0.31321624784E+03  0.00000000000E+00 0. -1.
<scales pt_clust_5="13000.00000" pt_clust_6="13000.00000" pt_clust_7="13000.00000" pt_clust_8="13000.00000" pt_clust_9="48.43306" pt_clust_10="13000.00000"></scales>
<clustering>
<clus scale="   48.433">  2  9  1 -1</clus>
<clus scale="   90.065">  7  8 -1 -1</clus>
<clus scale="   98.000">  5  6 -1 -1</clus>
<clus scale="  148.270">  1  5  2 -1</clus>
<clus scale="  107.008">  7 10 -1 -1</clus>
<clus scale="   48.433">  2  5  1 -1</clus>
</clustering>
</event>
<event>
10    4  0.2866397E-005  0.4995146E+03  0.7546771E-02  0.1047253E+00
         21   -1    0    0  503  502  0.00000000000E+00  0.00000000000E+00  0.53953417791E+03  0.53953417791E+03  0.00000000000E+00 0. -1.
          2   -1    0    0  502    0 -0.00000000000E+00 -0.00000000000E+00 -0.26633082320E+03  0.26633082320E+03  0.00000000000E+00 0. -1.
         24    2    1    2    0    0 -0.24890681483E+02  0.16388275909E+03  0.18330739291E+03  0.25995356827E+03  0.80604916785E+02 0.  0.
         23    2    1    2    0    0 -0.15481424972E+03 -0.34249463222E+02  0.18058603122E+03  0.25779975694E+03  0.93321607143E+02 0.  0.
        -11    1    3    3    0    0 -0.52267022250E+02  0.75818765773E+02  0.93025994460E+02  0.13089752673E+03  0.00000000000E+00 0.  1.
         12    1    3    3    0    0  0.27376340767E+02  0.88063993316E+02  0.90281398449E+02  0.12905604154E+03  0.00000000000E+00 0. -1.
        -11    1    4    4    0    0 -0.54392972828E+02  0.17756301902E+02  0.11137575080E+03  0.12521357601E+03  0.00000000000E+00 0.  1.
         11    1    4    4    0    0 -0.10042127690E+03 -0.52005765123E+02  0.69210280421E+02  0.13258618094E+03  0.00000000000E+00 0. -1.
         21    1    1    2  503  501  0.20191444366E+02  0.63678017080E+01  0.37023581483E+02  0.42649606211E+02  0.00000000000E+00 0.  1.
          1    1    1    2  501    0  0.15951348684E+03 -0.13600109757E+03 -0.12771365091E+03  0.24546206968E+03  0.00000000000E+00 0. -1.
<scales pt_clust_5="13000.00000" pt_clust_6="13000.00000" pt_clust_7="13000.00000" pt_clust_8="13000.00000" pt_clust_9="21.17176" pt_clust_10="13000.00000"></scales>
<clustering>
<clus scale="   21.172">  1  9  2 -1</clus>
<clus scale="   80.605">  5  6 -1 -1</clus>
<clus scale="   93.322">  7  8 -1 -1</clus>
<clus scale="  185.856">  2  5  1 -1</clus>
<clus scale="  148.610">  7 10 -1 -1</clus>
<clus scale="   21.172">  1  5  2 -1</clus>
</clustering>
</event>
<event>
10    4  0.2866397E-005  0.3679471E+03  0.7546771E-02  0.1096247E+00
          2   -1    0    0  503    0 -0.00000000000E+00  0.00000000000E+00  0.18604450294E+04  0.18604450294E+04  0.00000000000E+00 0. -1.
         21   -1    0    0  501  502  0.00000000000E+00 -0.00000000000E+00 -0.89389943459E+02  0.89389943459E+02  0.00000000000E+00 0.  1.
         24    2    1    2    0    0  0.76623584464E+02 -0.61175318883E+02  0.17214543931E+02  0.12737390027E+03  0.79461793402E+02 0.  0.
         23    2    1    2    0    0  0.39859870993E+02 -0.10192218879E+03  0.39879871811E+03  0.42407139166E+03  0.93910520029E+02 0.  0.
        -13    1    3    3    0    0  0.70423172312E+02 -0.79386509743E+02  0.19834425079E+02  0.10795853623E+03  0.00000000000E+00 0.  1.
         14    1    3    3    0    0  0.62004121518E+01  0.18211190860E+02 -0.26198811474E+01  0.19415364035E+02  0.00000000000E+00 0. -1.
        -11    1    4    4    0    0  0.26946054082E+02  0.57227311893E+01  0.15248290070E+03  0.15495120035E+03  0.00000000000E+00 0.  1.
         11    1    4    4    0    0  0.12913816911E+02 -0.10764491998E+03  0.24631581741E+03  0.26912019131E+03  0.00000000000E+00 0. -1.
         21    1    1    2  503  502  0.49724186303E+01  0.21809955601E+02 -0.71735758599E+01  0.23491685784E+02  0.00000000000E+00 0.  1.
          1    1    1    2  501    0 -0.12145587409E+03  0.14128755207E+03  0.13622153997E+04  0.13748979951E+04  0.00000000000E+00 0. -1.
<scales pt_clust_5="13000.00000" pt_clust_6="13000.00000" pt_clust_7="13000.00000" pt_clust_8="13000.00000" pt_clust_9="22.36960" pt_clust_10="13000.00000"></scales>
<clustering>
<clus scale="   22.370">  2  9  1 -1</clus>
<clus scale="   79.462">  5  6 -1 -1</clus>
<clus scale="   93.911">  7  8 -1 -1</clus>
<clus scale="  121.600">  1  5  2 -1</clus>
<clus scale="  123.161">  7 10 -1 -1</clus>
<clus scale="   22.370">  2  5  1 -1</clus>
</clustering>
</event>
<event>
10    4  0.2866397E-005  0.4312012E+03  0.7546771E-02  0.1088813E+00
         21   -1    0    0  501  502  0.00000000000E+00  0.00000000000E+00  0.90516918070E+03  0.90516918070E+03  0.00000000000E+00 0.  1.
          2   -1    0    0  503    0 -0.00000000000E+00 -0.00000000000E+00 -0.12026345582E+03  0.12026345582E+03  0.00000000000E+00 0. -1.
         24    2    1    2    0    0 -0.43528454175E+02 -0.86725688775E+00 -0.27944625742E+02  0.96362191952E+02  0.81297548995E+02 0.  0.
         23    2    1    2    0    0  0.10535652529E+03 -0.16421646265E+03  0.25955780310E+03  0.33664865552E+03  0.88853925569E+02 0.  0.
        -13    1    3    3    0    0 -0.14554164479E+01  0.35492721638E+02 -0.18178178368E+02  0.39903605038E+02  0.00000000000E+00 0.  1.
         14    1    3    3    0    0 -0.42073037727E+02 -0.36359978526E+02 -0.97664473749E+01  0.56458586914E+02  0.00000000000E+00 0. -1.
        -13    1    4    4    0    0  0.18177997510E+02 -0.13446056058E+02 -0.16866797333E+01  0.22673352322E+02  0.00000000000E+00 0. -1.
         13    1    4    4    0    0  0.87178527785E+02 -0.15077040659E+03  0.26124448283E+03  0.31397530320E+03  0.00000000000E+00 0.  1.
         21    1    1    2  503  502  0.18892427889E+02 -0.66440734092E+01  0.32931221500E+02  0.38542611386E+02  0.00000000000E+00 0. -1.
          1    1    1    2  501    0 -0.80720499008E+02  0.17172779294E+03  0.52036132602E+03  0.55387917766E+03  0.00000000000E+00 0. -1.
<scales pt_clust_5="13000.00000" pt_clust_6="13000.00000" pt_clust_7="13000.00000" pt_clust_8="13000.00000" pt_clust_9="20.02667" pt_clust_10="13000.00000"></scales>
<clustering>
<clus scale="   20.027">  1  9  2 -1</clus>
<clus scale="   81.298">  5  6 -1 -1</clus>
<clus scale="   88.854">  7  8 -1 -1</clus>
<clus scale="   91.876">  2  5  1 -1</clus>
<clus scale="  186.147">  7 10 -1 -1</clus>
<clus scale="   20.027">  1  5  2 -1</clus>
</clustering>
</event>
<event>
10    4  0.2866397E-005  0.4559273E+03  0.7546771E-02  0.1085702E+00
          2   -1    0    0  502    0 -0.00000000000E+00  0.00000000000E+00  0.14929865909E+04  0.14929865909E+04  0.00000000000E+00 0. -1.
         21   -1    0    0  503  502  0.00000000000E+00 -0.00000000000E+00 -0.85006778580E+02  0.85006778580E+02  0.00000000000E+00 0. -1.
         24    2    1    2    0    0  0.18688224684E+02  0.13669187238E+02  0.24514234821E+03  0.25922841420E+03  0.81046304162E+02 0.  0.
         23    2    1    2    0    0  0.11979645497E+03 -0.11675300913E+03  0.27474573734E+03  0.33389612845E+03  0.89548582577E+02 0.  0.
        -13    1    3    3    0    0  0.92835058254E+00  0.40769660017E+02  0.69157624075E+02  0.80285764494E+02  0.00000000000E+00 0.  1.
         14    1    3    3    0    0  0.17759874102E+02 -0.27100472779E+02  0.17598472414E+03  0.17894264970E+03  0.00000000000E+00 0. -1.
        -13    1    4    4    0    0  0.76961918029E+02 -0.12425603085E+03  0.21608650145E+03  0.26087559130E+03  0.00000000000E+00 0. -1.
         13    1    4    4    0    0  0.42834536941E+02  0.75030217155E+01  0.58659235888E+02  0.73020537143E+02  0.00000000000E+00 0.  1.
         21    1    1    2  503  501  0.27144490908E+02 -0.45747628125E+02 -0.14564692368E+02  0.55152507916E+02  0.00000000000E+00 0. -1.
          1    1    1    2  501    0 -0.16562917056E+03  0.14883145002E+03  0.90265641918E+03  0.92971631896E+03  0.00000000000E+00 0. -1.
<scales pt_clust_5="13000.00000" pt_clust_6="13000.00000" pt_clust_7="13000.00000" pt_clust_8="13000.00000" pt_clust_9="53.19463" pt_clust_10="13000.00000"></scales>
<clustering>
<clus scale="   53.195">  2  9  1 -1</clus>
<clus scale="   81.046">  5  6 -1 -1</clus>
<clus scale="   84.423">  1  5  2 -1</clus>
<clus scale="   89.549">  7  8 -1 -1</clus>
<clus scale="  201.331">  7 10 -1 -1</clus>
<clus scale="   53.195">  2  5  1 -1</clus>
</clustering>
</event>
<event>
10    4  0.2866397E-005  0.2848797E+03  0.7546771E-02  0.1116854E+00
         -1   -1    0    0    0  501 -0.00000000000E+00  0.00000000000E+00  0.23705583448E+03  0.23705583448E+03  0.00000000000E+00 0.  1.
         21   -1    0    0  503  502  0.00000000000E+00 -0.00000000000E+00 -0.28924918928E+03  0.28924918928E+03  0.00000000000E+00 0.  1.
         24    2    1    2    0    0 -0.99298049242E+02 -0.35188643765E+02 -0.10452736301E+03  0.16937793706E+03  0.81636834288E+02 0.  0.
         23    2    1    2    0    0  0.41774103434E+02  0.12145785340E+03  0.30703407961E+01  0.15718177306E+03  0.90551625714E+02 0.  0.
        -13    1    3    3    0    0 -0.10967122450E+03 -0.40177895552E+02 -0.10605703340E+03  0.15776607718E+03  0.00000000000E+00 0.  1.
         14    1    3    3    0    0  0.10373175261E+02  0.49892517872E+01  0.15296703923E+01  0.11611859882E+02  0.00000000000E+00 0. -1.
        -11    1    4    4    0    0  0.62058591702E+02  0.74729725700E+02  0.27114697237E+02  0.10085141305E+03  0.00000000000E+00 0. -1.
         11    1    4    4    0    0 -0.20284488268E+02  0.46728127697E+02 -0.24044356440E+02  0.56330360011E+02  0.00000000000E+00 0.  1.
         21    1    1    2  503  501 -0.46914701604E+02 -0.97543414029E+01 -0.21138734309E+02  0.52373490345E+02  0.00000000000E+00 0. -1.
         -2    1    1    2    0  502  0.10443864741E+03 -0.76514868228E+02  0.70402401726E+02  0.14737182330E+03  0.00000000000E+00 0.  1.
<scales pt_clust_5="13000.00000" pt_clust_6="13000.00000" pt_clust_7="13000.00000" pt_clust_8="13000.00000" pt_clust_9="47.91802" pt_clust_10="13000.00000"></scales>
<clustering>
<clus scale="   47.918">  2  9  1 -1</clus>
<clus scale="   81.637">  5  6 -1 -1</clus>
<clus scale="   90.552">  7  8 -1 -1</clus>
<clus scale="  124.696">  7 10 -1 -1</clus>
<clus scale="  154.481">  1  5  2 -1</clus>
<clus scale="   47.918">  2  5  1 -1</clus>
</clustering>
</event>
<event>
10    4  0.2866397E-005  0.2018735E+03  0.7546771E-02  0.1168963E+00
          2   -1    0    0  503    0 -0.00000000000E+00  0.00000000000E+00  0.97189291777E+03  0.97189291777E+03  0.00000000000E+00 0. -1.
         21   -1    0    0  501  502  0.00000000000E+00 -0.00000000000E+00 -0.42663511699E+02  0.42663511699E+02  0.00000000000E+00 0. -1.
         24    2    1    2    0    0 -0.45044713047E+02 -0.84753003797E+02  0.60563440253E+03  0.61842740320E+03  0.80295240666E+02 0.  0.
         23    2    1    2    0    0  0.57778964914E+02  0.10788677321E+03  0.16106594695E+03  0.21670258505E+03  0.77716191863E+02 0.  0.
        -13    1    3    3    0    0 -0.34782831175E+01 -0.83178312571E+02  0.38353082595E+03  0.39246225880E+03  0.00000000000E+00 0.  1.
         14    1    3    3    0    0 -0.41566429930E+02 -0.15746912257E+01  0.22210357658E+03  0.22596514439E+03  0.00000000000E+00 0. -1.
        -13    1    4    4    0    0 -0.12160019620E+02  0.54990948117E+02  0.75416596547E+02  0.94125094883E+02  0.00000000000E+00 0.  1.
         13    1    4    4    0    0  0.69938984533E+02  0.52895825092E+02  0.85649350406E+02  0.12257749016E+03  0.00000000000E+00 0. -1.
         21    1    1    2  503  502 -0.19788937615E+02  0.18963938777E+02  0.32200805456E+02  0.42286225864E+02  0.00000000000E+00 0.  1.
          1    1    1    2  501    0  0.70546857484E+01 -0.42097708188E+02  0.13032825113E+03  0.13714021536E+03  0.00000000000E+00 0. -1.
<scales pt_clust_5="13000.00000" pt_clust_6="13000.00000" pt_clust_7="13000.00000" pt_clust_8="13000.00000" pt_clust_9="27.40863" pt_clust_10="13000.00000"></scales>
<clustering>
<clus scale="   27.409">  2  9  1 -1</clus>
<clus scale="   77.716">  7  8 -1 -1</clus>
<clus scale="   40.722">  7 10 -1 -1</clus>
<clus scale="   80.295">  5  6 -1 -1</clus>
<clus scale="  124.249">  1  5  2 -1</clus>
<clus scale="   27.409">  2  5  1 -1</clus>
</clustering>
</event>
<event>
10    4  0.2866397E-005  0.4794943E+03  0.7546771E-02  0.1061088E+00
          2   -1    0    0  503    0 -0.00000000000E+00  0.00000000000E+00  0.84266080806E+03  0.84266080806E+03  0.00000000000E+00 0. -1.
         21   -1    0    0  501  502  0.00000000000E+00 -0.00000000000E+00 -0.32916908939E+03  0.32916908939E+03  0.00000000000E+00 0. -1.
         24    2    1    2    0    0 -0.22303335238E+02 -0.11415410933E+03  0.61215020146E+02  0.15467154551E+03  0.81531643309E+02 0.  0.
         23    2    1    2    0    0 -0.65689807371E+00  0.14074871540E+01 -0.25132148202E+02  0.95184500148E+02  0.91793527332E+02 0.  0.
        -11    1    3    3    0    0  0.20336229459E+02 -0.48736880148E+02 -0.39624651914E+01  0.52957972446E+02  0.00000000000E+00 0.  1.
         12    1    3    3    0    0 -0.42639564698E+02 -0.65417229181E+02  0.65177485337E+02  0.10171357307E+03  0.00000000000E+00 0. -1.
        -11    1    4    4    0    0  0.40499715061E+02  0.13956562993E+02 -0.29385845870E+02  0.51947478361E+02  0.00000000000E+00 0. -1.
         11    1    4    4    0    0 -0.41156613135E+02 -0.12549075839E+02  0.42536976685E+01  0.43237021787E+02  0.00000000000E+00 0.  1.
         21    1    1    2  503  502 -0.27282593625E+02  0.28691274550E+03 -0.10904381901E+03  0.30814577380E+03  0.00000000000E+00 0. -1.
          1    1    1    2  501    0  0.50242826937E+02 -0.17416612333E+03  0.58645266574E+03  0.61382807799E+03  0.00000000000E+00 0. -1.
<scales pt_clust_5="13000.00000" pt_clust_6="13000.00000" pt_clust_7="13000.00000" pt_clust_8="13000.00000" pt_clust_9="273.13176" pt_clust_10="13000.00000"></scales>
<clustering>
<clus scale="   81.532">  5  6 -1 -1</clus>
<clus scale="   91.794">  7  8 -1 -1</clus>
<clus scale="  142.042">  1  5  2 -1</clus>
<clus scale="  269.322">  7 10 -1 -1</clus>
<clus scale="  273.132">  2  9  1 -1</clus>
<clus scale="  273.132">  2  5  1 -1</clus>
</clustering>
</event>
<event>
10    4  0.2866397E-005  0.1707078E+03  0.7546771E-02  0.1197365E+00
         -1   -1    0    0    0  501 -0.00000000000E+00  0.00000000000E+00  0.73714099912E+03  0.73714099912E+03  0.00000000000E+00 0.  1.
         21   -1    0    0  501  502  0.00000000000E+00 -0.00000000000E+00 -0.52854067936E+02  0.52854067936E+02  0.00000000000E+00 0.  1.
         24    2    1    2    0    0 -0.19374336778E+01 -0.68852616658E+02  0.37704772240E+03  0.39161772035E+03  0.80343123299E+02 0.  0.
         23    2    1    2    0    0  0.66824900236E+02  0.50592984548E+02  0.10633179138E+03  0.16440253957E+03  0.93255175628E+02 0.  0.
        -13    1    3    3    0    0 -0.29965052968E+02 -0.71570456134E+02  0.28317198128E+03  0.29360961424E+03  0.00000000000E+00 0.  1.
         14    1    3    3    0    0  0.28027619290E+02  0.27178394763E+01  0.93875741113E+02  0.98008106113E+02  0.00000000000E+00 0. -1.
        -13    1    4    4    0    0  0.14663428409E+02  0.66449455885E+02  0.41539571196E+02  0.79725041833E+02  0.00000000000E+00 0.  1.
         13    1    4    4    0    0  0.52161471827E+02 -0.15856471337E+02  0.64792220185E+02  0.84677497736E+02  0.00000000000E+00 0. -1.
         21    1    1    2  503  502 -0.61154108289E+02 -0.17986346188E+02  0.56954461057E+02  0.85481835755E+02  0.00000000000E+00 0.  1.
         -2    1    1    2    0  503 -0.37333582695E+01  0.36245978298E+02  0.14395295635E+03  0.14849297138E+03  0.00000000000E+00 0.  1.
<scales pt_clust_5="13000.00000" pt_clust_6="13000.00000" pt_clust_7="13000.00000" pt_clust_8="13000.00000" pt_clust_9="63.74428" pt_clust_10="13000.00000"></scales>
<clustering>
<clus scale="   63.744">  2  9  1 -1</clus>
<clus scale="   80.343">  5  6 -1 -1</clus>
<clus scale="   93.255">  7  8 -1 -1</clus>
<clus scale="   35.943">  7 10 -1 -1</clus>
<clus scale="  108.888">  1  5  2 -1</clus>
<clus scale="   63.744">  2  5  1 -1</clus>
</clustering>
</event>
<event>
10    4  0.2866397E-005  0.2098186E+03  0.7546771E-02  0.1156606E+00
          2   -1    0    0  503    0 -0.00000000000E+00  0.00000000000E+00  0.49711846919E+03  0.49711846919E+03  0.00000000000E+00 0. -1.
         21   -1    0    0  501  502  0.00000000000E+00 -0.00000000000E+00 -0.10274245593E+03  0.10274245593E+03  0.00000000000E+00 0. -1.
         24    2    1    2    0    0  0.43848727289E+02 -0.12053869582E+03  0.32015948016E+03  0.35381387702E+03  0.78929581035E+02 0.  0.
         23    2    1    2    0    0 -0.19657666360E+02 -0.27893791327E+01  0.75824747661E+02  0.10923850920E+03  0.76088468591E+02 0.  0.
        -11    1    3    3    0    0 -0.25931757418E+01 -0.45280475748E+02  0.41563471188E+02  0.61518844118E+02  0.00000000000E+00 0.  1.
         12    1    3    3    0    0  0.46441903031E+02 -0.75258220074E+02  0.27859600897E+03  0.29229503290E+03  0.00000000000E+00 0. -1.
        -11    1    4    4    0    0 -0.39651168667E+02  0.23124448062E+02  0.43688946749E+02  0.63369388058E+02  0.00000000000E+00 0.  1.
         11    1    4    4    0    0  0.19993502307E+02 -0.25913827194E+02  0.32135800912E+02  0.45869121145E+02  0.00000000000E+00 0. -1.
         21    1    1    2  503  502  0.16311932101E+02  0.28163861512E+02  0.60355566787E+01  0.33101513085E+02  0.00000000000E+00 0. -1.
          1    1    1    2  501    0 -0.40502993030E+02  0.95164213443E+02 -0.76437712412E+01  0.10370702582E+03  0.00000000000E+00 0. -1.
<scales pt_clust_5="13000.00000" pt_clust_6="13000.00000" pt_clust_7="13000.00000" pt_clust_8="13000.00000" pt_clust_9="32.54662" pt_clust_10="13000.00000"></scales>
<clustering>
<clus scale="   32.547">  2  9  1 -1</clus>
<clus scale="   76.088">  7  8 -1 -1</clus>
<clus scale="   78.930">  5  6 -1 -1</clus>
<clus scale="  116.748">  7 10 -1 -1</clus>
<clus scale="  147.340">  1  5  2 -1</clus>
<clus scale="   32.547">  2  5  1 -1</clus>
</clustering>
</event>
<event>
10    4  0.2866397E-005  0.2132407E+03  0.7546771E-02  0.1179562E+00
         21   -1    0    0  501  502  0.00000000000E+00  0.00000000000E+00  0.26645825249E+03  0.26645825249E+03  0.00000000000E+00 0. -1.
          2   -1    0    0  503    0 -0.00000000000E+00 -0.00000000000E+00 -0.17172027785E+03  0.17172027785E+03  0.00000000000E+00 0. -1.
         24    2    1    2    0    0  0.14687946907E+02 -0.14742301774E+01 -0.78154452856E+02  0.11416971800E+03  0.81906635071E+02 0.  0.
         23    2    1    2    0    0  0.44864097977E+02  0.74374897709E+02  0.56273136887E+00  0.12536731600E+03  0.90400412379E+02 0.  0.
        -11    1    3    3    0    0 -0.28653487230E+02  0.19679901929E+02 -0.37019523403E+02  0.50781551604E+02  0.00000000000E+00 0.  1.
         12    1    3    3    0    0  0.43341434136E+02 -0.21154132107E+02 -0.41134929454E+02  0.63388166398E+02  0.00000000000E+00 0. -1.
        -13    1    4    4    0    0  0.10219972955E+02  0.25074396441E+02  0.43597545022E+02  0.51321721873E+02  0.00000000000E+00 0.  1.
         13    1    4    4    0    0  0.34644125022E+02  0.49300501267E+02 -0.43034813653E+02  0.74045594128E+02  0.00000000000E+00 0. -1.
         21    1    1    2  503  502 -0.25427841515E+02 -0.20881540364E+02  0.87205590887E+02  0.93206378183E+02  0.00000000000E+00 0.  1.
          1    1    1    2  501    0 -0.34124203369E+02 -0.52019127167E+02  0.85124105237E+02  0.10543511815E+03  0.00000000000E+00 0. -1.
<scales pt_clust_5="13000.00000" pt_clust_6="13000.00000" pt_clust_7="13000.00000" pt_clust_8="13000.00000" pt_clust_9="32.90310" pt_clust_10="13000.00000"></scales>
<clustering>
<clus scale="   32.903">  1  9  2 -1</clus>
<clus scale="   81.907">  5  6 -1 -1</clus>
<clus scale="   82.873">  2  5  1 -1</clus>
<clus scale="   90.400">  7  8 -1 -1</clus>
<clus scale="   78.323">  7 10 -1 -1</clus>
<clus scale="   32.903">  1  5  2 -1</clus>
</clustering>
</event>
<event>
10    4  0.2866397E-005  0.8360973E+03  0.7546771E-02  0.9958049E-01
         21   -1    0    0  503  502  0.00000000000E+00  0.00000000000E+00  0.39403357603E+03  0.39403357603E+03  0.00000000000E+00 0. -1.
          2   -1    0    0  502    0 -0.00000000000E+00 -0.00000000000E+00 -0.16016283262E+04  0.16016283262E+04  0.00000000000E+00 0. -1.
         24    2    1    2    0    0 -0.12032179193E+03 -0.11962112738E+03 -0.79645871864E+02  0.20362097225E+03  0.79570646008E+02 0.  0.
         23    2    1    2    0    0 -0.18942015830E+03  0.27747294896E+01  0.22437112629E+02  0.21110754456E+03  0.90417232057E+02 0.  0.
        -13    1    3    3    0    0 -0.58312299106E+02 -0.11549041199E+02 -0.82438929088E+01  0.60013884643E+02  0.00000000000E+00 0.  1.
         14    1    3    3    0    0 -0.62009492820E+02 -0.10807208619E+03 -0.71401978955E+02  0.14360708761E+03  0.00000000000E+00 0. -1.
        -11    1    4    4    0    0 -0.64054401360E+02 -0.41701906465E+02  0.14961380422E+01  0.76447719164E+02  0.00000000000E+00 0.  1.
         11    1    4    4    0    0 -0.12536575694E+03  0.44476635954E+02  0.20940974587E+02  0.13465982540E+03  0.00000000000E+00 0. -1.
         21    1    1    2  503  501  0.40131978897E+03 -0.28604803369E+03 -0.17727940403E+03  0.52374520302E+03  0.00000000000E+00 0. -1.
          1    1    1    2  501    0 -0.91577838739E+02  0.40289443158E+03 -0.97310658689E+03  0.10571881824E+04  0.00000000000E+00 0. -1.
<scales pt_clust_5="13000.00000" pt_clust_6="13000.00000" pt_clust_7="13000.00000" pt_clust_8="13000.00000" pt_clust_9="487.63140" pt_clust_10="13000.00000"></scales>
<clustering>
<clus scale="   79.571">  5  6 -1 -1</clus>
<clus scale="   90.417">  7  8 -1 -1</clus>
<clus scale="  187.398">  2  5  1 -1</clus>
<clus scale="  364.596">  7 10 -1 -1</clus>
<clus scale="  487.631">  1  9  2 -1</clus>
<clus scale="  487.631">  1  5  2 -1</clus>
</clustering>
</event>
<event>
10    4  0.2866397E-005  0.3017461E+03  0.7546771E-02  0.1133648E+00
         21   -1    0    0  503  502  0.00000000000E+00  0.00000000000E+00  0.25973430235E+03  0.25973430235E+03  0.00000000000E+00 0. -1.
          2   -1    0    0  502    0 -0.00000000000E+00 -0.00000000000E+00 -0.66832857668E+03  0.66832857668E+03  0.00000000000E+00 0. -1.
         24    2    1    2    0    0  0.15829263341E+02  0.23594196385E+02 -0.36080715032E+03  0.37065979758E+03  0.79997713295E+02 0.  0.
         23    2    1    2    0    0 -0.90098754591E+02 -0.74223088758E+02 -0.27135752083E+03  0.30887205510E+03  0.90223000550E+02 0.  0.
        -13    1    3    3    0    0 -0.24418579014E+02 -0.15242706576E+02 -0.13419221296E+03  0.13724488014E+03  0.00000000000E+00 0.  1.
         14    1    3    3    0    0  0.40247842355E+02  0.38836902961E+02 -0.22661493736E+03  0.23341491743E+03  0.00000000000E+00 0. -1.
        -13    1    4    4    0    0  0.15861629645E+02 -0.19420012853E+02 -0.75390123127E+02  0.79450606413E+02  0.00000000000E+00 0.  1.
         13    1    4    4    0    0 -0.10596038424E+03 -0.54803075905E+02 -0.19596739770E+03  0.22942144869E+03  0.00000000000E+00 0. -1.
         21    1    1    2  503  501  0.59001820774E+02  0.10679586385E+02  0.16819544652E+03  0.17856364874E+03  0.00000000000E+00 0. -1.
          1    1    1    2  501    0  0.15267670476E+02  0.39949305989E+02  0.55374950296E+02  0.69967377620E+02  0.00000000000E+00 0. -1.
<scales pt_clust_5="13000.00000" pt_clust_6="13000.00000" pt_clust_7="13000.00000" pt_clust_8="13000.00000" pt_clust_9="59.96056" pt_clust_10="13000.00000"></scales>
<clustering>
<clus scale="   59.961">  1  9  2 -1</clus>
<clus scale="   79.998">  5  6 -1 -1</clus>
<clus scale="   85.755">  2  5  1 -1</clus>
<clus scale="   90.223">  7  8 -1 -1</clus>
<clus scale="   78.716">  7 10 -1 -1</clus>
<clus scale="   59.961">  1  5  2 -1</clus>
</clustering>
</event>
<event>
10    4  0.2866397E-005  0.2693879E+03  0.7546771E-02  0.1129665E+00
          2   -1    0    0  503    0 -0.00000000000E+00  0.00000000000E+00  0.18669418382E+04  0.18669418382E+04  0.00000000000E+00 0. -1.
         21   -1    0    0  501  502  0.00000000000E+00 -0.00000000000E+00 -0.13840573855E+03  0.13840573855E+03  0.00000000000E+00 0. -1.
         24    2    1    2    0    0 -0.11028547818E+03  0.26199353330E+02  0.43192126183E+03  0.45371901934E+03  0.80347241927E+02 0.  0.
         23    2    1    2    0    0 -0.26315899560E+02 -0.86637458581E+02  0.48843000370E+03  0.50495562527E+03  0.90651746699E+02 0.  0.
        -11    1    3    3    0    0 -0.10886974315E+03  0.16942185400E+02  0.43034099346E+03  0.44422182440E+03  0.00000000000E+00 0.  1.
         12    1    3    3    0    0 -0.14157350252E+01  0.92571679303E+01  0.15802683684E+01  0.94971949473E+01  0.00000000000E+00 0. -1.
        -11    1    4    4    0    0  0.21492850755E+02  0.39470660694E+01  0.47504129298E+02  0.52289236602E+02  0.00000000000E+00 0.  1.
         11    1    4    4    0    0 -0.47808750315E+02 -0.90584524650E+02  0.44092587440E+03  0.45266638867E+03  0.00000000000E+00 0. -1.
         21    1    1    2  503  502  0.20669920270E+02  0.13846958828E+02 -0.11368457247E+03  0.11637510855E+03  0.00000000000E+00 0. -1.
          1    1    1    2  501    0  0.11593145747E+03  0.46591146423E+02  0.92186940662E+03  0.93029782361E+03  0.00000000000E+00 0. -1.
<scales pt_clust_5="13000.00000" pt_clust_6="13000.00000" pt_clust_7="13000.00000" pt_clust_8="13000.00000" pt_clust_9="24.87939" pt_clust_10="13000.00000"></scales>
<clustering>
<clus scale="   24.879">  2  9  1 -1</clus>
<clus scale="   80.347">  5  6 -1 -1</clus>
<clus scale="   90.652">  7  8 -1 -1</clus>
<clus scale="  129.335">  7 10 -1 -1</clus>
<clus scale="  132.861">  1  5  2 -1</clus>
<clus scale="   24.879">  2  5  1 -1</clus>
</clustering>
</event>
<event>
10    4  0.2866397E-005  0.2223385E+03  0.7546771E-02  0.1173499E+00
         -1   -1    0    0    0  501 -0.00000000000E+00  0.00000000000E+00  0.43325653118E+03  0.43325653118E+03  0.00000000000E+00 0.  1.
         21   -1    0    0  503  502  0.00000000000E+00 -0.00000000000E+00 -0.68887830455E+03  0.68887830455E+03  0.00000000000E+00 0. -1.
         24    2    1    2    0    0  0.19487607764E+02  0.14616887815E+02  0.15476463844E+03  0.17602225462E+03  0.80239145957E+02 0.  0.
         23    2    1    2    0    0  0.80496565520E+02 -0.45363310200E+00  0.14688490445E+03  0.19128340483E+03  0.92381074718E+02 0.  0.
        -11    1    3    3    0    0 -0.80164369106E+01  0.31978012966E+02  0.13266417583E+03  0.13669908603E+03  0.00000000000E+00 0.  1.
         12    1    3    3    0    0  0.27504044675E+02 -0.17361125152E+02  0.22100462612E+02  0.39323168586E+02  0.00000000000E+00 0. -1.
        -13    1    4    4    0    0  0.55381437272E+02 -0.61539866400E+01  0.15465150713E+03  0.16438389155E+03  0.00000000000E+00 0. -1.
         13    1    4    4    0    0  0.25115128248E+02  0.57003535380E+01 -0.77666026799E+01  0.26899513277E+02  0.00000000000E+00 0.  1.
         21    1    1    2  503  501 -0.14382956540E+03  0.64511338840E+02 -0.62344560573E+03  0.64306537772E+03  0.00000000000E+00 0. -1.
         -2    1    1    2    0  502  0.43845392118E+02 -0.78674593553E+02  0.66174289475E+02  0.11176379856E+03  0.00000000000E+00 0.  1.
<scales pt_clust_5="13000.00000" pt_clust_6="13000.00000" pt_clust_7="13000.00000" pt_clust_8="13000.00000" pt_clust_9="157.20439" pt_clust_10="13000.00000"></scales>
<clustering>
<clus scale="   80.239">  5  6 -1 -1</clus>
<clus scale="   83.855">  1  5  2 -1</clus>
<clus scale="   92.381">  7  8 -1 -1</clus>
<clus scale="   89.338">  7 10 -1 -1</clus>
<clus scale="  157.204">  2  9  1 -1</clus>
<clus scale="  157.204">  2  5  1 -1</clus>
</clustering>
</event>
<event>
10    4  0.2866397E-005  0.7374536E+03  0.7546771E-02  0.1009817E+00
         21   -1    0    0  503  502  0.00000000000E+00  0.00000000000E+00  0.73394512751E+03  0.73394512751E+03  0.00000000000E+00 0. -1.
          2   -1    0    0  502    0 -0.00000000000E+00 -0.00000000000E+00 -0.18050764044E+04  0.18050764044E+04  0.00000000000E+00 0. -1.
         24    2    1    2    0    0  0.78385007928E+02  0.13411584037E+03 -0.14593420363E+04  0.14698715086E+04  0.81925604436E+02 0.  0.
         23    2    1    2    0    0 -0.12581987142E+03 -0.35162016427E+03 -0.19288896431E+03  0.43015471867E+03  0.91430571890E+02 0.  0.
        -13    1    3    3    0    0  0.38237747881E+02  0.71200962016E+02 -0.41066420626E+03  0.41854126757E+03  0.00000000000E+00 0.  1.
         14    1    3    3    0    0  0.40147260047E+02  0.62914878357E+02 -0.10486778301E+04  0.10513302410E+04  0.00000000000E+00 0. -1.
        -11    1    4    4    0    0 -0.27239038894E+01 -0.89182253376E+02 -0.16217004247E+02  0.90685639416E+02  0.00000000000E+00 0.  1.
         11    1    4    4    0    0 -0.12309596753E+03 -0.26243791089E+03 -0.17667196006E+03  0.33946907925E+03  0.00000000000E+00 0. -1.
         21    1    1    2  503  501 -0.25721641569E+02  0.59322059235E+02  0.31027228239E+03  0.31693784687E+03  0.00000000000E+00 0. -1.
          1    1    1    2  501    0  0.73156505065E+02  0.15818226466E+03  0.27082744138E+03  0.32205745775E+03  0.00000000000E+00 0. -1.
<scales pt_clust_5="13000.00000" pt_clust_6="13000.00000" pt_clust_7="13000.00000" pt_clust_8="13000.00000" pt_clust_9="64.65841" pt_clust_10="13000.00000"></scales>
<clustering>
<clus scale="   64.658">  1  9  2 -1</clus>
<clus scale="   81.926">  5  6 -1 -1</clus>
<clus scale="   91.431">  7  8 -1 -1</clus>
<clus scale="  176.047">  2  5  1 -1</clus>
<clus scale="  226.091">  7 10 -1 -1</clus>
<clus scale="   64.658">  1  5  2 -1</clus>
</clustering>
</event>
<event>
10    4  0.2866397E-005  0.2938815E+03  0.7546771E-02  0.1135833E+00
         21   -1    0    0  503  502  0.00000000000E+00  0.00000000000E+00  0.15489259542E+03  0.15489259542E+03  0.00000000000E+00 0. -1.
          2   -1    0    0  502    0 -0.00000000000E+00 -0.00000000000E+00 -0.17260650892E+04  0.17260650892E+04  0.00000000000E+00 0. -1.
         24    2    1    2    0    0 -0.31648256185E+02 -0.17594063656E+02 -0.37565632343E+03  0.38582945209E+03  0.80221752480E+02 0.  0.
         23    2    1    2    0    0 -0.13451182994E+02 -0.73247764267E+02 -0.33389337748E+03  0.35387095572E+03  0.90519039331E+02 0.  0.
        -11    1    3    3    0    0 -0.16604911155E+02 -0.47039248408E+02 -0.15833830344E+03  0.16601033794E+03  0.00000000000E+00 0.  1.
         12    1    3    3    0    0 -0.15043345030E+02  0.29445184752E+02 -0.21731801999E+03  0.21981911415E+03  0.00000000000E+00 0. -1.
        -11    1    4    4    0    0 -0.48972182005E+02 -0.23258017725E+02 -0.12718857939E+03  0.13826114685E+03  0.00000000000E+00 0.  1.
         11    1    4    4    0    0  0.35520999010E+02 -0.49989746542E+02 -0.20670479809E+03  0.21560980888E+03  0.00000000000E+00 0. -1.
         21    1    1    2  503  501  0.81692966225E+02  0.22322882276E+03  0.29572355663E+02  0.23953991789E+03  0.00000000000E+00 0. -1.
          1    1    1    2  501    0 -0.36593527046E+02 -0.13238699484E+03 -0.89119514855E+03  0.90171735894E+03  0.00000000000E+00 0. -1.
<scales pt_clust_5="13000.00000" pt_clust_6="13000.00000" pt_clust_7="13000.00000" pt_clust_8="13000.00000" pt_clust_9="235.57662" pt_clust_10="13000.00000"></scales>
<clustering>
<clus scale="   80.222">  5  6 -1 -1</clus>
<clus scale="   88.015">  2  5  1 -1</clus>
<clus scale="   90.519">  7  8 -1 -1</clus>
<clus scale="  155.226">  7 10 -1 -1</clus>
<clus scale="  235.577">  1  9  2 -1</clus>
<clus scale="  235.577">  1  5  2 -1</clus>
</clustering>
</event>
<event>
10    4  0.2866397E-005  0.4466404E+03  0.7546771E-02  0.1087895E+00
          4   -1    0    0  502    0 -0.00000000000E+00  0.00000000000E+00  0.55686209861E+03  0.55686209861E+03  0.00000000000E+00 0. -1.
         21   -1    0    0  503  502  0.00000000000E+00 -0.00000000000E+00 -0.48428652679E+03  0.48428652679E+03  0.00000000000E+00 0. -1.
         24    2    1    2    0    0  0.22374971273E+02 -0.16789371329E+02  0.64349541868E+02  0.10638067816E+03  0.79959132173E+02 0.  0.
         23    2    1    2    0    0  0.12043482346E+03  0.48645360684E+02  0.62085679619E+02  0.17076146329E+03  0.91836419305E+02 0.  0.
        -13    1    3    3    0    0  0.38955958876E+02 -0.27318936700E+02  0.71151408501E+02  0.85594473923E+02  0.00000000000E+00 0.  1.
         14    1    3    3    0    0 -0.16580987604E+02  0.10529565372E+02 -0.68018666334E+01  0.20786204236E+02  0.00000000000E+00 0. -1.
        -11    1    4    4    0    0  0.59959732086E+02  0.14941329433E+02 -0.18516062078E+02  0.64507808457E+02  0.00000000000E+00 0.  1.
         11    1    4    4    0    0  0.60475091379E+02  0.33704031251E+02  0.80601741697E+02  0.10625365483E+03  0.00000000000E+00 0. -1.
         21    1    1    2  503  501 -0.13401634591E+03  0.23227606038E+03 -0.30033241983E+03  0.40263148362E+03  0.00000000000E+00 0. -1.
          3    1    1    2  501    0 -0.87934488310E+01 -0.26413204974E+03  0.24647277016E+03  0.36137500034E+03  0.00000000000E+00 0. -1.
<scales pt_clust_5="13000.00000" pt_clust_6="13000.00000" pt_clust_7="13000.00000" pt_clust_8="13000.00000" pt_clust_9="265.37717" pt_clust_10="13000.00000"></scales>
<clustering>
<clus scale="   79.959">  5  6 -1 -1</clus>
<clus scale="   84.711">  1  5  2 -1</clus>
<clus scale="   91.836">  7  8 -1 -1</clus>
<clus scale="  265.377">  2  9  1 -1</clus>
<clus scale="  167.802">  7 10 -1 -1</clus>
<clus scale="  265.377">  2  5  1 -1</clus>
</clustering>
</event>
<event>
10    4  0.2866397E-005  0.4853801E+03  0.7546771E-02  0.1068336E+00
          2   -1    0    0  502    0 -0.00000000000E+00  0.00000000000E+00  0.43150782161E+03  0.43150782161E+03  0.00000000000E+00 0. -1.
         21   -1    0    0  503  502  0.00000000000E+00 -0.00000000000E+00 -0.31300253688E+03  0.31300253688E+03  0.00000000000E+00 0. -1.
         24    2    1    2    0    0 -0.34256043470E+02  0.64403191141E+02 -0.20072129657E+02  0.11138277171E+03  0.81743402807E+02 0.  0.
         23    2    1    2    0    0 -0.19066316091E+03 -0.32484443753E+02  0.24538398820E+03  0.32511846693E+03  0.89894581933E+02 0.  0.
        -13    1    3    3    0    0  0.10239335965E+02  0.43866852361E+02  0.18819948215E+02  0.48819414046E+02  0.00000000000E+00 0.  1.
         14    1    3    3    0    0 -0.44495379434E+02  0.20536338780E+02 -0.38892077871E+02  0.62563357668E+02  0.00000000000E+00 0. -1.
        -11    1    4    4    0    0 -0.30466844406E+02  0.46212869258E+01  0.10330375803E+03  0.10780190779E+03  0.00000000000E+00 0.  1.
         11    1    4    4    0    0 -0.16019631650E+03 -0.37105730679E+02  0.14208023017E+03  0.21731655914E+03  0.00000000000E+00 0. -1.
         21    1    1    2  503  501  0.19460714281E+02  0.22412819716E+02 -0.90064679187E+02  0.94829849335E+02  0.00000000000E+00 0. -1.
          1    1    1    2  501    0  0.20545849010E+03 -0.54331567104E+02 -0.16741894623E+02  0.21317927051E+03  0.00000000000E+00 0. -1.
<scales pt_clust_5="13000.00000" pt_clust_6="13000.00000" pt_clust_7="13000.00000" pt_clust_8="13000.00000" pt_clust_9="29.68255" pt_clust_10="13000.00000"></scales>
<clustering>
<clus scale="   29.683">  2  9  1 -1</clus>
<clus scale="   81.743">  5  6 -1 -1</clus>
<clus scale="   89.895">  7  8 -1 -1</clus>
<clus scale="  112.002">  1  5  2 -1</clus>
<clus scale="  208.926">  7 10 -1 -1</clus>
<clus scale="   29.683">  2  5  1 -1</clus>
</clustering>
</event>
<event>
10    4  0.2866397E-005  0.1978824E+03  0.7546771E-02  0.1176580E+00
         21   -1    0    0  503  502  0.00000000000E+00  0.00000000000E+00  0.25346349866E+03  0.25346349866E+03  0.00000000000E+00 0.  1.
          2   -1    0    0  502    0 -0.00000000000E+00 -0.00000000000E+00 -0.21903071437E+03  0.21903071437E+03  0.00000000000E+00 0. -1.
         24    2    1    2    0    0  0.53044114393E+02  0.50754707369E+02  0.11524582436E+03  0.16003367770E+03  0.83303418740E+02 0.  0.
         23    2    1    2    0    0 -0.83638575893E+02 -0.49755553330E+02 -0.16612380155E+03  0.21337858540E+03  0.91990634320E+02 0.  0.
        -11    1    3    3    0    0 -0.12111226817E+02  0.18050370330E+02  0.72133199611E+02  0.75337216369E+02  0.00000000000E+00 0.  1.
         12    1    3    3    0    0  0.65155341210E+02  0.32704337039E+02  0.43112624752E+02  0.84696461333E+02  0.00000000000E+00 0. -1.
        -11    1    4    4    0    0 -0.79784887448E+02  0.39393684822E+01 -0.10491465540E+03  0.13186444482E+03  0.00000000000E+00 0.  1.
         11    1    4    4    0    0 -0.38536884446E+01 -0.53694921812E+02 -0.61209146145E+02  0.81514140583E+02  0.00000000000E+00 0. -1.
         21    1    1    2  503  501  0.12333546659E+02 -0.16239212309E+02  0.63917174506E+02  0.67091233305E+02  0.00000000000E+00 0.  1.
          1    1    1    2  501    0  0.18260914841E+02  0.15240058270E+02  0.21393586961E+02  0.31990716621E+02  0.00000000000E+00 0. -1.
<scales pt_clust_5="13000.00000" pt_clust_6="13000.00000" pt_clust_7="13000.00000" pt_clust_8="13000.00000" pt_clust_9="20.39187" pt_clust_10="13000.00000"></scales>
<clustering>
<clus scale="   20.392">  1  9  2 -1</clus>
<clus scale="   83.303">  5  6 -1 -1</clus>
<clus scale="   91.991">  7  8 -1 -1</clus>
<clus scale="   23.828">  7 10 -1 -1</clus>
<clus scale="  110.920">  2  5  1 -1</clus>
<clus scale="   20.392">  1  5  2 -1</clus>
</clustering>
</event>
<event>
10    4  0.2866397E-005  0.2899061E+03  0.7546771E-02  0.1129416E+00
          2   -1    0    0  503    0 -0.00000000000E+00  0.00000000000E+00  0.16927767066E+04  0.16927767066E+04  0.00000000000E+00 0. -1.
         21   -1    0    0  501  502  0.00000000000E+00 -0.00000000000E+00 -0.39198226832E+02  0.39198226832E+02  0.00000000000E+00 0. -1.
         24    2    1    2    0    0  0.21380972699E+02  0.36006453637E+02  0.83873036508E+03  0.84566275642E+03  0.99615569021E+02 0.  0.
         23    2    1    2    0    0 -0.75453796593E+02  0.48575493925E+02  0.18195476631E+03  0.22252013941E+03  0.91404712301E+02 0.  0.
        -11    1    3    3    0    0 -0.34556222010E+02  0.19020618061E+02  0.17634570694E+03  0.18070341654E+03  0.00000000000E+00 0.  1.
         12    1    3    3    0    0  0.55937194708E+02  0.16985835576E+02  0.66238465814E+03  0.66495933988E+03  0.00000000000E+00 0. -1.
        -11    1    4    4    0    0 -0.28314723986E+02 -0.21358198890E+02  0.94906126035E+02  0.10131667688E+03  0.00000000000E+00 0.  1.
         11    1    4    4    0    0 -0.47139072607E+02  0.69933692815E+02  0.87048640272E+02  0.12120346253E+03  0.00000000000E+00 0. -1.
         21    1    1    2  503  502 -0.21110869969E+02 -0.79320592468E+01  0.71730829917E+00  0.22563264966E+02  0.00000000000E+00 0. -1.
          1    1    1    2  501    0  0.75183693863E+02 -0.76649888314E+02  0.63217604004E+03  0.64122877260E+03  0.00000000000E+00 0. -1.
<scales pt_clust_5="13000.00000" pt_clust_6="13000.00000" pt_clust_7="13000.00000" pt_clust_8="13000.00000" pt_clust_9="22.55186" pt_clust_10="13000.00000"></scales>
<clustering>
<clus scale="   22.552">  2  9  1 -1</clus>
<clus scale="   91.405">  7  8 -1 -1</clus>
<clus scale="   99.616">  5  6 -1 -1</clus>
<clus scale="  105.959">  7 10 -1 -1</clus>
<clus scale="  107.256">  1  5  2 -1</clus>
<clus scale="   22.552">  2  5  1 -1</clus>
</clustering>
</event>
<event>
10    4  0.2866397E-005  0.1829740E+03  0.7546771E-02  0.1178755E+00
          2   -1    0    0  503    0 -0.00000000000E+00  0.00000000000E+00  0.60418884606E+03  0.60418884606E+03  0.00000000000E+00 0. -1.
         21   -1    0    0  501  502  0.00000000000E+00 -0.00000000000E+00 -0.19214521721E+03  0.19214521721E+03  0.00000000000E+00 0. -1.
         24    2    1    2    0    0  0.92369407253E+02 -0.76020091818E+02  0.27938347164E+03  0.31432965414E+03  0.80229953808E+02 0.  0.
         23    2    1    2    0    0 -0.77032447551E+02  0.76590155408E+02  0.25774414934E+03  0.29895547854E+03  0.10555700710E+03 0.  0.
        -13    1    3    3    0    0  0.28450405924E+02 -0.70741307250E+02  0.18620452927E+03  0.20121104560E+03  0.00000000000E+00 0.  1.
         14    1    3    3    0    0  0.63919001328E+02 -0.52787845682E+01  0.93178942368E+02  0.11311860854E+03  0.00000000000E+00 0. -1.
        -11    1    4    4    0    0 -0.53560430154E+02  0.24901301413E+02  0.34065480684E+02  0.68185419736E+02  0.00000000000E+00 0.  1.
         11    1    4    4    0    0 -0.23472017397E+02  0.51688853995E+02  0.22367866865E+03  0.23077005880E+03  0.00000000000E+00 0. -1.
         21    1    1    2  503  502 -0.34661788167E+02  0.73767774322E+01 -0.14791424766E+03  0.15210023361E+03  0.00000000000E+00 0. -1.
          1    1    1    2  501    0  0.19324828466E+02 -0.79468410221E+01  0.22830255527E+02  0.30948696982E+02  0.00000000000E+00 0. -1.
<scales pt_clust_5="13000.00000" pt_clust_6="13000.00000" pt_clust_7="13000.00000" pt_clust_8="13000.00000" pt_clust_9="35.43806" pt_clust_10="13000.00000"></scales>
<clustering>
<clus scale="   35.438">  2  9  1 -1</clus>
<clus scale="   80.230">  5  6 -1 -1</clus>
<clus scale="  105.557">  7  8 -1 -1</clus>
<clus scale="   17.547">  7 10 -1 -1</clus>
<clus scale="  133.580">  1  5  2 -1</clus>
<clus scale="   35.438">  2  5  1 -1</clus>
</clustering>
</event>
<event>
10    4  0.2866397E-005  0.3736740E+03  0.7546771E-02  0.1071342E+00
         21   -1    0    0  503  502  0.00000000000E+00  0.00000000000E+00  0.18058739128E+03  0.18058739128E+03  0.00000000000E+00 0. -1.
          2   -1    0    0  502    0 -0.00000000000E+00 -0.00000000000E+00 -0.12172695839E+04  0.12172695839E+04  0.00000000000E+00 0. -1.
         24    2    1    2    0    0 -0.21787216015E+02  0.21333083419E+03 -0.78034697065E+02  0.24173108778E+03  0.79748211616E+02 0.  0.
         23    2    1    2    0    0 -0.18043081348E+02  0.45484957720E+02 -0.38965728500E+03  0.40457996266E+03  0.97250770024E+02 0.  0.
        -11    1    3    3    0    0 -0.16785158694E+02  0.43544214853E+02 -0.52028726503E+02  0.69891548710E+02  0.00000000000E+00 0.  1.
         12    1    3    3    0    0 -0.50020573206E+01  0.16978661934E+03 -0.26005970562E+02  0.17183953907E+03  0.00000000000E+00 0. -1.
        -11    1    4    4    0    0 -0.29159430181E+02 -0.24449169297E+02 -0.13492207319E+03  0.14018559156E+03  0.00000000000E+00 0. -1.
         11    1    4    4    0    0  0.11116348833E+02  0.69934127017E+02 -0.25473521181E+03  0.26439437110E+03  0.00000000000E+00 0.  1.
         21    1    1    2  503  501 -0.26893081395E+02 -0.82219794994E+01  0.62689053220E+02  0.68707759151E+02  0.00000000000E+00 0. -1.
          1    1    1    2  501    0  0.66723378759E+02 -0.25059381241E+03 -0.63167926377E+03  0.68283816557E+03  0.00000000000E+00 0. -1.
<scales pt_clust_5="13000.00000" pt_clust_6="13000.00000" pt_clust_7="13000.00000" pt_clust_8="13000.00000" pt_clust_9="28.12186" pt_clust_10="13000.00000"></scales>
<clustering>
<clus scale="   28.122">  1  9  2 -1</clus>
<clus scale="   79.748">  5  6 -1 -1</clus>
<clus scale="   97.251">  7  8 -1 -1</clus>
<clus scale="  226.012">  2  5  1 -1</clus>
<clus scale="  128.053">  7 10 -1 -1</clus>
<clus scale="   28.122">  1  5  2 -1</clus>
</clustering>
</event>
<event>
10    4  0.2866397E-005  0.1809736E+03  0.7546771E-02  0.1200232E+00
          4   -1    0    0  503    0 -0.00000000000E+00  0.00000000000E+00  0.41335618443E+03  0.41335618443E+03  0.00000000000E+00 0. -1.
         21   -1    0    0  501  502  0.00000000000E+00 -0.00000000000E+00 -0.35228386022E+03  0.35228386022E+03  0.00000000000E+00 0.  1.
         24    2    1    2    0    0  0.15659178113E+02 -0.95928207453E+01  0.14327817485E+03  0.16503081307E+03  0.79807905645E+02 0.  0.
         23    2    1    2    0    0 -0.86183977778E+01  0.26566010500E+02  0.38799572433E+02  0.10196829281E+03  0.90067176175E+02 0.  0.
        -11    1    3    3    0    0  0.37668481376E+02  0.21160997925E+02  0.64331896142E+02  0.77493839649E+02  0.00000000000E+00 0.  1.
         12    1    3    3    0    0 -0.22009303263E+02 -0.30753818670E+02  0.78946278711E+02  0.87536973418E+02  0.00000000000E+00 0. -1.
        -11    1    4    4    0    0  0.11967823833E+01 -0.33241334966E+02  0.91572393222E+01  0.34500343048E+02  0.00000000000E+00 0.  1.
         11    1    4    4    0    0 -0.98151801611E+01  0.59807345466E+02  0.29642333110E+02  0.67467949766E+02  0.00000000000E+00 0. -1.
         21    1    1    2  503  502  0.54603818467E+02 -0.21567903609E+02 -0.30185880747E+03  0.30751502582E+03  0.00000000000E+00 0.  1.
          3    1    1    2  501    0 -0.61644598802E+02  0.45947138547E+01  0.18085338439E+03  0.19112591295E+03  0.00000000000E+00 0. -1.
<scales pt_clust_5="13000.00000" pt_clust_6="13000.00000" pt_clust_7="13000.00000" pt_clust_8="13000.00000" pt_clust_9="58.70904" pt_clust_10="13000.00000"></scales>
<clustering>
<clus scale="   58.709">  2  9  1 -1</clus>
<clus scale="   79.808">  5  6 -1 -1</clus>
<clus scale="   85.859">  1  5  2 -1</clus>
<clus scale="   90.067">  7  8 -1 -1</clus>
<clus scale="   38.406">  7 10 -1 -1</clus>
<clus scale="   58.709">  2  5  1 -1</clus>
</clustering>
</event>
<event>
10    4  0.2866397E-005  0.4445757E+03  0.7546771E-02  0.1079738E+00
         21   -1    0    0  503  502  0.00000000000E+00  0.00000000000E+00  0.20514936524E+03  0.20514936524E+03  0.00000000000E+00 0.  1.
         -3   -1    0    0    0  501 -0.00000000000E+00 -0.00000000000E+00 -0.68933604556E+03  0.68933604556E+03  0.00000000000E+00 0.  1.
         24    2    1    2    0    0 -0.44030546916E+02  0.36099481563E+02 -0.30819238781E+02  0.10386424282E+03  0.81216339648E+02 0.  0.
         23    2    1    2    0    0 -0.20347257790E+02 -0.18917789362E+03 -0.11563037502E+03  0.23718576523E+03  0.81758285598E+02 0.  0.
        -11    1    3    3    0    0 -0.18707311462E+02 -0.16632656946E+02  0.15331057855E+02  0.29353877328E+02  0.00000000000E+00 0.  1.
         12    1    3    3    0    0 -0.25323235454E+02  0.52732138509E+02 -0.46150296636E+02  0.74510365488E+02  0.00000000000E+00 0. -1.
        -13    1    4    4    0    0  0.25743919023E+02 -0.12724876095E+03 -0.75392583700E+02  0.15013007096E+03  0.00000000000E+00 0. -1.
         13    1    4    4    0    0 -0.46091176813E+02 -0.61929132666E+02 -0.40237791324E+02  0.87055694262E+02  0.00000000000E+00 0.  1.
         21    1    1    2  503  501 -0.52350273599E+02 -0.42922089129E+01  0.77886118798E+02  0.93942651148E+02  0.00000000000E+00 0.  1.
         -4    1    1    2    0  502  0.11672807830E+03  0.15737062097E+03 -0.41562318532E+03  0.45949275161E+03  0.00000000000E+00 0.  1.
<scales pt_clust_5="13000.00000" pt_clust_6="13000.00000" pt_clust_7="13000.00000" pt_clust_8="13000.00000" pt_clust_9="52.52594" pt_clust_10="13000.00000"></scales>
<clustering>
<clus scale="   52.526">  1  9  2 -1</clus>
<clus scale="   81.216">  5  6 -1 -1</clus>
<clus scale="   81.758">  7  8 -1 -1</clus>
<clus scale="  106.836">  2  5  1 -1</clus>
<clus scale="  192.030">  7 10 -1 -1</clus>
<clus scale="   52.526">  1  5  2 -1</clus>
</clustering>
</event>
<event>
10    4  0.2866397E-005  0.1565262E+03  0.7546771E-02  0.1216392E+00
         21   -1    0    0  501  502  0.00000000000E+00  0.00000000000E+00  0.19008105028E+03  0.19008105028E+03  0.00000000000E+00 0.  1.
          2   -1    0    0  503    0 -0.00000000000E+00 -0.00000000000E+00 -0.59748364609E+03  0.59748364609E+03  0.00000000000E+00 0. -1.
         24    2    1    2    0    0 -0.42356623149E+02 -0.11766898574E+02 -0.66776552065E+01  0.87749735717E+02  0.75649729760E+02 0.  0.
         23    2    1    2    0    0  0.55560646176E+02 -0.25346310061E+02 -0.36141856715E+03  0.37562703145E+03  0.82114951349E+02 0.  0.
        -11    1    3    3    0    0 -0.53834742810E+02 -0.28484398647E+02  0.97125991711E+01  0.61675563089E+02  0.00000000000E+00 0.  1.
         12    1    3    3    0    0  0.11478119662E+02  0.16717500073E+02 -0.16390254378E+02  0.26074172628E+02  0.00000000000E+00 0. -1.
        -13    1    4    4    0    0 -0.16472346387E+02  0.12632292693E+02 -0.65697637382E+02  0.68899147830E+02  0.00000000000E+00 0.  1.
         13    1    4    4    0    0  0.72032992563E+02 -0.37978602754E+02 -0.29572092977E+03  0.30672788362E+03  0.00000000000E+00 0. -1.
         21    1    1    2  503  502 -0.87665678328E+01 -0.18044489500E+02  0.13748388776E+03  0.13893982764E+03  0.00000000000E+00 0.  1.
          1    1    1    2  501    0 -0.44374551945E+01  0.55157698135E+02 -0.17679026120E+03  0.18524810155E+03  0.00000000000E+00 0. -1.
<scales pt_clust_5="13000.00000" pt_clust_6="13000.00000" pt_clust_7="13000.00000" pt_clust_8="13000.00000" pt_clust_9="20.06131" pt_clust_10="13000.00000"></scales>
<clustering>
<clus scale="   20.061">  1  9  2 -1</clus>
<clus scale="   75.650">  5  6 -1 -1</clus>
<clus scale="   82.115">  7  8 -1 -1</clus>
<clus scale="   53.933">  7 10 -1 -1</clus>
<clus scale="   93.880">  2  5  1 -1</clus>
<clus scale="   20.061">  1  5  2 -1</clus>
</clustering>
</event>
<event>
10    4  0.2866397E-005  0.1843437E+03  0.7546771E-02  0.1200052E+00
         21   -1    0    0  501  502  0.00000000000E+00  0.00000000000E+00  0.14232792913E+03  0.14232792913E+03  0.00000000000E+00 0. -1.
         -1   -1    0    0    0  501 -0.00000000000E+00 -0.00000000000E+00 -0.43082108306E+03  0.43082108306E+03  0.00000000000E+00 0.  1.
         24    2    1    2    0    0  0.80506464394E+01  0.26448048587E+02 -0.12109898349E+02  0.85853702948E+02  0.80373481259E+02 0.  0.
         23    2    1    2    0    0  0.44198116869E+02  0.36257260699E+02 -0.14999347147E+03  0.18448069331E+03  0.90923166654E+02 0.  0.
        -11    1    3    3    0    0 -0.33038147527E+02  0.12728284978E+02 -0.21645647021E+02  0.41497740487E+02  0.00000000000E+00 0.  1.
         12    1    3    3    0    0  0.41088793967E+02  0.13719763609E+02  0.95357486727E+01  0.44355962461E+02  0.00000000000E+00 0. -1.
        -13    1    4    4    0    0  0.29858739322E+02 -0.24407285443E+02 -0.90221212789E+02  0.98117924631E+02  0.00000000000E+00 0. -1.
         13    1    4    4    0    0  0.14339377546E+02  0.60664546142E+02 -0.59772258678E+02  0.86362768683E+02  0.00000000000E+00 0.  1.
         21    1    1    2  503  502  0.28534668689E+01 -0.26850108067E+02  0.80933044841E+02  0.85318393818E+02  0.00000000000E+00 0. -1.
         -2    1    1    2    0  503 -0.55102230177E+02 -0.35855201220E+02 -0.20732282896E+03  0.21749622211E+03  0.00000000000E+00 0.  1.
<scales pt_clust_5="13000.00000" pt_clust_6="13000.00000" pt_clust_7="13000.00000" pt_clust_8="13000.00000" pt_clust_9="27.00131" pt_clust_10="13000.00000"></scales>
<clustering>
<clus scale="   27.001">  1  9  2 -1</clus>
<clus scale="   80.373">  5  6 -1 -1</clus>
<clus scale="   81.554">  2  5  1 -1</clus>
<clus scale="   90.923">  7  8 -1 -1</clus>
<clus scale="   59.011">  7 10 -1 -1</clus>
<clus scale="   27.001">  1  5  2 -1</clus>
</clustering>
</event>
<event>
10    4  0.2866397E-005  0.5760207E+03  0.7546771E-02  0.1059606E+00
         -1   -1    0    0    0  501 -0.00000000000E+00  0.00000000000E+00  0.64181676615E+03  0.64181676615E+03  0.00000000000E+00 0.  1.
         21   -1    0    0  503  502  0.00000000000E+00 -0.00000000000E+00 -0.25412843951E+03  0.25412843951E+03  0.00000000000E+00 0. -1.
         24    2    1    2    0    0  0.15495425798E+02 -0.20863284224E+02  0.10360589699E+03  0.13426576766E+03  0.81349429152E+02 0.  0.
         23    2    1    2    0    0  0.15029932501E+03  0.37199805228E+02 -0.84802096375E+02  0.19907274604E+03  0.92004619758E+02 0.  0.
        -13    1    3    3    0    0 -0.88985313227E+01 -0.46817940142E+02  0.44189838589E+02  0.64991116418E+02  0.00000000000E+00 0.  1.
         14    1    3    3    0    0  0.24393957120E+02  0.25954655918E+02  0.59416058405E+02  0.69274651238E+02  0.00000000000E+00 0. -1.
        -13    1    4    4    0    0  0.44302384512E+02  0.17898219246E+02 -0.77551055113E+02  0.91089042562E+02  0.00000000000E+00 0. -1.
         13    1    4    4    0    0  0.10599694050E+03  0.19301585982E+02 -0.72510412613E+01  0.10798370347E+03  0.00000000000E+00 0.  1.
         21    1    1    2  503  501  0.16915570080E+02  0.99662737391E+02 -0.32844358101E+02  0.10628993176E+03  0.00000000000E+00 0. -1.
         -2    1    1    2    0  502 -0.18271032089E+03 -0.11599925839E+03  0.40172888412E+03  0.45631676021E+03  0.00000000000E+00 0.  1.
<scales pt_clust_5="13000.00000" pt_clust_6="13000.00000" pt_clust_7="13000.00000" pt_clust_8="13000.00000" pt_clust_9="99.83427" pt_clust_10="13000.00000"></scales>
<clustering>
<clus scale="   81.349">  5  6 -1 -1</clus>
<clus scale="   85.400">  1  5  2 -1</clus>
<clus scale="   92.005">  7  8 -1 -1</clus>
<clus scale="   99.834">  2  9  1 -1</clus>
<clus scale="  200.712">  7 10 -1 -1</clus>
<clus scale="   99.834">  2  5  1 -1</clus>
</clustering>
</event>
<event>
10    4  0.2866397E-005  0.1953414E+03  0.7546771E-02  0.1178721E+00
         21   -1    0    0  501  502  0.00000000000E+00  0.00000000000E+00  0.53889217574E+03  0.53889217574E+03  0.00000000000E+00 0.  1.
          2   -1    0    0  503    0 -0.00000000000E+00 -0.00000000000E+00 -0.21683342854E+03  0.21683342854E+03  0.00000000000E+00 0. -1.
         24    2    1    2    0    0  0.32030181535E+02  0.66109036922E+02  0.51897608771E+02  0.12150780434E+03  0.81697291427E+02 0.  0.
         23    2    1    2    0    0 -0.14649967347E+03 -0.11494603746E+02 -0.62650435269E+02  0.18360746101E+03  0.90511559787E+02 0.  0.
        -13    1    3    3    0    0  0.57234308942E+02  0.29449296629E+02  0.38694671169E+02  0.75101962483E+02  0.00000000000E+00 0.  1.
         14    1    3    3    0    0 -0.25204127407E+02  0.36659740293E+02  0.13202937603E+02  0.46405841853E+02  0.00000000000E+00 0. -1.
        -13    1    4    4    0    0 -0.49530409781E+02 -0.45354298891E+02 -0.40856199080E+02  0.78609814427E+02  0.00000000000E+00 0.  1.
         13    1    4    4    0    0 -0.96969263690E+02  0.33859695145E+02 -0.21794236189E+02  0.10499764658E+03  0.00000000000E+00 0. -1.
         21    1    1    2  503  502  0.13337118650E+03 -0.70423537059E+01  0.36599768955E+03  0.38960464177E+03  0.00000000000E+00 0.  1.
          1    1    1    2  501    0 -0.18901694562E+02 -0.47572079471E+02 -0.33186115845E+02  0.61005697171E+02  0.00000000000E+00 0. -1.
<scales pt_clust_5="13000.00000" pt_clust_6="13000.00000" pt_clust_7="13000.00000" pt_clust_8="13000.00000" pt_clust_9="135.47618" pt_clust_10="13000.00000"></scales>
<clustering>
<clus scale="   81.697">  5  6 -1 -1</clus>
<clus scale="   90.512">  7  8 -1 -1</clus>
<clus scale="   51.190">  7 10 -1 -1</clus>
<clus scale="  109.867">  2  5  1 -1</clus>
<clus scale="  135.476">  1  9  2 -1</clus>
<clus scale="  135.476">  1  5  2 -1</clus>
</clustering>
</event>
<event>
10    4  0.3142130E-005  0.1834824E+03  0.7546771E-02  0.1202178E+00
         21   -1    0    0  501  502  0.00000000000E+00  0.00000000000E+00  0.85737153611E+03  0.85737153611E+03  0.00000000000E+00 0.  1.
          2   -1    0    0  503    0 -0.00000000000E+00 -0.00000000000E+00 -0.78405749114E+03  0.78405749114E+03  0.00000000000E+00 0. -1.
         24    2    1    2    0    0  0.78840991645E+00 -0.46281854844E+01 -0.30707220278E+03  0.31706740399E+03  0.78843891700E+02 0.  0.
         23    2    1    2    0    0  0.67467324748E+02 -0.10381280218E+03 -0.34859191132E+03  0.38127672145E+03  0.92340023189E+02 0.  0.
        -11    1    3    3    0    0 -0.27664030258E+02  0.21151144639E+02 -0.20650128724E+03  0.20941693132E+03  0.00000000000E+00 0.  1.
         12    1    3    3    0    0  0.28452440174E+02 -0.25779330123E+02 -0.10057091554E+03  0.10765047267E+03  0.00000000000E+00 0. -1.
        -13    1    4    4    0    0  0.39255252259E+02 -0.98125405383E+02 -0.33119213457E+03  0.34764608442E+03  0.00000000000E+00 0.  1.
         13    1    4    4    0    0  0.28212072489E+02 -0.56873967957E+01 -0.17399776744E+02  0.33630637032E+02  0.00000000000E+00 0. -1.
         21    1    1    2  503  502 -0.68487771942E+02  0.86550811081E+02  0.83122515853E+03  0.83852065090E+03  0.00000000000E+00 0.  1.
          1    1    1    2  501    0  0.23203727747E+00  0.21890176582E+02 -0.10224699946E+03  0.10456425092E+03  0.00000000000E+00 0. -1.
<scales pt_clust_5="13000.00000" pt_clust_6="13000.00000" pt_clust_7="13000.00000" pt_clust_8="13000.00000" pt_clust_9="110.33854" pt_clust_10="13000.00000"></scales>
<clustering>
<clus scale="   78.844">  5  6 -1 -1</clus>
<clus scale="   78.984">  2  5  1 -1</clus>
<clus scale="   92.340">  7  8 -1 -1</clus>
<clus scale="   20.880">  7 10 -1 -1</clus>
<clus scale="  110.339">  1  9  2 -1</clus>
<clus scale="  110.339">  1  5  2 -1</clus>
</clustering>
</event>
<event>
10    4  0.2866397E-005  0.2256197E+03  0.7546771E-02  0.1146007E+00
         21   -1    0    0  501  502  0.00000000000E+00  0.00000000000E+00  0.18476885300E+03  0.18476885300E+03  0.00000000000E+00 0.  1.
         -1   -1    0    0    0  501 -0.00000000000E+00 -0.00000000000E+00 -0.12604129171E+04  0.12604129171E+04  0.00000000000E+00 0.  1.
         24    2    1    2    0    0 -0.21315146239E+03 -0.99725618135E+02 -0.17435400992E+03  0.30537859169E+03  0.86475537903E+02 0.  0.
         23    2    1    2    0    0  0.57630533318E+02 -0.12768146371E+02 -0.31653102936E+03  0.33465725053E+03  0.91210080874E+02 0.  0.
        -11    1    3    3    0    0 -0.20307205133E+03 -0.74481302551E+02 -0.12714013989E+03  0.25089905865E+03  0.00000000000E+00 0.  1.
         12    1    3    3    0    0 -0.10079411059E+02 -0.25244315584E+02 -0.47213870032E+02  0.54479533038E+02  0.00000000000E+00 0. -1.
        -11    1    4    4    0    0 -0.22266194428E+02  0.10789999853E+02 -0.58600123026E+02  0.63609605641E+02  0.00000000000E+00 0. -1.
         11    1    4    4    0    0  0.79896727747E+02 -0.23558146224E+02 -0.25793090634E+03  0.27104764489E+03  0.00000000000E+00 0.  1.
         21    1    1    2  503  502  0.13322459919E+03  0.29292757222E+02  0.64013383416E+02  0.15068036604E+03  0.00000000000E+00 0.  1.
         -2    1    1    2    0  503  0.22296329888E+02  0.83201007284E+02 -0.64877240819E+03  0.65446556179E+03  0.00000000000E+00 0.  1.
<scales pt_clust_5="13000.00000" pt_clust_6="13000.00000" pt_clust_7="13000.00000" pt_clust_8="13000.00000" pt_clust_9="136.40696" pt_clust_10="13000.00000"></scales>
<clustering>
<clus scale="   86.476">  5  6 -1 -1</clus>
<clus scale="   91.210">  7  8 -1 -1</clus>
<clus scale="   86.137">  7 10 -1 -1</clus>
<clus scale="  136.407">  1  9  2 -1</clus>
<clus scale="  152.244">  2  5  1 -1</clus>
<clus scale="  136.407">  1  5  2 -1</clus>
</clustering>
</event>
<event>
10    4  0.2866397E-005  0.4708723E+03  0.7546771E-02  0.1040014E+00
         21   -1    0    0  501  502  0.00000000000E+00  0.00000000000E+00  0.72981526733E+02  0.72981526733E+02  0.00000000000E+00 0. -1.
          2   -1    0    0  503    0 -0.00000000000E+00 -0.00000000000E+00 -0.23519772561E+04  0.23519772561E+04  0.00000000000E+00 0. -1.
         24    2    1    2    0    0  0.20697108071E+03 -0.15488564124E+03 -0.11445925863E+04  0.11762220779E+04  0.81114720722E+02 0.  0.
         23    2    1    2    0    0  0.15768258041E+02  0.17062107567E+03 -0.22894965373E+03  0.29989869597E+03  0.90338776169E+02 0.  0.
        -11    1    3    3    0    0  0.61885208465E+02 -0.39271575181E+02 -0.18751655457E+03  0.20133180047E+03  0.00000000000E+00 0.  1.
         12    1    3    3    0    0  0.14508587225E+03 -0.11561406606E+03 -0.95707603170E+03  0.97489027744E+03  0.00000000000E+00 0. -1.
        -11    1    4    4    0    0  0.32996917420E+02  0.39092484112E+02 -0.11169528734E+03  0.12285298566E+03  0.00000000000E+00 0.  1.
         11    1    4    4    0    0 -0.17228659379E+02  0.13152859156E+03 -0.11725436639E+03  0.17704571031E+03  0.00000000000E+00 0. -1.
         21    1    1    2  503  502  0.24211611640E+02  0.12462529331E+02 -0.17852983290E+03  0.18059462343E+03  0.00000000000E+00 0. -1.
          1    1    1    2  501    0 -0.24695095039E+03 -0.28197963757E+02 -0.72692365649E+03  0.76824338554E+03  0.00000000000E+00 0. -1.
<scales pt_clust_5="13000.00000" pt_clust_6="13000.00000" pt_clust_7="13000.00000" pt_clust_8="13000.00000" pt_clust_9="27.23082" pt_clust_10="13000.00000"></scales>
<clustering>
<clus scale="   27.231">  1  9  2 -1</clus>
<clus scale="   81.115">  5  6 -1 -1</clus>
<clus scale="   90.339">  7  8 -1 -1</clus>
<clus scale="  241.258">  7 10 -1 -1</clus>
<clus scale="  273.489">  2  5  1 -1</clus>
<clus scale="   27.231">  1  5  2 -1</clus>
</clustering>
</event>
<event>
10    4  0.2866397E-005  0.2157484E+03  0.7546771E-02  0.1160172E+00
         21   -1    0    0  501  502  0.00000000000E+00  0.00000000000E+00  0.68042233315E+02  0.68042233315E+02  0.00000000000E+00 0.  1.
          2   -1    0    0  503    0 -0.00000000000E+00 -0.00000000000E+00 -0.75249291537E+03  0.75249291537E+03  0.00000000000E+00 0. -1.
         24    2    1    2    0    0 -0.80793002923E+02  0.81350006785E+01 -0.19098801309E+03  0.22286628751E+03  0.81235912053E+02 0.  0.
         23    2    1    2    0    0 -0.11779806629E+02  0.21775816357E+02 -0.25547560344E+03  0.27235021615E+03  0.91070885926E+02 0.  0.
        -11    1    3    3    0    0 -0.61583160414E+02  0.33157267867E+02 -0.17288107799E+03  0.18649331673E+03  0.00000000000E+00 0.  1.
         12    1    3    3    0    0 -0.19209842509E+02 -0.25022267188E+02 -0.18106935100E+02  0.36372970778E+02  0.00000000000E+00 0. -1.
        -11    1    4    4    0    0  0.67677434838E+01  0.52845869906E+02 -0.10701852329E+03  0.11954686380E+03  0.00000000000E+00 0. -1.
         11    1    4    4    0    0 -0.18547550113E+02 -0.31070053548E+02 -0.14845708015E+03  0.15280335235E+03  0.00000000000E+00 0.  1.
         21    1    1    2  503  502 -0.33932561899E+02 -0.60139021665E+01  0.17927327671E+02  0.38845525530E+02  0.00000000000E+00 0.  1.
          1    1    1    2  501    0  0.12650537145E+03 -0.23896914869E+02 -0.25591439320E+03  0.28647311950E+03  0.00000000000E+00 0. -1.
<scales pt_clust_5="13000.00000" pt_clust_6="13000.00000" pt_clust_7="13000.00000" pt_clust_8="13000.00000" pt_clust_9="34.46137" pt_clust_10="13000.00000"></scales>
<clustering>
<clus scale="   34.461">  1  9  2 -1</clus>
<clus scale="   81.236">  5  6 -1 -1</clus>
<clus scale="   91.071">  7  8 -1 -1</clus>
<clus scale="  116.421">  7 10 -1 -1</clus>
<clus scale="  124.697">  2  5  1 -1</clus>
<clus scale="   34.461">  1  5  2 -1</clus>
</clustering>
</event>
<event>
10    4  0.2866397E-005  0.2260209E+03  0.7546771E-02  0.1142501E+00
         21   -1    0    0  503  502  0.00000000000E+00  0.00000000000E+00  0.12806103520E+03  0.12806103520E+03  0.00000000000E+00 0.  1.
          2   -1    0    0  502    0 -0.00000000000E+00 -0.00000000000E+00 -0.39081564689E+03  0.39081564689E+03  0.00000000000E+00 0. -1.
         24    2    1    2    0    0  0.15732246294E+03  0.21532885574E+01 -0.80519150769E+02  0.19454529330E+03  0.81299099057E+02 0.  0.
         23    2    1    2    0    0 -0.10386963799E+03  0.37076319678E+02 -0.15766900283E+03  0.21384166962E+03  0.93301607886E+02 0.  0.
        -13    1    3    3    0    0  0.30190158854E+02 -0.23030546388E+02  0.63825809125E+01  0.38504403614E+02  0.00000000000E+00 0.  1.
         14    1    3    3    0    0  0.12713230409E+03  0.25183834945E+02 -0.86901731682E+02  0.15604088969E+03  0.00000000000E+00 0. -1.
        -11    1    4    4    0    0 -0.20109012759E+02  0.47558358433E+02 -0.97001829823E+02  0.10988869296E+03  0.00000000000E+00 0.  1.
         11    1    4    4    0    0 -0.83760625231E+02 -0.10482038755E+02 -0.60667173007E+02  0.10395297666E+03  0.00000000000E+00 0. -1.
         21    1    1    2  503  501 -0.28042954324E+02  0.23669097695E+02  0.39376486356E+01  0.36907161225E+02  0.00000000000E+00 0. -1.
          1    1    1    2  501    0 -0.25409870628E+02 -0.62898705931E+02 -0.28504106734E+02  0.73582557945E+02  0.00000000000E+00 0. -1.
<scales pt_clust_5="13000.00000" pt_clust_6="13000.00000" pt_clust_7="13000.00000" pt_clust_8="13000.00000" pt_clust_9="36.69650" pt_clust_10="13000.00000"></scales>
<clustering>
<clus scale="   36.697">  1  9  2 -1</clus>
<clus scale="   81.299">  5  6 -1 -1</clus>
<clus scale="   93.302">  7  8 -1 -1</clus>
<clus scale="   65.848">  7 10 -1 -1</clus>
<clus scale="  164.690">  2  5  1 -1</clus>
<clus scale="   36.697">  1  5  2 -1</clus>
</clustering>
</event>
<event>
10    4  0.2866397E-005  0.2016131E+03  0.7546771E-02  0.1150620E+00
         21   -1    0    0  503  502  0.00000000000E+00  0.00000000000E+00  0.79393571228E+02  0.79393571228E+02  0.00000000000E+00 0. -1.
          2   -1    0    0  502    0 -0.00000000000E+00 -0.00000000000E+00 -0.75796137746E+03  0.75796137746E+03  0.00000000000E+00 0. -1.
         24    2    1    2    0    0  0.17601444399E+03  0.65062790143E+02 -0.20796468200E+03  0.29137454141E+03  0.80221962484E+02 0.  0.
         23    2    1    2    0    0 -0.90454899042E+02 -0.27879020134E+02 -0.35568451899E+03  0.37462929888E+03  0.69830552107E+02 0.  0.
        -13    1    3    3    0    0  0.13266530422E+03  0.29048865027E+02 -0.18728471628E+03  0.23134278561E+03  0.00000000000E+00 0.  1.
         14    1    3    3    0    0  0.43349139775E+02  0.36013925116E+02 -0.20679965719E+02  0.60031755793E+02  0.00000000000E+00 0. -1.
        -13    1    4    4    0    0 -0.52844900231E+02  0.22713277975E+01 -0.88265805893E+02  0.10290089844E+03  0.00000000000E+00 0.  1.
         13    1    4    4    0    0 -0.37609998810E+02 -0.30150347931E+02 -0.26741871309E+03  0.27172840044E+03  0.00000000000E+00 0. -1.
         21    1    1    2  503  501 -0.15200539029E+02 -0.19199959769E+02  0.10324926408E+02  0.26576285429E+02  0.00000000000E+00 0.  1.
          1    1    1    2  501    0 -0.70359005924E+02 -0.17983810241E+02 -0.12524353165E+03  0.14477482297E+03  0.00000000000E+00 0. -1.
<scales pt_clust_5="13000.00000" pt_clust_6="13000.00000" pt_clust_7="13000.00000" pt_clust_8="13000.00000" pt_clust_9="24.48867" pt_clust_10="13000.00000"></scales>
<clustering>
<clus scale="   24.489">  1  9  2 -1</clus>
<clus scale="   69.831">  7  8 -1 -1</clus>
<clus scale="   75.780">  7 10 -1 -1</clus>
<clus scale="   80.222">  5  6 -1 -1</clus>
<clus scale="  191.204">  2  5  1 -1</clus>
<clus scale="   24.489">  1  5  2 -1</clus>
</clustering>
</event>
<event>
10    4  0.2866397E-005  0.4428805E+03  0.7546771E-02  0.1078269E+00
          2   -1    0    0  503    0 -0.00000000000E+00  0.00000000000E+00  0.11934094364E+04  0.11934094364E+04  0.00000000000E+00 0. -1.
         21   -1    0    0  501  502  0.00000000000E+00 -0.00000000000E+00 -0.26592344024E+03  0.26592344024E+03  0.00000000000E+00 0. -1.
         24    2    1    2    0    0 -0.75318426241E+02 -0.12667648524E+02  0.12195867838E+03  0.16588077197E+03  0.82517735226E+02 0.  0.
         23    2    1    2    0    0 -0.71770984093E+02  0.61099851222E+02  0.74123758650E+02  0.15508658123E+03  0.98352682248E+02 0.  0.
        -13    1    3    3    0    0  0.11566502535E+02 -0.18087996507E+02  0.44272548454E+02  0.49203842788E+02  0.00000000000E+00 0.  1.
         14    1    3    3    0    0 -0.86884928776E+02  0.54203479827E+01  0.77686129927E+02  0.11667692918E+03  0.00000000000E+00 0. -1.
        -13    1    4    4    0    0 -0.52279417052E+02  0.88178888692E+02  0.51041996339E+02  0.11451610912E+03  0.00000000000E+00 0.  1.
         13    1    4    4    0    0 -0.19491567041E+02 -0.27079037470E+02  0.23081762311E+02  0.40570472111E+02  0.00000000000E+00 0. -1.
         21    1    1    2  503  502 -0.16145617992E+02 -0.15801566444E+03 -0.16004951099E+03  0.22548941695E+03  0.00000000000E+00 0. -1.
          1    1    1    2  501    0  0.16323502833E+03  0.10958346174E+03  0.89145307009E+03  0.91287610646E+03  0.00000000000E+00 0. -1.
<scales pt_clust_5="13000.00000" pt_clust_6="13000.00000" pt_clust_7="13000.00000" pt_clust_8="13000.00000" pt_clust_9="159.48649" pt_clust_10="13000.00000"></scales>
<clustering>
<clus scale="   82.518">  5  6 -1 -1</clus>
<clus scale="   98.353">  7  8 -1 -1</clus>
<clus scale="  112.439">  1  5  2 -1</clus>
<clus scale="  139.430">  7 10 -1 -1</clus>
<clus scale="  159.486">  2  9  1 -1</clus>
<clus scale="  159.486">  2  5  1 -1</clus>
</clustering>
</event>
<event>
10    4  0.2866397E-005  0.2814816E+03  0.7546771E-02  0.1140088E+00
          4   -1    0    0  502    0 -0.00000000000E+00  0.00000000000E+00  0.29287463446E+03  0.29287463446E+03  0.00000000000E+00 0. -1.
         21   -1    0    0  503  502  0.00000000000E+00 -0.00000000000E+00 -0.20184739794E+03  0.20184739794E+03  0.00000000000E+00 0. -1.
         24    2    1    2    0    0 -0.29841284762E+02  0.23651487802E+02  0.13240776335E+02  0.89357062394E+02  0.79746293270E+02 0.  0.
         23    2    1    2    0    0  0.31575859668E+01  0.22823708999E+02 -0.11255389035E+03  0.14693087358E+03  0.91593729790E+02 0.  0.
        -13    1    3    3    0    0 -0.20916094159E+02  0.37596021441E+02  0.39440084383E+02  0.58364921650E+02  0.00000000000E+00 0.  1.
         14    1    3    3    0    0 -0.89251906032E+01 -0.13944533639E+02 -0.26199308048E+02  0.30992140744E+02  0.00000000000E+00 0. -1.
        -11    1    4    4    0    0  0.44827421098E+02  0.10765317008E+02 -0.81312201690E+02  0.93472262603E+02  0.00000000000E+00 0. -1.
         11    1    4    4    0    0 -0.41669835132E+02  0.12058391991E+02 -0.31241688659E+02  0.53458610977E+02  0.00000000000E+00 0.  1.
         21    1    1    2  503  501 -0.55012322780E+02 -0.67028057794E+02  0.69497850684E+02  0.11112635798E+03  0.00000000000E+00 0. -1.
          3    1    1    2  501    0  0.81696021575E+02  0.20552860993E+02  0.12084249985E+03  0.14730773844E+03  0.00000000000E+00 0. -1.
<scales pt_clust_5="13000.00000" pt_clust_6="13000.00000" pt_clust_7="13000.00000" pt_clust_8="13000.00000" pt_clust_9="86.71288" pt_clust_10="13000.00000"></scales>
<clustering>
<clus scale="   79.746">  5  6 -1 -1</clus>
<clus scale="   86.713">  2  9  1 -1</clus>
<clus scale="   90.362">  1  5  2 -1</clus>
<clus scale="   91.594">  7  8 -1 -1</clus>
<clus scale="   58.197">  7 10 -1 -1</clus>
<clus scale="   86.713">  2  5  1 -1</clus>
</clustering>
</event>
<event>
10    4  0.2866397E-005  0.2417114E+03  0.7546771E-02  0.1149917E+00
         21   -1    0    0  503  502  0.00000000000E+00  0.00000000000E+00  0.89028419131E+02  0.89028419131E+02  0.00000000000E+00 0.  1.
          2   -1    0    0  502    0 -0.00000000000E+00 -0.00000000000E+00 -0.40276740305E+03  0.40276740305E+03  0.00000000000E+00 0. -1.
         24    2    1    2    0    0  0.62025767691E+02  0.44106644730E+02 -0.10792611171E+03  0.15324166551E+03  0.77732686129E+02 0.  0.
         23    2    1    2    0    0  0.28601855902E+02 -0.60857495185E+02 -0.35392688493E+02  0.12107560761E+03  0.94260063010E+02 0.  0.
        -11    1    3    3    0    0  0.77857876285E+02  0.47906120354E+02 -0.98687082489E+02  0.13452131994E+03  0.00000000000E+00 0.  1.
         12    1    3    3    0    0 -0.15832108594E+02 -0.37994756245E+01 -0.92390292259E+01  0.18720345579E+02  0.00000000000E+00 0. -1.
        -13    1    4    4    0    0  0.61686460794E+02 -0.33778432462E+02 -0.91792966802E+01  0.70925745906E+02  0.00000000000E+00 0.  1.
         13    1    4    4    0    0 -0.33084604892E+02 -0.27079062723E+02 -0.26213391813E+02  0.50149861706E+02  0.00000000000E+00 0. -1.
         21    1    1    2  503  501  0.18204520107E+02  0.98077105086E+01 -0.87214925842E+01  0.22442374443E+02  0.00000000000E+00 0. -1.
          1    1    1    2  501    0 -0.10883214370E+03  0.69431399470E+01 -0.16169869113E+03  0.19503617461E+03  0.00000000000E+00 0. -1.
<scales pt_clust_5="13000.00000" pt_clust_6="13000.00000" pt_clust_7="13000.00000" pt_clust_8="13000.00000" pt_clust_9="20.67839" pt_clust_10="13000.00000"></scales>
<clustering>
<clus scale="   20.678">  1  9  2 -1</clus>
<clus scale="   77.733">  5  6 -1 -1</clus>
<clus scale="   94.260">  7  8 -1 -1</clus>
<clus scale="  105.518">  7 10 -1 -1</clus>
<clus scale="  112.822">  2  5  1 -1</clus>
<clus scale="   20.678">  1  5  2 -1</clus>
</clustering>
</event>
<event>
10    4  0.2866397E-005  0.1479001E+03  0.7546771E-02  0.1227178E+00
         21   -1    0    0  503  502  0.00000000000E+00  0.00000000000E+00  0.57053636967E+03  0.57053636967E+03  0.00000000000E+00 0. -1.
         -1   -1    0    0    0  501 -0.00000000000E+00 -0.00000000000E+00 -0.62887657122E+02  0.62887657122E+02  0.00000000000E+00 0.  1.
         24    2    1    2    0    0 -0.17020323550E+02  0.38357973644E+02  0.22944166052E+02  0.93605264007E+02  0.80464185437E+02 0.  0.
         23    2    1    2    0    0  0.17758075234E+02  0.42066031545E+02  0.22583719657E+03  0.24752346487E+03  0.90446260616E+02 0.  0.
        -13    1    3    3    0    0 -0.91412541431E+01  0.31069944688E+02 -0.27219601353E+02  0.42306154257E+02  0.00000000000E+00 0.  1.
         14    1    3    3    0    0 -0.78790694074E+01  0.72880289559E+01  0.50163767405E+02  0.51299109749E+02  0.00000000000E+00 0. -1.
        -13    1    4    4    0    0 -0.78701711669E+01  0.64216541297E+02  0.17360762201E+03  0.18527091026E+03  0.00000000000E+00 0.  1.
         13    1    4    4    0    0  0.25628246401E+02 -0.22150509752E+02  0.52229574562E+02  0.62252554605E+02  0.00000000000E+00 0. -1.
         21    1    1    2  503  501 -0.45411867107E+02 -0.60212933263E+02  0.20973147223E+03  0.22287917231E+03  0.00000000000E+00 0. -1.
         -2    1    1    2    0  502  0.44674115424E+02 -0.20211071926E+02  0.49135877696E+02  0.69416125607E+02  0.00000000000E+00 0.  1.
<scales pt_clust_5="13000.00000" pt_clust_6="13000.00000" pt_clust_7="13000.00000" pt_clust_8="13000.00000" pt_clust_9="75.41774" pt_clust_10="13000.00000"></scales>
<clustering>
<clus scale="   75.418">  1  9  2 -1</clus>
<clus scale="   80.464">  5  6 -1 -1</clus>
<clus scale="   88.791">  2  5  1 -1</clus>
<clus scale="   90.446">  7  8 -1 -1</clus>
<clus scale="   33.410">  7 10 -1 -1</clus>
<clus scale="   75.418">  1  5  2 -1</clus>
</clustering>
</event>
<event>
10    4  0.2866397E-005  0.3763726E+03  0.7546771E-02  0.1064454E+00
         21   -1    0    0  503  502  0.00000000000E+00  0.00000000000E+00  0.29680993678E+03  0.29680993678E+03  0.00000000000E+00 0. -1.
          2   -1    0    0  502    0 -0.00000000000E+00 -0.00000000000E+00 -0.11968504826E+04  0.11968504826E+04  0.00000000000E+00 0. -1.
         24    2    1    2    0    0  0.14315978854E+03 -0.20689389580E+03 -0.89711632648E+03  0.93524614661E+03  0.81042225664E+02 0.  0.
         23    2    1    2    0    0 -0.23062625890E+01 -0.20746016223E+02 -0.57179965470E+02  0.11129820446E+03  0.93177389042E+02 0.  0.
        -13    1    3    3    0    0  0.47161193028E+02 -0.26523525089E+02 -0.11854145355E+03  0.13030637636E+03  0.00000000000E+00 0.  1.
         14    1    3    3    0    0  0.95998595516E+02 -0.18037037071E+03 -0.77857487293E+03  0.80493977025E+03  0.00000000000E+00 0. -1.
        -11    1    4    4    0    0  0.42637964337E+02  0.16970732175E+01 -0.13580570071E+02  0.44780664843E+02  0.00000000000E+00 0.  1.
         11    1    4    4    0    0 -0.44944226926E+02 -0.22443089440E+02 -0.43599395399E+02  0.66517539617E+02  0.00000000000E+00 0. -1.
         21    1    1    2  503  501  0.19698525199E+02 -0.19062510921E+02  0.13831356063E+03  0.14100373141E+03  0.00000000000E+00 0.  1.
          1    1    1    2  501    0 -0.16055205115E+03  0.24670242294E+03 -0.84057814482E+02  0.30611233688E+03  0.00000000000E+00 0. -1.
<scales pt_clust_5="13000.00000" pt_clust_6="13000.00000" pt_clust_7="13000.00000" pt_clust_8="13000.00000" pt_clust_9="27.41188" pt_clust_10="13000.00000"></scales>
<clustering>
<clus scale="   27.412">  1  9  2 -1</clus>
<clus scale="   81.042">  5  6 -1 -1</clus>
<clus scale="   93.177">  7  8 -1 -1</clus>
<clus scale="  267.432">  2  5  1 -1</clus>
<clus scale="  106.673">  7 10 -1 -1</clus>
<clus scale="   27.412">  1  5  2 -1</clus>
</clustering>
</event>
<event>
10    4  0.2866397E-005  0.3299522E+03  0.7546771E-02  0.1104730E+00
         21   -1    0    0  501  502  0.00000000000E+00  0.00000000000E+00  0.14038282166E+03  0.14038282166E+03  0.00000000000E+00 0.  1.
         -3   -1    0    0    0  501 -0.00000000000E+00 -0.00000000000E+00 -0.52549280512E+03  0.52549280512E+03  0.00000000000E+00 0.  1.
         24    2    1    2    0    0 -0.17170254247E+02 -0.11570008803E+03 -0.17655077999E+03  0.22718790984E+03  0.82236491057E+02 0.  0.
         23    2    1    2    0    0  0.34940346433E+02 -0.90525428411E+02 -0.12096501596E+03  0.17892664840E+03  0.89255416786E+02 0.  0.
        -13    1    3    3    0    0 -0.42022563304E+02 -0.75433470221E+02 -0.14960219867E+03  0.17273367392E+03  0.00000000000E+00 0.  1.
         14    1    3    3    0    0  0.24852309057E+02 -0.40266617805E+02 -0.26948581312E+02  0.54454235920E+02  0.00000000000E+00 0. -1.
        -11    1    4    4    0    0  0.54425535320E+02 -0.69107751477E+02 -0.47521683469E+02  0.99981651360E+02  0.00000000000E+00 0.  1.
         11    1    4    4    0    0 -0.19485188887E+02 -0.21417676934E+02 -0.73443332488E+02  0.78944997043E+02  0.00000000000E+00 0. -1.
         21    1    1    2  503  502  0.33246420562E+02  0.45085033375E+02 -0.70249843209E+02  0.89850014944E+02  0.00000000000E+00 0.  1.
         -4    1    1    2    0  503 -0.51016512748E+02  0.16114048306E+03 -0.17344344312E+02  0.16991105360E+03  0.00000000000E+00 0.  1.
<scales pt_clust_5="13000.00000" pt_clust_6="13000.00000" pt_clust_7="13000.00000" pt_clust_8="13000.00000" pt_clust_9="56.01775" pt_clust_10="13000.00000"></scales>
<clustering>
<clus scale="   56.018">  1  9  2 -1</clus>
<clus scale="   82.236">  5  6 -1 -1</clus>
<clus scale="   89.255">  7  8 -1 -1</clus>
<clus scale="  135.344">  2  5  1 -1</clus>
<clus scale="  142.017">  7 10 -1 -1</clus>
<clus scale="   56.018">  1  5  2 -1</clus>
</clustering>
</event>
<event>
10    4  0.2866397E-005  0.2517194E+03  0.7546771E-02  0.1138068E+00
         -3   -1    0    0    0  501 -0.00000000000E+00  0.00000000000E+00  0.39830435646E+03  0.39830435646E+03  0.00000000000E+00 0.  1.
         21   -1    0    0  503  502  0.00000000000E+00 -0.00000000000E+00 -0.23057578341E+03  0.23057578341E+03  0.00000000000E+00 0.  1.
         24    2    1    2    0    0  0.11011794461E+02 -0.94073789918E+02 -0.13107294218E+02  0.12401223181E+03  0.78968949024E+02 0.  0.
         23    2    1    2    0    0  0.13630670703E+02  0.91376605658E+00  0.25189965446E+02  0.97154932114E+02  0.92832733035E+02 0.  0.
        -13    1    3    3    0    0  0.20680617452E+02 -0.36230556925E+02 -0.41509782349E+02  0.58850685840E+02  0.00000000000E+00 0.  1.
         14    1    3    3    0    0 -0.96688229907E+01 -0.57843232993E+02  0.28402488131E+02  0.65161545969E+02  0.00000000000E+00 0. -1.
        -11    1    4    4    0    0 -0.14816625130E+02  0.39567794696E+02 -0.14262454093E+01  0.42275015473E+02  0.00000000000E+00 0.  1.
         11    1    4    4    0    0  0.28447295833E+02 -0.38654028639E+02  0.26616210855E+02  0.54879916641E+02  0.00000000000E+00 0. -1.
         21    1    1    2  503  501 -0.11955482190E+02 -0.21147609853E+02 -0.11294840077E+03  0.11553136454E+03  0.00000000000E+00 0.  1.
         -4    1    1    2    0  502 -0.12686982975E+02  0.11430763371E+03  0.26859430258E+03  0.29218161140E+03  0.00000000000E+00 0.  1.
<scales pt_clust_5="13000.00000" pt_clust_6="13000.00000" pt_clust_7="13000.00000" pt_clust_8="13000.00000" pt_clust_9="24.29311" pt_clust_10="13000.00000"></scales>
<clustering>
<clus scale="   24.293">  2  9  1 -1</clus>
<clus scale="   78.969">  5  6 -1 -1</clus>
<clus scale="   92.833">  7  8 -1 -1</clus>
<clus scale="  113.022">  7 10 -1 -1</clus>
<clus scale="  132.672">  1  5  2 -1</clus>
<clus scale="   24.293">  2  5  1 -1</clus>
</clustering>
</event>
<event>
10    4  0.2866397E-005  0.4666849E+03  0.7546771E-02  0.1053296E+00
          2   -1    0    0  503    0 -0.00000000000E+00  0.00000000000E+00  0.12906444199E+04  0.12906444199E+04  0.00000000000E+00 0. -1.
         21   -1    0    0  501  502  0.00000000000E+00 -0.00000000000E+00 -0.31636995472E+03  0.31636995472E+03  0.00000000000E+00 0. -1.
         24    2    1    2    0    0 -0.17132975901E+03 -0.30913179542E+02  0.20695571238E+03  0.28218471331E+03  0.80548336704E+02 0.  0.
         23    2    1    2    0    0  0.13491595453E+03 -0.17268896974E+03  0.48195528888E+03  0.53797098600E+03  0.95436294191E+02 0.  0.
        -11    1    3    3    0    0 -0.46627235451E+02 -0.19436543485E+02  0.11863715451E+03  0.12894437847E+03  0.00000000000E+00 0.  1.
         12    1    3    3    0    0 -0.12470252356E+03 -0.11476636057E+02  0.88318557872E+02  0.15324033484E+03  0.00000000000E+00 0. -1.
        -13    1    4    4    0    0  0.22749710303E+02 -0.10592080395E+03  0.22815926656E+03  0.25257358719E+03  0.00000000000E+00 0.  1.
         13    1    4    4    0    0  0.11216624422E+03 -0.66768165792E+02  0.25379602231E+03  0.28539739881E+03  0.00000000000E+00 0. -1.
         21    1    1    2  503  502  0.18834924216E+03  0.10085422885E+03 -0.18461068920E+03  0.28236168129E+03  0.00000000000E+00 0. -1.
          1    1    1    2  501    0 -0.15193543767E+03  0.10274792043E+03  0.46997415315E+03  0.50449699404E+03  0.00000000000E+00 0. -1.
<scales pt_clust_5="13000.00000" pt_clust_6="13000.00000" pt_clust_7="13000.00000" pt_clust_8="13000.00000" pt_clust_9="205.92807" pt_clust_10="13000.00000"></scales>
<clustering>
<clus scale="   80.548">  5  6 -1 -1</clus>
<clus scale="   95.436">  7  8 -1 -1</clus>
<clus scale="  183.416">  7 10 -1 -1</clus>
<clus scale="  191.827">  1  5  2 -1</clus>
<clus scale="  205.928">  2  9  1 -1</clus>
<clus scale="  205.928">  2  5  1 -1</clus>
</clustering>
</event>
<event>
10    4  0.2866397E-005  0.1815832E+03  0.7546771E-02  0.1192393E+00
          2   -1    0    0  503    0 -0.00000000000E+00  0.00000000000E+00  0.15266290710E+04  0.15266290710E+04  0.00000000000E+00 0. -1.
         21   -1    0    0  501  502  0.00000000000E+00 -0.00000000000E+00 -0.23232512753E+02  0.23232512753E+02  0.00000000000E+00 0.  1.
         24    2    1    2    0    0 -0.90325894340E+01 -0.21650618229E+02  0.15580158818E+03  0.17816661566E+03  0.83179751826E+02 0.  0.
         23    2    1    2    0    0 -0.92099250216E+01 -0.12760892586E+02  0.50996161471E+03  0.51821816760E+03  0.90783025138E+02 0.  0.
        -13    1    3    3    0    0  0.33659896239E+01 -0.47004960860E+02  0.50179859015E+02  0.68839047658E+02  0.00000000000E+00 0.  1.
         14    1    3    3    0    0 -0.12398579058E+02  0.25354342631E+02  0.10562172917E+03  0.10932756800E+03  0.00000000000E+00 0. -1.
        -11    1    4    4    0    0  0.81520857947E+01  0.37678262284E+02  0.23271936315E+03  0.23589067370E+03  0.00000000000E+00 0.  1.
         11    1    4    4    0    0 -0.17362010816E+02 -0.50439154870E+02  0.27724225155E+03  0.28232749390E+03  0.00000000000E+00 0. -1.
         21    1    1    2  503  502 -0.51332153405E+02 -0.36975015524E+02  0.28652496338E+03  0.29342579366E+03  0.00000000000E+00 0.  1.
          1    1    1    2  501    0  0.69574667860E+02  0.71386526338E+02  0.55110839194E+03  0.56005100680E+03  0.00000000000E+00 0. -1.
<scales pt_clust_5="13000.00000" pt_clust_6="13000.00000" pt_clust_7="13000.00000" pt_clust_8="13000.00000" pt_clust_9="63.26251" pt_clust_10="13000.00000"></scales>
<clustering>
<clus scale="   63.263">  2  9  1 -1</clus>
<clus scale="   83.180">  5  6 -1 -1</clus>
<clus scale="   90.783">  7  8 -1 -1</clus>
<clus scale="   85.636">  7 10 -1 -1</clus>
<clus scale="  100.883">  1  5  2 -1</clus>
<clus scale="   63.263">  2  5  1 -1</clus>
</clustering>
</event>
<event>
10    4  0.2866397E-005  0.5753549E+03  0.7546771E-02  0.1039271E+00
          2   -1    0    0  503    0 -0.00000000000E+00  0.00000000000E+00  0.17499923538E+04  0.17499923538E+04  0.00000000000E+00 0. -1.
         21   -1    0    0  501  502  0.00000000000E+00 -0.00000000000E+00 -0.35558521498E+03  0.35558521498E+03  0.00000000000E+00 0.  1.
         24    2    1    2    0    0  0.49209057489E+02 -0.13696577125E+03  0.67656721314E+03  0.69658746645E+03  0.79433939178E+02 0.  0.
         23    2    1    2    0    0  0.11449177149E+03 -0.16900120476E+03  0.75683595518E+03  0.79052020535E+03  0.10223384503E+03 0.  0.
        -11    1    3    3    0    0  0.37517215783E+02 -0.11227124829E+02  0.14136078191E+03  0.14668490200E+03  0.00000000000E+00 0.  1.
         12    1    3    3    0    0  0.11691841705E+02 -0.12573864642E+03  0.53520643123E+03  0.54990256445E+03  0.00000000000E+00 0. -1.
        -11    1    4    4    0    0  0.49688090464E+02 -0.57136799954E+02  0.12959097518E+03  0.15009110930E+03  0.00000000000E+00 0.  1.
         11    1    4    4    0    0  0.64803681026E+02 -0.11186440480E+03  0.62724498000E+03  0.64042909605E+03  0.00000000000E+00 0. -1.
         21    1    1    2  503  502  0.38637667614E+02  0.15236307944E+03 -0.24521393921E+03  0.29126835276E+03  0.00000000000E+00 0.  1.
          1    1    1    2  501    0 -0.20233849659E+03  0.15360389657E+03  0.20621790968E+03  0.32720154419E+03  0.00000000000E+00 0. -1.
<scales pt_clust_5="13000.00000" pt_clust_6="13000.00000" pt_clust_7="13000.00000" pt_clust_8="13000.00000" pt_clust_9="157.18581" pt_clust_10="13000.00000"></scales>
<clustering>
<clus scale="   79.434">  5  6 -1 -1</clus>
<clus scale="  102.234">  7  8 -1 -1</clus>
<clus scale="  157.186">  2  9  1 -1</clus>
<clus scale="  153.192">  1  5  2 -1</clus>
<clus scale="  262.350">  7 10 -1 -1</clus>
<clus scale="  157.186">  2  5  1 -1</clus>
</clustering>
</event>
<event>
10    4  0.2866397E-005  0.3628275E+03  0.7546771E-02  0.1081195E+00
          2   -1    0    0  503    0 -0.00000000000E+00  0.00000000000E+00  0.14683716522E+04  0.14683716522E+04  0.00000000000E+00 0. -1.
         21   -1    0    0  501  502  0.00000000000E+00 -0.00000000000E+00 -0.98701537981E+02  0.98701537981E+02  0.00000000000E+00 0. -1.
         24    2    1    2    0    0  0.11237742563E+03  0.10690925470E+03  0.38807059416E+03  0.42549242275E+03  0.79917089755E+02 0.  0.
         23    2    1    2    0    0 -0.51529974345E+02 -0.20892524132E+03  0.48152077290E+03  0.53468732631E+03  0.87881667376E+02 0.  0.
        -11    1    3    3    0    0  0.53658531066E+02  0.45187686759E+01  0.89675415808E+02  0.10460084812E+03  0.00000000000E+00 0.  1.
         12    1    3    3    0    0  0.58718894564E+02  0.10239048602E+03  0.29839517836E+03  0.32089157464E+03  0.00000000000E+00 0. -1.
        -13    1    4    4    0    0 -0.24177046110E+02 -0.67393938227E+02  0.26551523033E+03  0.27499965455E+03  0.00000000000E+00 0.  1.
         13    1    4    4    0    0 -0.27352928235E+02 -0.14153130309E+03  0.21600554257E+03  0.25968767176E+03  0.00000000000E+00 0. -1.
         21    1    1    2  503  502  0.39112288646E+02  0.24710786067E+02 -0.34417730473E+02  0.57662589623E+02  0.00000000000E+00 0. -1.
          1    1    1    2  501    0 -0.99959739931E+02  0.77305200556E+02  0.53449647761E+03  0.54923085148E+03  0.00000000000E+00 0. -1.
<scales pt_clust_5="13000.00000" pt_clust_6="13000.00000" pt_clust_7="13000.00000" pt_clust_8="13000.00000" pt_clust_9="46.26439" pt_clust_10="13000.00000"></scales>
<clustering>
<clus scale="   46.264">  2  9  1 -1</clus>
<clus scale="   79.917">  5  6 -1 -1</clus>
<clus scale="   87.882">  7  8 -1 -1</clus>
<clus scale="  124.300">  7 10 -1 -1</clus>
<clus scale="  188.987">  1  5  2 -1</clus>
<clus scale="   46.264">  2  5  1 -1</clus>
</clustering>
</event>
<event>
10    4  0.2866397E-005  0.2804404E+03  0.7546771E-02  0.1110397E+00
         21   -1    0    0  503  502  0.00000000000E+00  0.00000000000E+00  0.23688684603E+03  0.23688684603E+03  0.00000000000E+00 0. -1.
          2   -1    0    0  502    0 -0.00000000000E+00 -0.00000000000E+00 -0.49436391373E+03  0.49436391373E+03  0.00000000000E+00 0. -1.
         24    2    1    2    0    0  0.14266585085E+02  0.23432796806E+03  0.18452727578E+02  0.24854830819E+03  0.79514943768E+02 0.  0.
         23    2    1    2    0    0  0.14415092231E+02  0.21106514590E+02 -0.64614135003E+02  0.11227013233E+03  0.88183424343E+02 0.  0.
        -11    1    3    3    0    0 -0.21379741941E+02  0.88436585682E+02 -0.20776526083E+02  0.93326240087E+02  0.00000000000E+00 0.  1.
         12    1    3    3    0    0  0.35646327026E+02  0.14589138238E+03  0.39229253661E+02  0.15522206810E+03  0.00000000000E+00 0. -1.
        -13    1    4    4    0    0  0.33681009670E+02  0.12522971730E+02  0.78650855919E+01  0.36784436990E+02  0.00000000000E+00 0.  1.
         13    1    4    4    0    0 -0.19265917438E+02  0.85835428606E+01 -0.72479220594E+02  0.75485695339E+02  0.00000000000E+00 0. -1.
         21    1    1    2  503  501 -0.36718238654E+02 -0.85802215505E+02  0.72916857326E+01  0.93613128974E+02  0.00000000000E+00 0.  1.
          1    1    1    2  501    0  0.80365613384E+01 -0.16963226715E+03 -0.21860734601E+03  0.27681919027E+03  0.00000000000E+00 0. -1.
<scales pt_clust_5="13000.00000" pt_clust_6="13000.00000" pt_clust_7="13000.00000" pt_clust_8="13000.00000" pt_clust_9="93.32872" pt_clust_10="13000.00000"></scales>
<clustering>
<clus scale="   79.515">  5  6 -1 -1</clus>
<clus scale="   88.183">  7  8 -1 -1</clus>
<clus scale="   93.329">  1  9  2 -1</clus>
<clus scale="  183.042">  7 10 -1 -1</clus>
<clus scale="  190.676">  2  5  1 -1</clus>
<clus scale="   93.329">  1  5  2 -1</clus>
</clustering>
</event>
<event>
10    4  0.2866397E-005  0.2437172E+03  0.7546771E-02  0.1159475E+00
          4   -1    0    0  502    0 -0.00000000000E+00  0.00000000000E+00  0.23274982480E+03  0.23274982480E+03  0.00000000000E+00 0. -1.
         21   -1    0    0  503  502  0.00000000000E+00 -0.00000000000E+00 -0.44118198483E+03  0.44118198483E+03  0.00000000000E+00 0. -1.
         24    2    1    2    0    0  0.49409822531E+01  0.28392095021E+02  0.26914099542E+02  0.91947101701E+02  0.83062484864E+02 0.  0.
         23    2    1    2    0    0  0.60519091824E+02  0.52698571433E+02  0.47615653987E+02  0.12908739300E+03  0.89199801687E+02 0.  0.
        -13    1    3    3    0    0  0.26131810248E+02  0.46464817275E+02  0.33974910805E+02  0.63215071901E+02  0.00000000000E+00 0.  1.
         14    1    3    3    0    0 -0.21190827995E+02 -0.18072722254E+02 -0.70608112622E+01  0.28732029800E+02  0.00000000000E+00 0. -1.
        -13    1    4    4    0    0  0.37993894214E+02  0.28313432817E+02 -0.21788301921E+02  0.52152819445E+02  0.00000000000E+00 0. -1.
         13    1    4    4    0    0  0.22525197610E+02  0.24385138616E+02  0.69403955908E+02  0.76934573557E+02  0.00000000000E+00 0.  1.
         21    1    1    2  503  501  0.51842757738E+02 -0.77962480533E+02 -0.31714423919E+03  0.33067550310E+03  0.00000000000E+00 0. -1.
          3    1    1    2  501    0 -0.11730283182E+03 -0.31281859209E+01  0.34182325632E+02  0.12222181182E+03  0.00000000000E+00 0. -1.
<scales pt_clust_5="13000.00000" pt_clust_6="13000.00000" pt_clust_7="13000.00000" pt_clust_8="13000.00000" pt_clust_9="92.81310" pt_clust_10="13000.00000"></scales>
<clustering>
<clus scale="   83.062">  5  6 -1 -1</clus>
<clus scale="   87.920">  1  5  2 -1</clus>
<clus scale="   89.200">  7  8 -1 -1</clus>
<clus scale="   92.813">  2  9  1 -1</clus>
<clus scale="   94.774">  7 10 -1 -1</clus>
<clus scale="   92.813">  2  5  1 -1</clus>
</clustering>
</event>
<event>
10    4  0.2866397E-005  0.1933205E+03  0.7546771E-02  0.1192791E+00
         -3   -1    0    0    0  501 -0.00000000000E+00  0.00000000000E+00  0.44829715694E+03  0.44829715694E+03  0.00000000000E+00 0.  1.
         21   -1    0    0  501  502  0.00000000000E+00 -0.00000000000E+00 -0.82209151644E+02  0.82209151644E+02  0.00000000000E+00 0.  1.
         24    2    1    2    0    0 -0.30577349251E+02 -0.19240944361E+02  0.13142424595E+03  0.15680771657E+03  0.77531537606E+02 0.  0.
         23    2    1    2    0    0 -0.39659784354E+02  0.18655436457E+02  0.53532828482E+02  0.11515961507E+03  0.92060031579E+02 0.  0.
        -13    1    3    3    0    0 -0.43702997740E+02 -0.61279040606E+01  0.13101707608E+03  0.13824969239E+03  0.00000000000E+00 0.  1.
         14    1    3    3    0    0  0.13125648488E+02 -0.13113040301E+02  0.40716986875E+00  0.18558024180E+02  0.00000000000E+00 0. -1.
        -13    1    4    4    0    0 -0.56985302054E+02  0.36637219451E+02  0.15231962415E+02  0.69437908799E+02  0.00000000000E+00 0.  1.
         13    1    4    4    0    0  0.17325517700E+02 -0.17981782995E+02  0.38300866067E+02  0.45721706275E+02  0.00000000000E+00 0. -1.
         21    1    1    2  503  502  0.40370847379E+02 -0.10295584586E+02 -0.25916356840E+02  0.49065893775E+02  0.00000000000E+00 0.  1.
         -4    1    1    2    0  503  0.29866286226E+02  0.10881092491E+02  0.20704728771E+03  0.20947308317E+03  0.00000000000E+00 0.  1.
<scales pt_clust_5="13000.00000" pt_clust_6="13000.00000" pt_clust_7="13000.00000" pt_clust_8="13000.00000" pt_clust_9="41.66299" pt_clust_10="13000.00000"></scales>
<clustering>
<clus scale="   41.663">  2  9  1 -1</clus>
<clus scale="   77.532">  5  6 -1 -1</clus>
<clus scale="   82.873">  1  5  2 -1</clus>
<clus scale="   92.060">  7  8 -1 -1</clus>
<clus scale="   18.005">  7 10 -1 -1</clus>
<clus scale="   41.663">  2  5  1 -1</clus>
</clustering>
</event>
<event>
10    4  0.2866397E-005  0.1122462E+03  0.7546771E-02  0.1272950E+00
         21   -1    0    0  501  502  0.00000000000E+00  0.00000000000E+00  0.26739980212E+02  0.26739980212E+02  0.00000000000E+00 0.  1.
          2   -1    0    0  503    0 -0.00000000000E+00 -0.00000000000E+00 -0.12555725040E+04  0.12555725040E+04  0.00000000000E+00 0. -1.
         24    2    1    2    0    0  0.27854540674E+01  0.14017033469E+02 -0.10446613236E+04  0.10478481518E+04  0.80400449463E+02 0.  0.
         23    2    1    2    0    0 -0.11115039763E+02 -0.41075440283E+01 -0.13943511911E+03  0.16350052750E+03  0.84556809452E+02 0.  0.
        -13    1    3    3    0    0  0.23954486733E+02  0.88891284355E+01 -0.10982017000E+03  0.11275328722E+03  0.00000000000E+00 0.  1.
         14    1    3    3    0    0 -0.21169032666E+02  0.51279050335E+01 -0.93484115359E+03  0.93509486460E+03  0.00000000000E+00 0. -1.
        -13    1    4    4    0    0 -0.17808467648E+02 -0.36161425510E+02 -0.11715185613E+03  0.12389248408E+03  0.00000000000E+00 0.  1.
         13    1    4    4    0    0  0.66934278852E+01  0.32053881482E+02 -0.22283262971E+02  0.39608043420E+02  0.00000000000E+00 0. -1.
         21    1    1    2  503  502 -0.17718227454E+02 -0.16712767948E+02 -0.84490167622E+01  0.25780575649E+02  0.00000000000E+00 0.  1.
          1    1    1    2  501    0  0.26047813149E+02  0.68032785067E+01 -0.36287064347E+02  0.45183229270E+02  0.00000000000E+00 0. -1.
<scales pt_clust_5="13000.00000" pt_clust_6="13000.00000" pt_clust_7="13000.00000" pt_clust_8="13000.00000" pt_clust_9="24.35677" pt_clust_10="13000.00000"></scales>
<clustering>
<clus scale="   24.357">  1  9  2 -1</clus>
<clus scale="   80.400">  5  6 -1 -1</clus>
<clus scale="   81.382">  2  5  1 -1</clus>
<clus scale="   84.557">  7  8 -1 -1</clus>
<clus scale="   22.365">  7 10 -1 -1</clus>
<clus scale="   24.357">  1  5  2 -1</clus>
</clustering>
</event>
<event>
10    4  0.2866397E-005  0.1721139E+03  0.7546771E-02  0.1189301E+00
         21   -1    0    0  501  502  0.00000000000E+00  0.00000000000E+00  0.24359621634E+03  0.24359621634E+03  0.00000000000E+00 0.  1.
         -3   -1    0    0    0  501 -0.00000000000E+00 -0.00000000000E+00 -0.15650951632E+03  0.15650951632E+03  0.00000000000E+00 0.  1.
         24    2    1    2    0    0 -0.54180389152E+02 -0.89484950316E+02 -0.51292609948E+02  0.14163347533E+03  0.80535945984E+02 0.  0.
         23    2    1    2    0    0  0.51019047972E+02  0.67185021577E+02  0.97463732972E+02  0.16274752785E+03  0.99351941074E+02 0.  0.
        -11    1    3    3    0    0 -0.52153499786E+02 -0.10189909545E+03 -0.32454606722E+02  0.11898199314E+03  0.00000000000E+00 0.  1.
         12    1    3    3    0    0 -0.20268893664E+01  0.12414145132E+02 -0.18838003226E+02  0.22651482190E+02  0.00000000000E+00 0. -1.
        -11    1    4    4    0    0  0.72268962132E+02  0.35475072662E+02  0.94960107723E+02  0.12449379795E+03  0.00000000000E+00 0.  1.
         11    1    4    4    0    0 -0.21249914160E+02  0.31709948915E+02  0.25036252490E+01  0.38253729901E+02  0.00000000000E+00 0. -1.
         21    1    1    2  503  502 -0.17780697591E+02  0.48567609823E+02  0.16833174321E+02  0.54390455859E+02  0.00000000000E+00 0.  1.
         -4    1    1    2    0  503  0.20942038770E+02 -0.26267681084E+02  0.24082402673E+02  0.41334273623E+02  0.00000000000E+00 0.  1.
<scales pt_clust_5="13000.00000" pt_clust_6="13000.00000" pt_clust_7="13000.00000" pt_clust_8="13000.00000" pt_clust_9="51.72007" pt_clust_10="13000.00000"></scales>
<clustering>
<clus scale="   51.720">  1  9  2 -1</clus>
<clus scale="   80.536">  5  6 -1 -1</clus>
<clus scale="   99.352">  7  8 -1 -1</clus>
<clus scale="   26.007">  7 10 -1 -1</clus>
<clus scale="  126.830">  2  5  1 -1</clus>
<clus scale="   51.720">  1  5  2 -1</clus>
</clustering>
</event>
<event>
10    4  0.2866397E-005  0.1572496E+03  0.7546771E-02  0.1218413E+00
         -1   -1    0    0    0  501 -0.00000000000E+00  0.00000000000E+00  0.14094962473E+03  0.14094962473E+03  0.00000000000E+00 0.  1.
         21   -1    0    0  503  502  0.00000000000E+00 -0.00000000000E+00 -0.24640616605E+03  0.24640616605E+03  0.00000000000E+00 0. -1.
         24    2    1    2    0    0 -0.46591936133E+02  0.41879014001E+02 -0.15139165362E+03  0.18174468982E+03  0.78657734291E+02 0.  0.
         23    2    1    2    0    0 -0.46764834153E+02 -0.29679212502E+02  0.25890838534E+02  0.10035004287E+03  0.79573803576E+02 0.  0.
        -13    1    3    3    0    0  0.16291108219E+02  0.31011651091E+02 -0.70392051399E+02  0.78626735978E+02  0.00000000000E+00 0.  1.
         14    1    3    3    0    0 -0.62883044352E+02  0.10867362909E+02 -0.80999602223E+02  0.10311795384E+03  0.00000000000E+00 0. -1.
        -13    1    4    4    0    0 -0.56686645876E+02  0.49050871288E+01  0.29675418729E+02  0.64172160453E+02  0.00000000000E+00 0. -1.
         13    1    4    4    0    0  0.99218117232E+01 -0.34584299631E+02 -0.37845801949E+01  0.36177882416E+02  0.00000000000E+00 0.  1.
         21    1    1    2  503  501  0.35927381707E+02 -0.75806137593E+01 -0.12868426515E+02  0.38908082223E+02  0.00000000000E+00 0. -1.
         -2    1    1    2    0  502  0.57429388579E+02 -0.46191877390E+01  0.32912700282E+02  0.66352975877E+02  0.00000000000E+00 0.  1.
<scales pt_clust_5="13000.00000" pt_clust_6="13000.00000" pt_clust_7="13000.00000" pt_clust_8="13000.00000" pt_clust_9="36.71842" pt_clust_10="13000.00000"></scales>
<clustering>
<clus scale="   36.718">  2  9  1 -1</clus>
<clus scale="   78.658">  5  6 -1 -1</clus>
<clus scale="   79.574">  7  8 -1 -1</clus>
<clus scale="   60.377">  7 10 -1 -1</clus>
<clus scale="   88.727">  1  5  2 -1</clus>
<clus scale="   36.718">  2  5  1 -1</clus>
</clustering>
</event>
<event>
10    4  0.2866397E-005  0.2631563E+03  0.7546771E-02  0.1113685E+00
          2   -1    0    0  502    0 -0.00000000000E+00  0.00000000000E+00  0.65031340902E+03  0.65031340902E+03  0.00000000000E+00 0. -1.
         21   -1    0    0  503  502  0.00000000000E+00 -0.00000000000E+00 -0.22401872743E+03  0.22401872743E+03  0.00000000000E+00 0. -1.
         24    2    1    2    0    0 -0.13069193290E+03 -0.14307480198E+03  0.50968464620E+03  0.55121960728E+03  0.80708342792E+02 0.  0.
         23    2    1    2    0    0  0.11547865727E+03  0.72157380604E+02 -0.80053533349E+02  0.18325479296E+03  0.92907174541E+02 0.  0.
        -11    1    3    3    0    0 -0.20575546155E+02  0.73276047789E+01  0.35107573050E+02  0.41347171328E+02  0.00000000000E+00 0.  1.
         12    1    3    3    0    0 -0.11011638674E+03 -0.15040240676E+03  0.47457707315E+03  0.50987243595E+03  0.00000000000E+00 0. -1.
        -11    1    4    4    0    0  0.74623211374E+01  0.43404067134E+02  0.27823975729E+01  0.44128687005E+02  0.00000000000E+00 0.  1.
         11    1    4    4    0    0  0.10801633613E+03  0.28753313470E+02 -0.82835930922E+02  0.13912610595E+03  0.00000000000E+00 0. -1.
         21    1    1    2  503  501 -0.67463618964E+01 -0.26035603645E+02 -0.26530716676E+02  0.37778896005E+02  0.00000000000E+00 0. -1.
          1    1    1    2  501    0  0.21959637526E+02  0.96953025022E+02  0.23194285424E+02  0.10207884020E+03  0.00000000000E+00 0. -1.
<scales pt_clust_5="13000.00000" pt_clust_6="13000.00000" pt_clust_7="13000.00000" pt_clust_8="13000.00000" pt_clust_9="26.89547" pt_clust_10="13000.00000"></scales>
<clustering>
<clus scale="   26.895">  2  9  1 -1</clus>
<clus scale="   80.708">  5  6 -1 -1</clus>
<clus scale="   92.907">  7  8 -1 -1</clus>
<clus scale="   93.883">  7 10 -1 -1</clus>
<clus scale="  212.298">  1  5  2 -1</clus>
<clus scale="   26.895">  2  5  1 -1</clus>
</clustering>
</event>
<event>
10    4  0.2866397E-005  0.2999229E+03  0.7546771E-02  0.1113006E+00
          2   -1    0    0  502    0 -0.00000000000E+00  0.00000000000E+00  0.87476027524E+03  0.87476027524E+03  0.00000000000E+00 0. -1.
         21   -1    0    0  503  502  0.00000000000E+00 -0.00000000000E+00 -0.23359062385E+03  0.23359062385E+03  0.00000000000E+00 0.  1.
         24    2    1    2    0    0 -0.64089165347E+02 -0.99832530712E+02  0.53720371739E+03  0.55601318690E+03  0.80553551853E+02 0.  0.
         23    2    1    2    0    0 -0.83182116669E+02  0.22263837245E+03  0.12307787479E+03  0.28311014975E+03  0.92282632207E+02 0.  0.
        -11    1    3    3    0    0 -0.19231788643E+02 -0.21468177033E+02  0.33116186222E+02  0.43902461314E+02  0.00000000000E+00 0.  1.
         12    1    3    3    0    0 -0.44857376703E+02 -0.78364353679E+02  0.50408753117E+03  0.51211072558E+03  0.00000000000E+00 0. -1.
        -11    1    4    4    0    0  0.29050972937E+01  0.77584676961E+02  0.61759163729E+01  0.77884296443E+02  0.00000000000E+00 0. -1.
         11    1    4    4    0    0 -0.86087213963E+02  0.14505369548E+03  0.11690195842E+03  0.20522585330E+03  0.00000000000E+00 0.  1.
         21    1    1    2  503  501  0.86845306179E+02 -0.87879605147E+02 -0.10246586399E+03  0.16051225962E+03  0.00000000000E+00 0.  1.
          1    1    1    2  501    0  0.60425975836E+02 -0.34926236587E+02  0.83353923187E+02  0.10871530283E+03  0.00000000000E+00 0. -1.
<scales pt_clust_5="13000.00000" pt_clust_6="13000.00000" pt_clust_7="13000.00000" pt_clust_8="13000.00000" pt_clust_9="123.55133" pt_clust_10="13000.00000"></scales>
<clustering>
<clus scale="   80.554">  5  6 -1 -1</clus>
<clus scale="   92.283">  7  8 -1 -1</clus>
<clus scale="   69.794">  7 10 -1 -1</clus>
<clus scale="  123.551">  2  9  1 -1</clus>
<clus scale="  145.888">  1  5  2 -1</clus>
<clus scale="  123.551">  2  5  1 -1</clus>
</clustering>
</event>
<event>
10    4  0.2866397E-005  0.2777666E+03  0.7546771E-02  0.1138659E+00
          2   -1    0    0  503    0 -0.00000000000E+00  0.00000000000E+00  0.13541458893E+04  0.13541458893E+04  0.00000000000E+00 0. -1.
         21   -1    0    0  501  502  0.00000000000E+00 -0.00000000000E+00 -0.73619428129E+02  0.73619428129E+02  0.00000000000E+00 0. -1.
         24    2    1    2    0    0 -0.24459212060E+02 -0.57105068763E+02  0.86256819488E+03  0.86804286395E+03  0.74935178010E+02 0.  0.
         23    2    1    2    0    0 -0.33912389542E+02  0.47655456781E+02  0.26358688740E+03  0.28342920187E+03  0.86214688652E+02 0.  0.
        -13    1    3    3    0    0  0.20306262987E+02 -0.32264084669E+02  0.20718466601E+03  0.21066276678E+03  0.00000000000E+00 0.  1.
         14    1    3    3    0    0 -0.44765475046E+02 -0.24840984094E+02  0.65538352886E+03  0.65738009717E+03  0.00000000000E+00 0. -1.
        -13    1    4    4    0    0  0.28387148311E+02  0.22755674166E+02  0.77431816147E+02  0.85553124126E+02  0.00000000000E+00 0.  1.
         13    1    4    4    0    0 -0.62299537853E+02  0.24899782615E+02  0.18615507125E+03  0.19787607774E+03  0.00000000000E+00 0. -1.
         21    1    1    2  503  502 -0.33707847276E+02  0.93768044486E+02  0.96385987043E+02  0.13863233257E+03  0.00000000000E+00 0. -1.
          1    1    1    2  501    0  0.92079448878E+02 -0.84318432505E+02  0.57985391866E+02  0.13766091906E+03  0.00000000000E+00 0. -1.
<scales pt_clust_5="13000.00000" pt_clust_6="13000.00000" pt_clust_7="13000.00000" pt_clust_8="13000.00000" pt_clust_9="89.29566" pt_clust_10="13000.00000"></scales>
<clustering>
<clus scale="   74.935">  5  6 -1 -1</clus>
<clus scale="   86.215">  7  8 -1 -1</clus>
<clus scale="   97.337">  1  5  2 -1</clus>
<clus scale="   89.296">  2  9  1 -1</clus>
<clus scale="   65.340">  7 10 -1 -1</clus>
<clus scale="   89.296">  2  5  1 -1</clus>
</clustering>
</event>
<event>
10    4  0.2866397E-005  0.2868330E+03  0.7546771E-02  0.1116018E+00
         21   -1    0    0  501  502  0.00000000000E+00  0.00000000000E+00  0.20652752985E+03  0.20652752985E+03  0.00000000000E+00 0. -1.
          2   -1    0    0  503    0 -0.00000000000E+00 -0.00000000000E+00 -0.29945187372E+03  0.29945187372E+03  0.00000000000E+00 0. -1.
         24    2    1    2    0    0  0.60640631028E+02  0.11941685416E+03 -0.93800638213E+00  0.15465364957E+03  0.77325288762E+02 0.  0.
         23    2    1    2    0    0 -0.10981648813E+03 -0.25321480300E+02 -0.42324521584E+02  0.15863753201E+03  0.10331342123E+03 0.  0.
        -11    1    3    3    0    0  0.49727701936E+02  0.18366802675E+02 -0.69696524555E+00  0.53015748046E+02  0.00000000000E+00 0.  1.
         12    1    3    3    0    0  0.10912929091E+02  0.10105005148E+03 -0.24104113658E+00  0.10163790153E+03  0.00000000000E+00 0. -1.
        -13    1    4    4    0    0  0.10272443982E+02  0.20850882444E+02 -0.13171835337E+02  0.26716654922E+02  0.00000000000E+00 0.  1.
         13    1    4    4    0    0 -0.12008893211E+03 -0.46172362744E+02 -0.29152686246E+02  0.13192087709E+03  0.00000000000E+00 0. -1.
         21    1    1    2  503  502 -0.28335148492E+02  0.12565734573E+02 -0.52318238117E+02  0.60810988851E+02  0.00000000000E+00 0. -1.
          1    1    1    2  501    0  0.77511005594E+02 -0.10666110843E+03  0.26564222041E+01  0.13187723313E+03  0.00000000000E+00 0. -1.
<scales pt_clust_5="13000.00000" pt_clust_6="13000.00000" pt_clust_7="13000.00000" pt_clust_8="13000.00000" pt_clust_9="30.99644" pt_clust_10="13000.00000"></scales>
<clustering>
<clus scale="   30.996">  1  9  2 -1</clus>
<clus scale="   77.325">  5  6 -1 -1</clus>
<clus scale="  103.313">  7  8 -1 -1</clus>
<clus scale="  123.039">  7 10 -1 -1</clus>
<clus scale="  154.564">  2  5  1 -1</clus>
<clus scale="   30.996">  1  5  2 -1</clus>
</clustering>
</event>
<event>
10    4  0.2866397E-005  0.5261264E+03  0.7546771E-02  0.1064174E+00
          2   -1    0    0  502    0 -0.00000000000E+00  0.00000000000E+00  0.14803057716E+03  0.14803057716E+03  0.00000000000E+00 0. -1.
         21   -1    0    0  503  502  0.00000000000E+00 -0.00000000000E+00 -0.12636263896E+04  0.12636263896E+04  0.00000000000E+00 0. -1.
         24    2    1    2    0    0  0.48542796710E+02  0.19721895138E+02 -0.37206031564E+02  0.10544989271E+03  0.83606428152E+02 0.  0.
         23    2    1    2    0    0  0.18014193820E+02  0.13934786423E+03 -0.58170298851E+03  0.60556377122E+03  0.92664857039E+02 0.  0.
        -11    1    3    3    0    0  0.29713393469E+02 -0.31830030994E+02 -0.12807663416E+02  0.45388025588E+02  0.00000000000E+00 0.  1.
         12    1    3    3    0    0  0.18829403241E+02  0.51551926132E+02 -0.24398368148E+02  0.60061867126E+02  0.00000000000E+00 0. -1.
        -13    1    4    4    0    0 -0.31916808309E+02  0.21410114425E+02 -0.17507496840E+03  0.17924374525E+03  0.00000000000E+00 0.  1.
         13    1    4    4    0    0  0.49931002128E+02  0.11793774981E+03 -0.40662802011E+03  0.42632002597E+03  0.00000000000E+00 0. -1.
         21    1    1    2  503  501  0.15221802878E+03 -0.88905140245E+02 -0.42477607016E+03  0.45990125247E+03  0.00000000000E+00 0. -1.
          1    1    1    2  501    0 -0.21877501931E+03 -0.70164619125E+02 -0.71910722263E+02  0.24074205040E+03  0.00000000000E+00 0. -1.
<scales pt_clust_5="13000.00000" pt_clust_6="13000.00000" pt_clust_7="13000.00000" pt_clust_8="13000.00000" pt_clust_9="181.32170" pt_clust_10="13000.00000"></scales>
<clustering>
<clus scale="   83.606">  5  6 -1 -1</clus>
<clus scale="   92.665">  7  8 -1 -1</clus>
<clus scale="   98.668">  1  5  2 -1</clus>
<clus scale="  181.322">  2  9  1 -1</clus>
<clus scale="  167.351">  7 10 -1 -1</clus>
<clus scale="  181.322">  2  5  1 -1</clus>
</clustering>
</event>
<event>
10    4  0.2866397E-005  0.2055399E+03  0.7546771E-02  0.1163259E+00
          2   -1    0    0  502    0 -0.00000000000E+00  0.00000000000E+00  0.64198643022E+03  0.64198643022E+03  0.00000000000E+00 0. -1.
         21   -1    0    0  503  502  0.00000000000E+00 -0.00000000000E+00 -0.58917774062E+02  0.58917774062E+02  0.00000000000E+00 0.  1.
         24    2    1    2    0    0 -0.10845319987E+03 -0.17024605942E+02  0.15229555898E+03  0.20435384907E+03  0.80713224277E+02 0.  0.
         23    2    1    2    0    0  0.86516440305E+02  0.83273284949E+02  0.36497386033E+03  0.39487300917E+03  0.91100165839E+02 0.  0.
        -11    1    3    3    0    0 -0.98189659989E+02  0.17755131206E+02  0.11666086480E+03  0.15351290300E+03  0.00000000000E+00 0.  1.
         12    1    3    3    0    0 -0.10263539878E+02 -0.34779737148E+02  0.35634694188E+02  0.50840946065E+02  0.00000000000E+00 0. -1.
        -11    1    4    4    0    0  0.14310237125E+02  0.52751572768E+02  0.24874005105E+03  0.25467454587E+03  0.00000000000E+00 0. -1.
         11    1    4    4    0    0  0.72206203180E+02  0.30521712181E+02  0.11623380928E+03  0.14019846330E+03  0.00000000000E+00 0.  1.
         21    1    1    2  503  501  0.88584886289E+01 -0.19197327219E+02  0.18635164194E+01  0.21224582130E+02  0.00000000000E+00 0.  1.
          1    1    1    2  501    0  0.13078270933E+02 -0.47051351788E+02  0.63935720422E+02  0.80452763916E+02  0.00000000000E+00 0. -1.
<scales pt_clust_5="13000.00000" pt_clust_6="13000.00000" pt_clust_7="13000.00000" pt_clust_8="13000.00000" pt_clust_9="21.14262" pt_clust_10="13000.00000"></scales>
<clustering>
<clus scale="   21.143">  2  9  1 -1</clus>
<clus scale="   80.713">  5  6 -1 -1</clus>
<clus scale="   91.100">  7  8 -1 -1</clus>
<clus scale="   52.339">  7 10 -1 -1</clus>
<clus scale="  134.243">  1  5  2 -1</clus>
<clus scale="   21.143">  2  5  1 -1</clus>
</clustering>
</event>
<event>
10    4  0.2866397E-005  0.5137405E+03  0.7546771E-02  0.1070427E+00
          2   -1    0    0  503    0 -0.00000000000E+00  0.00000000000E+00  0.90677082356E+03  0.90677082356E+03  0.00000000000E+00 0. -1.
         21   -1    0    0  501  502  0.00000000000E+00 -0.00000000000E+00 -0.66795817701E+03  0.66795817701E+03  0.00000000000E+00 0.  1.
         24    2    1    2    0    0 -0.20711644746E+01  0.26091683326E+02  0.15064346407E+03  0.17506289650E+03  0.85255491346E+02 0.  0.
         23    2    1    2    0    0 -0.11121894207E+03  0.29791983136E+02 -0.52562458715E+01  0.14362154539E+03  0.85687250192E+02 0.  0.
        -13    1    3    3    0    0 -0.32190856529E+02  0.27814234433E+02  0.33649628086E+02  0.54241868989E+02  0.00000000000E+00 0.  1.
         14    1    3    3    0    0  0.30119692054E+02 -0.17225511065E+01  0.11699383598E+03  0.12082102751E+03  0.00000000000E+00 0. -1.
        -11    1    4    4    0    0 -0.87483845754E+02  0.59212135666E+02 -0.60599354552E+01  0.10581220674E+03  0.00000000000E+00 0. -1.
         11    1    4    4    0    0 -0.23735096313E+02 -0.29420152530E+02  0.80368958370E+00  0.37809338646E+02  0.00000000000E+00 0.  1.
         21    1    1    2  503  502 -0.82058397917E+02 -0.46862429493E+02 -0.56312013597E+03  0.57099383140E+03  0.00000000000E+00 0.  1.
          1    1    1    2  501    0  0.19534850446E+03 -0.90212369693E+01  0.65654556432E+03  0.68505072728E+03  0.00000000000E+00 0. -1.
<scales pt_clust_5="13000.00000" pt_clust_6="13000.00000" pt_clust_7="13000.00000" pt_clust_8="13000.00000" pt_clust_9="94.43805" pt_clust_10="13000.00000"></scales>
<clustering>
<clus scale="   85.255">  5  6 -1 -1</clus>
<clus scale="   85.687">  7  8 -1 -1</clus>
<clus scale="   89.183">  1  5  2 -1</clus>
<clus scale="   94.438">  2  9  1 -1</clus>
<clus scale="  174.074">  7 10 -1 -1</clus>
<clus scale="   94.438">  2  5  1 -1</clus>
</clustering>
</event>
<event>
10    4  0.2866397E-005  0.4124818E+03  0.7546771E-02  0.1090929E+00
          2   -1    0    0  502    0 -0.00000000000E+00  0.00000000000E+00  0.98148068826E+03  0.98148068826E+03  0.00000000000E+00 0. -1.
         21   -1    0    0  503  502  0.00000000000E+00 -0.00000000000E+00 -0.20805475447E+03  0.20805475447E+03  0.00000000000E+00 0. -1.
         24    2    1    2    0    0 -0.56678057044E+02 -0.29404158489E+01  0.57299520075E+03  0.58132444968E+03  0.79959786848E+02 0.  0.
         23    2    1    2    0    0  0.10785254436E+03 -0.14459195285E+03  0.32929165125E+03  0.38946867994E+03  0.10350776262E+03 0.  0.
        -13    1    3    3    0    0 -0.16464136367E+02  0.16045798542E+02  0.37502241277E+02  0.43988106779E+02  0.00000000000E+00 0.  1.
         14    1    3    3    0    0 -0.40213920677E+02 -0.18986214391E+02  0.53549295948E+03  0.53733634290E+03  0.00000000000E+00 0. -1.
        -13    1    4    4    0    0  0.23766402335E+02 -0.10312489845E+03  0.22847953195E+03  0.25179849697E+03  0.00000000000E+00 0. -1.
         13    1    4    4    0    0  0.84086142021E+02 -0.41467054399E+02  0.10081211930E+03  0.13767018297E+03  0.00000000000E+00 0.  1.
         21    1    1    2  503  501 -0.64885389600E+02  0.69842181307E+02 -0.51960288997E+02  0.10857216819E+03  0.00000000000E+00 0.  1.
          1    1    1    2  501    0  0.13710902288E+02  0.77690187394E+02 -0.76900629204E+02  0.11017014492E+03  0.00000000000E+00 0. -1.
<scales pt_clust_5="13000.00000" pt_clust_6="13000.00000" pt_clust_7="13000.00000" pt_clust_8="13000.00000" pt_clust_9="95.33123" pt_clust_10="13000.00000"></scales>
<clustering>
<clus scale="   79.960">  5  6 -1 -1</clus>
<clus scale="   95.331">  2  9  1 -1</clus>
<clus scale="   99.250">  1  5  2 -1</clus>
<clus scale="  103.508">  7  8 -1 -1</clus>
<clus scale="  136.727">  7 10 -1 -1</clus>
<clus scale="   95.331">  2  5  1 -1</clus>
</clustering>
</event>
<event>
10    4  0.2866397E-005  0.2008061E+03  0.7546771E-02  0.1167742E+00
         -1   -1    0    0    0  501 -0.00000000000E+00  0.00000000000E+00  0.23302005605E+03  0.23302005605E+03  0.00000000000E+00 0.  1.
         21   -1    0    0  503  502  0.00000000000E+00 -0.00000000000E+00 -0.15271315681E+03  0.15271315681E+03  0.00000000000E+00 0.  1.
         24    2    1    2    0    0 -0.50457785342E+02  0.93694827845E+02  0.30690137313E+02  0.13690067741E+03  0.80468640361E+02 0.  0.
         23    2    1    2    0    0  0.45815650873E+00  0.12072197198E+02  0.54241516073E+02  0.10411547183E+03  0.88045110909E+02 0.  0.
        -13    1    3    3    0    0  0.18945570291E+02  0.44331904824E+02  0.95221518912E+01  0.49141874157E+02  0.00000000000E+00 0.  1.
         14    1    3    3    0    0 -0.69403355633E+02  0.49362923021E+02  0.21167985422E+02  0.87758803258E+02  0.00000000000E+00 0. -1.
        -11    1    4    4    0    0  0.41773853670E+02  0.17898171190E+02  0.38356537844E+02  0.59469516374E+02  0.00000000000E+00 0. -1.
         11    1    4    4    0    0 -0.41315697161E+02 -0.58259739920E+01  0.15884978229E+02  0.44645955452E+02  0.00000000000E+00 0.  1.
         21    1    1    2  503  501 -0.10777305367E+02 -0.18314526373E+02 -0.28525063642E+02  0.35570373108E+02  0.00000000000E+00 0.  1.
         -2    1    1    2    0  502  0.60776934201E+02 -0.87452498670E+02  0.23900309492E+02  0.10914669051E+03  0.00000000000E+00 0.  1.
<scales pt_clust_5="13000.00000" pt_clust_6="13000.00000" pt_clust_7="13000.00000" pt_clust_8="13000.00000" pt_clust_9="21.25023" pt_clust_10="13000.00000"></scales>
<clustering>
<clus scale="   21.250">  2  9  1 -1</clus>
<clus scale="   80.469">  5  6 -1 -1</clus>
<clus scale="   88.045">  7  8 -1 -1</clus>
<clus scale="  109.849">  7 10 -1 -1</clus>
<clus scale="  129.829">  1  5  2 -1</clus>
<clus scale="   21.250">  2  5  1 -1</clus>
</clustering>
</event>
<event>
10    4  0.2866397E-005  0.3459143E+03  0.7546771E-02  0.1100960E+00
          2   -1    0    0  503    0 -0.00000000000E+00  0.00000000000E+00  0.13889828587E+04  0.13889828587E+04  0.00000000000E+00 0. -1.
         21   -1    0    0  501  502  0.00000000000E+00 -0.00000000000E+00 -0.54005409787E+02  0.54005409787E+02  0.00000000000E+00 0. -1.
         24    2    1    2    0    0  0.80851638494E+02  0.86461238682E+02  0.33428833582E+03  0.36428326771E+03  0.83313110782E+02 0.  0.
         23    2    1    2    0    0 -0.16318380072E+03 -0.33442999584E+02  0.40147840548E+03  0.44661991766E+03  0.10265015217E+03 0.  0.
        -13    1    3    3    0    0  0.13858803593E+02  0.72932249493E+02  0.20524696672E+03  0.21826015852E+03  0.00000000000E+00 0.  1.
         14    1    3    3    0    0  0.66992834901E+02  0.13528989189E+02  0.12904136910E+03  0.14602310919E+03  0.00000000000E+00 0. -1.
        -13    1    4    4    0    0 -0.10827946137E+03 -0.70100620740E+02  0.24782443554E+03  0.27938412559E+03  0.00000000000E+00 0.  1.
         13    1    4    4    0    0 -0.54904339349E+02  0.36657621155E+02  0.15365396995E+03  0.16723579207E+03  0.00000000000E+00 0. -1.
         21    1    1    2  503  502 -0.53112367662E+02 -0.36921938622E+02  0.20259060871E+03  0.21266665909E+03  0.00000000000E+00 0. -1.
          1    1    1    2  501    0  0.13544452989E+03 -0.16096300476E+02  0.39662009893E+03  0.41941842406E+03  0.00000000000E+00 0. -1.
<scales pt_clust_5="13000.00000" pt_clust_6="13000.00000" pt_clust_7="13000.00000" pt_clust_8="13000.00000" pt_clust_9="64.68506" pt_clust_10="13000.00000"></scales>
<clustering>
<clus scale="   64.685">  2  9  1 -1</clus>
<clus scale="   83.313">  5  6 -1 -1</clus>
<clus scale="  102.650">  7  8 -1 -1</clus>
<clus scale="  125.533">  7 10 -1 -1</clus>
<clus scale="  129.461">  1  5  2 -1</clus>
<clus scale="   64.685">  2  5  1 -1</clus>
</clustering>
</event>
<event>
10    4  0.2866397E-005  0.7523265E+03  0.7546771E-02  0.1000234E+00
         21   -1    0    0  501  502  0.00000000000E+00  0.00000000000E+00  0.33909234163E+03  0.33909234163E+03  0.00000000000E+00 0. -1.
          2   -1    0    0  503    0 -0.00000000000E+00 -0.00000000000E+00 -0.88959950535E+03  0.88959950535E+03  0.00000000000E+00 0. -1.
         24    2    1    2    0    0  0.18555214006E+03 -0.10018875002E+03 -0.36708816589E+03  0.43122610518E+03  0.82066131504E+02 0.  0.
         23    2    1    2    0    0 -0.99579804516E+01 -0.10436914540E+03 -0.40739726289E+03  0.43046372690E+03  0.91292992536E+02 0.  0.
        -13    1    3    3    0    0  0.59668064160E+02 -0.22786840512E+01 -0.57091683103E+02  0.82613137946E+02  0.00000000000E+00 0.  1.
         14    1    3    3    0    0  0.12588407590E+03 -0.97910065967E+02 -0.30999648279E+03  0.34861296723E+03  0.00000000000E+00 0. -1.
        -11    1    4    4    0    0 -0.42972329656E+02 -0.35443835514E+02 -0.24102341020E+03  0.24737657701E+03  0.00000000000E+00 0. -1.
         11    1    4    4    0    0  0.33014349204E+02 -0.68925309884E+02 -0.16637385269E+03  0.18308714989E+03  0.00000000000E+00 0.  1.
         21    1    1    2  503  502 -0.29782371553E+02  0.68250248495E+01 -0.52341769799E+01  0.30999471418E+02  0.00000000000E+00 0. -1.
          1    1    1    2  501    0 -0.14581178805E+03  0.19773287057E+03  0.22921244204E+03  0.33600254348E+03  0.00000000000E+00 0. -1.
<scales pt_clust_5="13000.00000" pt_clust_6="13000.00000" pt_clust_7="13000.00000" pt_clust_8="13000.00000" pt_clust_9="30.55439" pt_clust_10="13000.00000"></scales>
<clustering>
<clus scale="   30.554">  1  9  2 -1</clus>
<clus scale="   82.066">  5  6 -1 -1</clus>
<clus scale="   91.293">  7  8 -1 -1</clus>
<clus scale="  223.585">  2  5  1 -1</clus>
<clus scale="  236.854">  7 10 -1 -1</clus>
<clus scale="   30.554">  1  5  2 -1</clus>
</clustering>
</event>
<event>
10    4  0.2866397E-005  0.7747336E+03  0.7546771E-02  0.9846129E-01
         21   -1    0    0  503  502  0.00000000000E+00  0.00000000000E+00  0.33573402731E+03  0.33573402731E+03  0.00000000000E+00 0. -1.
          2   -1    0    0  502    0 -0.00000000000E+00 -0.00000000000E+00 -0.11047094248E+04  0.11047094248E+04  0.00000000000E+00 0. -1.
         24    2    1    2    0    0 -0.30918789371E+03 -0.14320919071E+03 -0.15386503706E+03  0.38225584261E+03  0.79618174185E+02 0.  0.
         23    2    1    2    0    0 -0.88815812463E+02 -0.15409374419E+03  0.31460914505E+01  0.20035005586E+03  0.92179804986E+02 0.  0.
        -11    1    3    3    0    0 -0.25030650395E+03 -0.81061522617E+02 -0.10216474592E+03  0.28224448919E+03  0.00000000000E+00 0.  1.
         12    1    3    3    0    0 -0.58881389760E+02 -0.62147668095E+02 -0.51700291136E+02  0.10001135342E+03  0.00000000000E+00 0. -1.
        -11    1    4    4    0    0 -0.59312067001E+02 -0.14504678005E+03  0.29871109385E+02  0.15952671523E+03  0.00000000000E+00 0. -1.
         11    1    4    4    0    0 -0.29503745461E+02 -0.90469641404E+01 -0.26725017935E+02  0.40823340628E+02  0.00000000000E+00 0.  1.
         21    1    1    2  503  501  0.39236155642E+02 -0.68556371698E+01  0.34896674080E+02  0.52955203072E+02  0.00000000000E+00 0.  1.
          1    1    1    2  501    0  0.35876755053E+03  0.30415857207E+03 -0.65315312592E+03  0.80488235052E+03  0.00000000000E+00 0. -1.
<scales pt_clust_5="13000.00000" pt_clust_6="13000.00000" pt_clust_7="13000.00000" pt_clust_8="13000.00000" pt_clust_9="39.83059" pt_clust_10="13000.00000"></scales>
<clustering>
<clus scale="   39.831">  1  9  2 -1</clus>
<clus scale="   79.618">  5  6 -1 -1</clus>
<clus scale="   92.180">  7  8 -1 -1</clus>
<clus scale="  337.582">  2  5  1 -1</clus>
<clus scale="  205.269">  7 10 -1 -1</clus>
<clus scale="   39.831">  1  5  2 -1</clus>
</clustering>
</event>
<event>
10    4  0.2866397E-005  0.1773781E+03  0.7546771E-02  0.1187684E+00
          2   -1    0    0  503    0 -0.00000000000E+00  0.00000000000E+00  0.67808179885E+03  0.67808179885E+03  0.00000000000E+00 0. -1.
         21   -1    0    0  501  502  0.00000000000E+00 -0.00000000000E+00 -0.76615142409E+02  0.76615142409E+02  0.00000000000E+00 0. -1.
         24    2    1    2    0    0 -0.18170295352E+02  0.78502002434E+02  0.49307031798E+03  0.50703771996E+03  0.86464946501E+02 0.  0.
         23    2    1    2    0    0  0.62595297120E+01 -0.58922930428E+01  0.53041545723E+02  0.10502699835E+03  0.90240589432E+02 0.  0.
        -13    1    3    3    0    0  0.32040312855E+02  0.11211185226E+02  0.12649907599E+03  0.13097438127E+03  0.00000000000E+00 0.  1.
         14    1    3    3    0    0 -0.50210608208E+02  0.67290817208E+02  0.36657124199E+03  0.37606333870E+03  0.00000000000E+00 0. -1.
        -13    1    4    4    0    0 -0.65925177020E+01 -0.34325694435E+02  0.63191879046E+02  0.72214459531E+02  0.00000000000E+00 0.  1.
         13    1    4    4    0    0  0.12852047414E+02  0.28433401392E+02 -0.10150333322E+02  0.32812538823E+02  0.00000000000E+00 0. -1.
         21    1    1    2  503  502 -0.97658733141E+00  0.23749819773E+02 -0.96822122443E+01  0.25666181952E+02  0.00000000000E+00 0. -1.
          1    1    1    2  501    0  0.12887352972E+02 -0.96359529164E+02  0.65037004980E+02  0.11696604099E+03  0.00000000000E+00 0. -1.
<scales pt_clust_5="13000.00000" pt_clust_6="13000.00000" pt_clust_7="13000.00000" pt_clust_8="13000.00000" pt_clust_9="23.76989" pt_clust_10="13000.00000"></scales>
<clustering>
<clus scale="   23.770">  2  9  1 -1</clus>
<clus scale="   86.465">  5  6 -1 -1</clus>
<clus scale="   90.241">  7  8 -1 -1</clus>
<clus scale="   86.796">  7 10 -1 -1</clus>
<clus scale="  120.095">  1  5  2 -1</clus>
<clus scale="   23.770">  2  5  1 -1</clus>
</clustering>
</event>
<event>
10    4  0.2866397E-005  0.2575263E+03  0.7546771E-02  0.1150758E+00
         21   -1    0    0  501  502  0.00000000000E+00  0.00000000000E+00  0.25424924817E+03  0.25424924817E+03  0.00000000000E+00 0.  1.
         -1   -1    0    0    0  501 -0.00000000000E+00 -0.00000000000E+00 -0.46670413399E+03  0.46670413399E+03  0.00000000000E+00 0.  1.
         24    2    1    2    0    0  0.33273499331E+02 -0.12107932956E+02  0.68265475636E+02  0.11411794677E+03  0.84314902674E+02 0.  0.
         23    2    1    2    0    0  0.53171337240E+01  0.55809305453E+02 -0.34013604087E+03  0.35648960634E+03  0.90826002016E+02 0.  0.
        -13    1    3    3    0    0 -0.24589725403E+02 -0.18621700325E+02  0.36501669037E+02  0.47789059008E+02  0.00000000000E+00 0.  1.
         14    1    3    3    0    0  0.57863224735E+02  0.65137673689E+01  0.31763806599E+02  0.66328887761E+02  0.00000000000E+00 0. -1.
        -11    1    4    4    0    0 -0.21978571439E+02  0.84953894983E+01 -0.17728848928E+02  0.29487986190E+02  0.00000000000E+00 0. -1.
         11    1    4    4    0    0  0.27295705163E+02  0.47313915955E+02 -0.32240719194E+03  0.32700162015E+03  0.00000000000E+00 0.  1.
         21    1    1    2  503  502 -0.89096605913E+02  0.34019939208E+02  0.10932112742E+03  0.14507470610E+03  0.00000000000E+00 0.  1.
         -2    1    1    2    0  503  0.50505972858E+02 -0.77721311705E+02 -0.49905447996E+02  0.10527112295E+03  0.00000000000E+00 0.  1.
<scales pt_clust_5="13000.00000" pt_clust_6="13000.00000" pt_clust_7="13000.00000" pt_clust_8="13000.00000" pt_clust_9="93.94448" pt_clust_10="13000.00000"></scales>
<clustering>
<clus scale="   84.315">  5  6 -1 -1</clus>
<clus scale="   90.826">  7  8 -1 -1</clus>
<clus scale="   91.448">  2  5  1 -1</clus>
<clus scale="   93.944">  1  9  2 -1</clus>
<clus scale="   73.526">  7 10 -1 -1</clus>
<clus scale="   93.944">  1  5  2 -1</clus>
</clustering>
</event>
<event>
10    4  0.2866397E-005  0.2553646E+03  0.7546771E-02  0.1140603E+00
          2   -1    0    0  503    0 -0.00000000000E+00  0.00000000000E+00  0.10365276668E+04  0.10365276668E+04  0.00000000000E+00 0. -1.
         21   -1    0    0  501  502  0.00000000000E+00 -0.00000000000E+00 -0.68588951322E+02  0.68588951322E+02  0.00000000000E+00 0.  1.
         24    2    1    2    0    0 -0.69010549582E+02 -0.60015779779E+02  0.29688617244E+03  0.32154320277E+03  0.82971573984E+02 0.  0.
         23    2    1    2    0    0 -0.34493367933E+02 -0.11054619095E+02  0.92561351057E+02  0.13471703408E+03  0.90934473812E+02 0.  0.
        -11    1    3    3    0    0 -0.73341642898E+02 -0.11022239949E+02  0.17106629789E+03  0.18645150745E+03  0.00000000000E+00 0.  1.
         12    1    3    3    0    0  0.43310933159E+01 -0.48993539830E+02  0.12581987455E+03  0.13509169532E+03  0.00000000000E+00 0. -1.
        -13    1    4    4    0    0 -0.39767659036E+01 -0.27125011913E+02  0.96205717836E+02  0.10003559908E+03  0.00000000000E+00 0. -1.
         13    1    4    4    0    0 -0.30516602029E+02  0.16070392818E+02 -0.36443667788E+01  0.34681435004E+02  0.00000000000E+00 0.  1.
         21    1    1    2  503  502  0.94776310274E+02 -0.52831385352E+02  0.79171930800E+02  0.13432013585E+03  0.00000000000E+00 0.  1.
          1    1    1    2  501    0  0.87276072406E+01  0.12390178423E+03  0.49931926117E+03  0.51453624541E+03  0.00000000000E+00 0. -1.
<scales pt_clust_5="13000.00000" pt_clust_6="13000.00000" pt_clust_7="13000.00000" pt_clust_8="13000.00000" pt_clust_9="108.50670" pt_clust_10="13000.00000"></scales>
<clustering>
<clus scale="   82.972">  5  6 -1 -1</clus>
<clus scale="   90.934">  7  8 -1 -1</clus>
<clus scale="  108.507">  2  9  1 -1</clus>
<clus scale="  117.095">  7 10 -1 -1</clus>
<clus scale="  119.526">  1  5  2 -1</clus>
<clus scale="  108.507">  2  5  1 -1</clus>
</clustering>
</event>
<event>
10    4  0.2866397E-005  0.1136335E+03  0.7546771E-02  0.1270274E+00
          2   -1    0    0  503    0 -0.00000000000E+00  0.00000000000E+00  0.67193685786E+03  0.67193685786E+03  0.00000000000E+00 0. -1.
         21   -1    0    0  501  502  0.00000000000E+00 -0.00000000000E+00 -0.75533466452E+02  0.75533466452E+02  0.00000000000E+00 0. -1.
         24    2    1    2    0    0  0.17193057050E+02 -0.89112424248E+01  0.10792874218E+03  0.13645589732E+03  0.81219376216E+02 0.  0.
         23    2    1    2    0    0  0.20628649439E+02  0.24763208800E+01  0.44751921449E+03  0.45729270440E+03  0.91714212770E+02 0.  0.
        -11    1    3    3    0    0 -0.15714215972E+02 -0.25127396814E+02  0.91646143802E+02  0.96318940650E+02  0.00000000000E+00 0.  1.
         12    1    3    3    0    0  0.32907273022E+02  0.16216154389E+02  0.16282598381E+02  0.40136956673E+02  0.00000000000E+00 0. -1.
        -13    1    4    4    0    0  0.28268586874E+01  0.46297300941E+02  0.20172122057E+03  0.20698522177E+03  0.00000000000E+00 0.  1.
         13    1    4    4    0    0  0.17801790752E+02 -0.43820980061E+02  0.24579799392E+03  0.25030748264E+03  0.00000000000E+00 0. -1.
         21    1    1    2  503  502 -0.24405551376E+02 -0.86404856997E+01 -0.52273501191E+02  0.58333591163E+02  0.00000000000E+00 0. -1.
          1    1    1    2  501    0 -0.13416155113E+02  0.15075407245E+02  0.93228935926E+02  0.95388131418E+02  0.00000000000E+00 0. -1.
<scales pt_clust_5="13000.00000" pt_clust_6="13000.00000" pt_clust_7="13000.00000" pt_clust_8="13000.00000" pt_clust_9="25.88994" pt_clust_10="13000.00000"></scales>
<clustering>
<clus scale="   25.890">  2  9  1 -1</clus>
<clus scale="   81.219">  5  6 -1 -1</clus>
<clus scale="   82.594">  1  5  2 -1</clus>
<clus scale="   91.714">  7  8 -1 -1</clus>
<clus scale="   18.901">  7 10 -1 -1</clus>
<clus scale="   25.890">  2  5  1 -1</clus>
</clustering>
</event>
<event>
10    4  0.2866397E-005  0.5202731E+03  0.7546771E-02  0.1071313E+00
          2   -1    0    0  502    0 -0.00000000000E+00  0.00000000000E+00  0.12661257144E+04  0.12661257144E+04  0.00000000000E+00 0. -1.
         21   -1    0    0  503  502  0.00000000000E+00 -0.00000000000E+00 -0.11009462064E+03  0.11009462064E+03  0.00000000000E+00 0. -1.
         24    2    1    2    0    0  0.12195739895E+02  0.10573375095E+02  0.18544277002E+03  0.20369425181E+03  0.82715143328E+02 0.  0.
         23    2    1    2    0    0 -0.21794853414E+03 -0.85664426293E+02  0.43006089072E+03  0.49832416543E+03  0.92383151367E+02 0.  0.
        -13    1    3    3    0    0  0.79652450564E+01 -0.35315912010E+02  0.10394832444E+03  0.11007230770E+03  0.00000000000E+00 0.  1.
         14    1    3    3    0    0  0.42304948386E+01  0.45889287105E+02  0.81494445578E+02  0.93621944104E+02  0.00000000000E+00 0. -1.
        -13    1    4    4    0    0 -0.16417030557E+03 -0.31017433522E+02  0.23164824149E+03  0.28561316181E+03  0.00000000000E+00 0. -1.
         13    1    4    4    0    0 -0.53778228579E+02 -0.54646992772E+02  0.19841264923E+03  0.21271100362E+03  0.00000000000E+00 0.  1.
         21    1    1    2  503  501 -0.56591624898E+02  0.14881487141E+02 -0.11878052689E+02  0.59708950785E+02  0.00000000000E+00 0. -1.
          1    1    1    2  501    0  0.26234441915E+03  0.60209564058E+02  0.55240548574E+03  0.61449296704E+03  0.00000000000E+00 0. -1.
<scales pt_clust_5="13000.00000" pt_clust_6="13000.00000" pt_clust_7="13000.00000" pt_clust_8="13000.00000" pt_clust_9="58.51556" pt_clust_10="13000.00000"></scales>
<clustering>
<clus scale="   58.516">  2  9  1 -1</clus>
<clus scale="   82.715">  5  6 -1 -1</clus>
<clus scale="   83.804">  1  5  2 -1</clus>
<clus scale="   92.383">  7  8 -1 -1</clus>
<clus scale="  251.814">  7 10 -1 -1</clus>
<clus scale="   58.516">  2  5  1 -1</clus>
</clustering>
</event>
<event>
10    4  0.2866397E-005  0.2178324E+03  0.7546771E-02  0.1162917E+00
         21   -1    0    0  501  502  0.00000000000E+00  0.00000000000E+00  0.49943400181E+02  0.49943400181E+02  0.00000000000E+00 0. -1.
          2   -1    0    0  503    0 -0.00000000000E+00 -0.00000000000E+00 -0.11408299381E+04  0.11408299381E+04  0.00000000000E+00 0. -1.
         24    2    1    2    0    0 -0.71132824808E+02 -0.44927610661E+02 -0.39719765816E+03  0.41425828112E+03  0.82253114623E+02 0.  0.
         23    2    1    2    0    0  0.85635804509E+02  0.74949479144E+02 -0.34604166044E+03  0.37488729343E+03  0.88570517523E+02 0.  0.
        -13    1    3    3    0    0 -0.28611954376E+02  0.13853674884E+02 -0.47782636319E+02  0.57391188998E+02  0.00000000000E+00 0.  1.
         14    1    3    3    0    0 -0.42520870432E+02 -0.58781285545E+02 -0.34941502184E+03  0.35686709212E+03  0.00000000000E+00 0. -1.
        -11    1    4    4    0    0  0.30094380652E+02  0.79236832130E+02 -0.24852247214E+03  0.26257868625E+03  0.00000000000E+00 0. -1.
         11    1    4    4    0    0  0.55541423857E+02 -0.42873529859E+01 -0.97519188300E+02  0.11230860718E+03  0.00000000000E+00 0.  1.
         21    1    1    2  503  502  0.23298993923E+02 -0.53694148777E+01  0.20030141462E+02  0.31191029174E+02  0.00000000000E+00 0. -1.
          1    1    1    2  501    0 -0.37801973624E+02 -0.24652453606E+02 -0.36767736075E+03  0.37043673453E+03  0.00000000000E+00 0. -1.
<scales pt_clust_5="13000.00000" pt_clust_6="13000.00000" pt_clust_7="13000.00000" pt_clust_8="13000.00000" pt_clust_9="23.90970" pt_clust_10="13000.00000"></scales>
<clustering>
<clus scale="   23.910">  1  9  2 -1</clus>
<clus scale="   82.253">  5  6 -1 -1</clus>
<clus scale="   88.571">  7  8 -1 -1</clus>
<clus scale="   44.201">  7 10 -1 -1</clus>
<clus scale="  113.672">  2  5  1 -1</clus>
<clus scale="   23.910">  1  5  2 -1</clus>
</clustering>
</event>
<event>
10    4  0.2866397E-005  0.3213338E+03  0.7546771E-02  0.1088298E+00
         21   -1    0    0  503  502  0.00000000000E+00  0.00000000000E+00  0.33130696795E+03  0.33130696795E+03  0.00000000000E+00 0.  1.
          2   -1    0    0  502    0 -0.00000000000E+00 -0.00000000000E+00 -0.77739060881E+03  0.77739060881E+03  0.00000000000E+00 0. -1.
         24    2    1    2    0    0  0.24815236247E+03  0.24378651649E+02 -0.13729822521E+03  0.29475642242E+03  0.76528636851E+02 0.  0.
         23    2    1    2    0    0  0.67603522812E+01 -0.11384469846E+02 -0.21160102701E+03  0.23126321479E+03  0.92370836139E+02 0.  0.
        -11    1    3    3    0    0  0.16612894532E+03 -0.20368153892E+02 -0.86417504388E+02  0.18836579634E+03  0.00000000000E+00 0.  1.
         12    1    3    3    0    0  0.82023417150E+02  0.44746805541E+02 -0.50880720821E+02  0.10639062608E+03  0.00000000000E+00 0. -1.
        -11    1    4    4    0    0 -0.26748720412E+02  0.58135341946E+00 -0.13454904095E+02  0.29947728790E+02  0.00000000000E+00 0.  1.
         11    1    4    4    0    0  0.33509072693E+02 -0.11965823265E+02 -0.19814612291E+03  0.20131548600E+03  0.00000000000E+00 0. -1.
         21    1    1    2  503  501 -0.68187275723E+02 -0.12070601008E+03  0.18273676158E+03  0.22937342800E+03  0.00000000000E+00 0.  1.
          1    1    1    2  501    0 -0.18672543903E+03  0.10771182827E+03 -0.27992115023E+03  0.35330451154E+03  0.00000000000E+00 0. -1.
<scales pt_clust_5="13000.00000" pt_clust_6="13000.00000" pt_clust_7="13000.00000" pt_clust_8="13000.00000" pt_clust_9="138.63421" pt_clust_10="13000.00000"></scales>
<clustering>
<clus scale="   76.529">  5  6 -1 -1</clus>
<clus scale="   92.371">  7  8 -1 -1</clus>
<clus scale="  138.634">  1  9  2 -1</clus>
<clus scale="  218.997">  7 10 -1 -1</clus>
<clus scale="  225.062">  2  5  1 -1</clus>
<clus scale="  138.634">  1  5  2 -1</clus>
</clustering>
</event>
<event>
10    4  0.2866397E-005  0.3973781E+03  0.7546771E-02  0.1090136E+00
          2   -1    0    0  503    0 -0.00000000000E+00  0.00000000000E+00  0.32548191112E+03  0.32548191112E+03  0.00000000000E+00 0. -1.
         21   -1    0    0  501  502  0.00000000000E+00 -0.00000000000E+00 -0.78600420288E+03  0.78600420288E+03  0.00000000000E+00 0. -1.
         24    2    1    2    0    0  0.26316950363E+02  0.75385538185E+02  0.46539045793E+02  0.12253373742E+03  0.80455408638E+02 0.  0.
         23    2    1    2    0    0 -0.74707638116E+02  0.15473828717E+03 -0.19935399232E+02  0.19415296893E+03  0.88163407904E+02 0.  0.
        -13    1    3    3    0    0 -0.15367126497E+02  0.21988605681E+02  0.47764232715E+02  0.54782016059E+02  0.00000000000E+00 0.  1.
         14    1    3    3    0    0  0.41684076860E+02  0.53396932505E+02 -0.12251869224E+01  0.67751721363E+02  0.00000000000E+00 0. -1.
        -11    1    4    4    0    0 -0.24719313804E+01  0.98243811522E+02 -0.27747019209E+02  0.10211686453E+03  0.00000000000E+00 0. -1.
         11    1    4    4    0    0 -0.72235706735E+02  0.56494475651E+02  0.78116199767E+01  0.92036104401E+02  0.00000000000E+00 0.  1.
         21    1    1    2  503  502  0.22955668371E+03 -0.25851951179E+03 -0.50341377936E+03  0.61069963343E+03  0.00000000000E+00 0. -1.
          1    1    1    2  501    0 -0.18116599596E+03  0.28395686435E+02  0.16287841045E+02  0.18409977421E+03  0.00000000000E+00 0. -1.
<scales pt_clust_5="13000.00000" pt_clust_6="13000.00000" pt_clust_7="13000.00000" pt_clust_8="13000.00000" pt_clust_9="337.42688" pt_clust_10="13000.00000"></scales>
<clustering>
<clus scale="   80.455">  5  6 -1 -1</clus>
<clus scale="   88.163">  7  8 -1 -1</clus>
<clus scale="  113.352">  1  5  2 -1</clus>
<clus scale="  180.402">  7 10 -1 -1</clus>
<clus scale="  337.427">  2  9  1 -1</clus>
<clus scale="  337.427">  2  5  1 -1</clus>
</clustering>
</event>
<event>
10    4  0.2866397E-005  0.3629993E+03  0.7546771E-02  0.1073872E+00
          2   -1    0    0  502    0 -0.00000000000E+00  0.00000000000E+00  0.18404702558E+04  0.18404702558E+04  0.00000000000E+00 0. -1.
         21   -1    0    0  503  502  0.00000000000E+00 -0.00000000000E+00 -0.25502043658E+03  0.25502043658E+03  0.00000000000E+00 0. -1.
         24    2    1    2    0    0 -0.18210731901E+03  0.16165638178E+03  0.45677163340E+03  0.52382134619E+03  0.80328178376E+02 0.  0.
         23    2    1    2    0    0 -0.14789256627E+01  0.33702627814E+02  0.18889533150E+03  0.21539033646E+03  0.97844245807E+02 0.  0.
        -11    1    3    3    0    0 -0.46586833841E+02  0.57365265604E+02  0.73963898496E+02  0.10455508149E+03  0.00000000000E+00 0.  1.
         12    1    3    3    0    0 -0.13552048517E+03  0.10429111617E+03  0.38280773490E+03  0.41926626470E+03  0.00000000000E+00 0. -1.
        -11    1    4    4    0    0  0.16206084944E+02 -0.19597625754E+02  0.90686763441E+01  0.26998981741E+02  0.00000000000E+00 0.  1.
         11    1    4    4    0    0 -0.17685010607E+02  0.53300253568E+02  0.17982665515E+03  0.18839135472E+03  0.00000000000E+00 0. -1.
         21    1    1    2  503  501 -0.11730563236E+02 -0.98782684955E+02 -0.18528832859E+03  0.21030309002E+03  0.00000000000E+00 0. -1.
          1    1    1    2  501    0  0.19531680791E+03 -0.96576324637E+02  0.11250711829E+04  0.11459759197E+04  0.00000000000E+00 0. -1.
<scales pt_clust_5="13000.00000" pt_clust_6="13000.00000" pt_clust_7="13000.00000" pt_clust_8="13000.00000" pt_clust_9="99.47676" pt_clust_10="13000.00000"></scales>
<clustering>
<clus scale="   80.328">  5  6 -1 -1</clus>
<clus scale="   97.844">  7  8 -1 -1</clus>
<clus scale="   99.477">  2  9  1 -1</clus>
<clus scale="  224.620">  7 10 -1 -1</clus>
<clus scale="  230.081">  1  5  2 -1</clus>
<clus scale="   99.477">  2  5  1 -1</clus>
</clustering>
</event>
<event>
10    4  0.2866397E-005  0.2805194E+03  0.7546771E-02  0.1139810E+00
         -1   -1    0    0    0  501 -0.00000000000E+00  0.00000000000E+00  0.29120338500E+03  0.29120338500E+03  0.00000000000E+00 0.  1.
         21   -1    0    0  503  502  0.00000000000E+00 -0.00000000000E+00 -0.46879451490E+03  0.46879451490E+03  0.00000000000E+00 0. -1.
         24    2    1    2    0    0  0.25168931656E+02 -0.27494387357E+02 -0.67828852509E+02  0.11163030689E+03  0.80443493995E+02 0.  0.
         23    2    1    2    0    0 -0.26721788323E+02 -0.53934267441E+02  0.19199688568E+03  0.22063807471E+03  0.90528430488E+02 0.  0.
        -11    1    3    3    0    0  0.45149760734E+02 -0.38811541562E+02 -0.65551892085E+02  0.88554430768E+02  0.00000000000E+00 0.  1.
         12    1    3    3    0    0 -0.19980829077E+02  0.11317154204E+02 -0.22769604244E+01  0.23075876119E+02  0.00000000000E+00 0. -1.
        -11    1    4    4    0    0 -0.18409753227E+02  0.23400914318E+02  0.68461141155E+02  0.74655540003E+02  0.00000000000E+00 0. -1.
         11    1    4    4    0    0 -0.83120350959E+01 -0.77335181759E+02  0.12353574452E+03  0.14598253471E+03  0.00000000000E+00 0.  1.
         21    1    1    2  503  501 -0.44487706729E+02 -0.31198213433E+02 -0.30119218243E+03  0.30605426860E+03  0.00000000000E+00 0. -1.
         -2    1    1    2    0  502  0.46040563395E+02  0.11262686823E+03 -0.56698064681E+00  0.12167524971E+03  0.00000000000E+00 0.  1.
<scales pt_clust_5="13000.00000" pt_clust_6="13000.00000" pt_clust_7="13000.00000" pt_clust_8="13000.00000" pt_clust_9="54.33677" pt_clust_10="13000.00000"></scales>
<clustering>
<clus scale="   54.337">  2  9  1 -1</clus>
<clus scale="   80.443">  5  6 -1 -1</clus>
<clus scale="   90.528">  7  8 -1 -1</clus>
<clus scale="   91.909">  1  5  2 -1</clus>
<clus scale="   97.709">  7 10 -1 -1</clus>
<clus scale="   54.337">  2  5  1 -1</clus>
</clustering>
</event>
<event>
10    4  0.2866397E-005  0.3953719E+03  0.7546771E-02  0.1065895E+00
          2   -1    0    0  503    0 -0.00000000000E+00  0.00000000000E+00  0.11225017137E+04  0.11225017137E+04  0.00000000000E+00 0. -1.
         21   -1    0    0  501  502  0.00000000000E+00 -0.00000000000E+00 -0.16353274850E+03  0.16353274850E+03  0.00000000000E+00 0. -1.
         24    2    1    2    0    0 -0.90550476746E+02 -0.19809679838E+03  0.20566112115E+02  0.23342158750E+03  0.81369172144E+02 0.  0.
         23    2    1    2    0    0 -0.62921749029E+01  0.69499481791E+02  0.66796422931E+02  0.13241376831E+03  0.90564200910E+02 0.  0.
        -13    1    3    3    0    0 -0.22652686075E+02 -0.93565494727E+02 -0.27038002591E+02  0.99993497659E+02  0.00000000000E+00 0.  1.
         14    1    3    3    0    0 -0.67897790670E+02 -0.10453130366E+03  0.47604114706E+02  0.13342808984E+03  0.00000000000E+00 0. -1.
        -13    1    4    4    0    0 -0.23388232378E+02 -0.59126713990E+01 -0.74153055316E+01  0.25237984328E+02  0.00000000000E+00 0.  1.
         13    1    4    4    0    0  0.17096057475E+02  0.75412153190E+02  0.74211728462E+02  0.10717578398E+03  0.00000000000E+00 0. -1.
         21    1    1    2  503  502 -0.18093245779E+02  0.27275889607E+02 -0.24423482377E+01  0.32822321088E+02  0.00000000000E+00 0. -1.
          1    1    1    2  501    0  0.11493589743E+03  0.10132142699E+03  0.87404877843E+03  0.88737678534E+03  0.00000000000E+00 0. -1.
<scales pt_clust_5="13000.00000" pt_clust_6="13000.00000" pt_clust_7="13000.00000" pt_clust_8="13000.00000" pt_clust_9="32.73133" pt_clust_10="13000.00000"></scales>
<clustering>
<clus scale="   32.731">  2  9  1 -1</clus>
<clus scale="   81.369">  5  6 -1 -1</clus>
<clus scale="   90.564">  7  8 -1 -1</clus>
<clus scale="  153.431">  7 10 -1 -1</clus>
<clus scale="  221.676">  1  5  2 -1</clus>
<clus scale="   32.731">  2  5  1 -1</clus>
</clustering>
</event>
<event>
10    4  0.2866397E-005  0.7260064E+03  0.7546771E-02  0.1005573E+00
         21   -1    0    0  501  502  0.00000000000E+00  0.00000000000E+00  0.18255618185E+03  0.18255618185E+03  0.00000000000E+00 0.  1.
          4   -1    0    0  503    0 -0.00000000000E+00 -0.00000000000E+00 -0.12749765477E+04  0.12749765477E+04  0.00000000000E+00 0. -1.
         24    2    1    2    0    0 -0.10797748328E+03  0.15792238775E+03 -0.19325254611E+03  0.28343301743E+03  0.79931916935E+02 0.  0.
         23    2    1    2    0    0 -0.48731440985E+02  0.68307361024E+02  0.78034236816E+02  0.14692826527E+03  0.91966972919E+02 0.  0.
        -11    1    3    3    0    0 -0.43881839100E+02  0.34559150527E+02 -0.15876851514E+02  0.58069140703E+02  0.00000000000E+00 0.  1.
         12    1    3    3    0    0 -0.64095644175E+02  0.12336323722E+03 -0.17737569460E+03  0.22536387673E+03  0.00000000000E+00 0. -1.
        -13    1    4    4    0    0 -0.68440740001E+02  0.36528683833E+02  0.77315430576E+02  0.10952696216E+03  0.00000000000E+00 0.  1.
         13    1    4    4    0    0  0.19709299016E+02  0.31778677191E+02  0.71880624001E+00  0.37401303107E+02  0.00000000000E+00 0. -1.
         21    1    1    2  503  502  0.93728993595E+01  0.22469354482E+02 -0.44789106774E+02  0.50978301451E+02  0.00000000000E+00 0. -1.
          3    1    1    2  501    0  0.14733602490E+03 -0.24869910325E+03 -0.93241294974E+03  0.97619314535E+03  0.00000000000E+00 0. -1.
<scales pt_clust_5="13000.00000" pt_clust_6="13000.00000" pt_clust_7="13000.00000" pt_clust_8="13000.00000" pt_clust_9="24.34592" pt_clust_10="13000.00000"></scales>
<clustering>
<clus scale="   24.346">  1  9  2 -1</clus>
<clus scale="   79.932">  5  6 -1 -1</clus>
<clus scale="   91.967">  7  8 -1 -1</clus>
<clus scale="  210.475">  2  5  1 -1</clus>
<clus scale="  106.460">  7 10 -1 -1</clus>
<clus scale="   24.346">  1  5  2 -1</clus>
</clustering>
</event>
<event>
10    4  0.2866397E-005  0.2217220E+03  0.7546771E-02  0.1164764E+00
         -3   -1    0    0    0  501 -0.00000000000E+00  0.00000000000E+00  0.16017901947E+03  0.16017901947E+03  0.00000000000E+00 0.  1.
         21   -1    0    0  503  502  0.00000000000E+00 -0.00000000000E+00 -0.41086002529E+03  0.41086002529E+03  0.00000000000E+00 0.  1.
         24    2    1    2    0    0  0.82480596080E+01  0.26556533316E+02 -0.23606491709E+03  0.25496712469E+03  0.92240498932E+02 0.  0.
         23    2    1    2    0    0  0.59483068967E+01 -0.34594266555E+02  0.11335617491E+03  0.14932920335E+03  0.90650112788E+02 0.  0.
        -11    1    3    3    0    0  0.37920129377E+02 -0.16045338038E+02 -0.13794016623E+03  0.14395443218E+03  0.00000000000E+00 0.  1.
         12    1    3    3    0    0 -0.29672069769E+02  0.42601871354E+02 -0.98124750864E+02  0.11101269251E+03  0.00000000000E+00 0. -1.
        -13    1    4    4    0    0  0.43923743885E+01 -0.59717609633E+02  0.40609248928E+02  0.72350514521E+02  0.00000000000E+00 0.  1.
         13    1    4    4    0    0  0.15559325082E+01  0.25123343078E+02  0.72746925982E+02  0.76978688825E+02  0.00000000000E+00 0. -1.
         21    1    1    2  503  501  0.44142456785E+02 -0.59560052936E+01 -0.72170878531E+02  0.84809587889E+02  0.00000000000E+00 0.  1.
         -4    1    1    2    0  502 -0.58338823289E+02  0.13993738533E+02 -0.55801385100E+02  0.81933128831E+02  0.00000000000E+00 0.  1.
<scales pt_clust_5="13000.00000" pt_clust_6="13000.00000" pt_clust_7="13000.00000" pt_clust_8="13000.00000" pt_clust_9="44.54246" pt_clust_10="13000.00000"></scales>
<clustering>
<clus scale="   44.542">  2  9  1 -1</clus>
<clus scale="   90.650">  7  8 -1 -1</clus>
<clus scale="   50.820">  7 10 -1 -1</clus>
<clus scale="   92.240">  5  6 -1 -1</clus>
<clus scale="  103.288">  1  5  2 -1</clus>
<clus scale="   44.542">  2  5  1 -1</clus>
</clustering>
</event>
<event>
10    4  0.2866397E-005  0.1794247E+03  0.7546771E-02  0.1175075E+00
         21   -1    0    0  501  502  0.00000000000E+00  0.00000000000E+00  0.82236597311E+02  0.82236597311E+02  0.00000000000E+00 0. -1.
          2   -1    0    0  503    0 -0.00000000000E+00 -0.00000000000E+00 -0.10228007910E+04  0.10228007910E+04  0.00000000000E+00 0. -1.
         24    2    1    2    0    0  0.16073532000E+02 -0.15749528000E+03 -0.69742335082E+03  0.71879808745E+03  0.72168127342E+02 0.  0.
         23    2    1    2    0    0 -0.91370048397E+00  0.20920307176E+02 -0.16395911217E+03  0.17896804183E+03  0.68618331591E+02 0.  0.
        -11    1    3    3    0    0 -0.17367538521E+02 -0.62446481322E+02 -0.17214821288E+03  0.18394619220E+03  0.00000000000E+00 0.  1.
         12    1    3    3    0    0  0.33441070521E+02 -0.95048798675E+02 -0.52527513793E+03  0.53485189526E+03  0.00000000000E+00 0. -1.
        -13    1    4    4    0    0 -0.23967439642E+02 -0.65908604593E+01 -0.11833333323E+03  0.12091590200E+03  0.00000000000E+00 0. -1.
         13    1    4    4    0    0  0.23053739158E+02  0.27511167635E+02 -0.45625778945E+02  0.58052139824E+02  0.00000000000E+00 0.  1.
         21    1    1    2  503  502  0.15290150853E+02  0.65998029911E+02  0.29717189546E+02  0.73977293948E+02  0.00000000000E+00 0. -1.
          1    1    1    2  501    0 -0.30449982370E+02  0.70576942910E+02 -0.10889892023E+03  0.13329396507E+03  0.00000000000E+00 0. -1.
<scales pt_clust_5="13000.00000" pt_clust_6="13000.00000" pt_clust_7="13000.00000" pt_clust_8="13000.00000" pt_clust_9="67.74606" pt_clust_10="13000.00000"></scales>
<clustering>
<clus scale="   67.746">  1  9  2 -1</clus>
<clus scale="   68.618">  7  8 -1 -1</clus>
<clus scale="   72.168">  5  6 -1 -1</clus>
<clus scale="  100.066">  7 10 -1 -1</clus>
<clus scale="  153.951">  2  5  1 -1</clus>
<clus scale="   67.746">  1  5  2 -1</clus>
</clustering>
</event>
<event>
10    4  0.2866397E-005  0.2494356E+03  0.7546771E-02  0.1134516E+00
         21   -1    0    0  503  502  0.00000000000E+00  0.00000000000E+00  0.62715608975E+02  0.62715608975E+02  0.00000000000E+00 0. -1.
          2   -1    0    0  502    0 -0.00000000000E+00 -0.00000000000E+00 -0.87204204890E+03  0.87204204890E+03  0.00000000000E+00 0. -1.
         24    2    1    2    0    0  0.13753507869E+03  0.12835578478E+02 -0.34689495454E+03  0.38194327376E+03  0.80398413780E+02 0.  0.
         23    2    1    2    0    0 -0.14691572783E+03 -0.31945913816E+02 -0.23992987341E+03  0.29604564643E+03  0.86440199682E+02 0.  0.
        -11    1    3    3    0    0  0.49726380892E+02 -0.32400131242E+02 -0.15804230197E+03  0.16881898790E+03  0.00000000000E+00 0.  1.
         12    1    3    3    0    0  0.87808697796E+02  0.45235709719E+02 -0.18885265257E+03  0.21312428586E+03  0.00000000000E+00 0. -1.
        -11    1    4    4    0    0 -0.38549833158E+02 -0.47768968081E+02 -0.11134652743E+03  0.12714563743E+03  0.00000000000E+00 0.  1.
         11    1    4    4    0    0 -0.10836589468E+03  0.15823054265E+02 -0.12858334599E+03  0.16890000900E+03  0.00000000000E+00 0. -1.
         21    1    1    2  503  501 -0.42476213495E+02  0.34042089650E+02 -0.43113524427E+02  0.69439675756E+02  0.00000000000E+00 0. -1.
          1    1    1    2  501    0  0.51856862642E+02 -0.14931754311E+02 -0.17938808754E+03  0.18732906193E+03  0.00000000000E+00 0. -1.
<scales pt_clust_5="13000.00000" pt_clust_6="13000.00000" pt_clust_7="13000.00000" pt_clust_8="13000.00000" pt_clust_9="54.43430" pt_clust_10="13000.00000"></scales>
<clustering>
<clus scale="   54.434">  1  9  2 -1</clus>
<clus scale="   80.398">  5  6 -1 -1</clus>
<clus scale="   86.440">  7  8 -1 -1</clus>
<clus scale="   49.967">  7 10 -1 -1</clus>
<clus scale="  148.634">  2  5  1 -1</clus>
<clus scale="   54.434">  1  5  2 -1</clus>
</clustering>
</event>
<event>
10    4  0.2866397E-005  0.2047297E+03  0.7546771E-02  0.1171268E+00
         -3   -1    0    0    0  501 -0.00000000000E+00  0.00000000000E+00  0.20291160933E+03  0.20291160933E+03  0.00000000000E+00 0.  1.
         21   -1    0    0  503  502  0.00000000000E+00 -0.00000000000E+00 -0.28562060654E+03  0.28562060654E+03  0.00000000000E+00 0.  1.
         24    2    1    2    0    0 -0.34079599041E+02  0.99030894223E+02 -0.71295189190E+02  0.14934548199E+03  0.79072953075E+02 0.  0.
         23    2    1    2    0    0 -0.40134652550E+02 -0.46729784581E+02  0.10927326572E+03  0.15634938515E+03  0.93327490782E+02 0.  0.
        -13    1    3    3    0    0  0.15531107217E+02  0.66928703465E+02 -0.21274158943E+02  0.71925353511E+02  0.00000000000E+00 0.  1.
         14    1    3    3    0    0 -0.49610706258E+02  0.32102190757E+02 -0.50021030247E+02  0.77420128480E+02  0.00000000000E+00 0. -1.
        -13    1    4    4    0    0 -0.18182003958E+02 -0.38403389908E+02  0.12231969569E+03  0.12948943423E+03  0.00000000000E+00 0.  1.
         13    1    4    4    0    0 -0.21952648592E+02 -0.83263946726E+01 -0.13046429974E+02  0.26859950921E+02  0.00000000000E+00 0. -1.
         21    1    1    2  503  501  0.10615793669E+02 -0.36020972451E+02 -0.11011521876E+03  0.11634245543E+03  0.00000000000E+00 0.  1.
         -4    1    1    2    0  502  0.63598457922E+02 -0.16280137191E+02 -0.10571854967E+02  0.66494893296E+02  0.00000000000E+00 0.  1.
<scales pt_clust_5="13000.00000" pt_clust_6="13000.00000" pt_clust_7="13000.00000" pt_clust_8="13000.00000" pt_clust_9="37.55270" pt_clust_10="13000.00000"></scales>
<clustering>
<clus scale="   37.553">  2  9  1 -1</clus>
<clus scale="   79.073">  5  6 -1 -1</clus>
<clus scale="   93.327">  7  8 -1 -1</clus>
<clus scale="   70.315">  7 10 -1 -1</clus>
<clus scale="  113.004">  1  5  2 -1</clus>
<clus scale="   37.553">  2  5  1 -1</clus>
</clustering>
</event>
<event>
10    4  0.2866397E-005  0.2543518E+03  0.7546771E-02  0.1137275E+00
         21   -1    0    0  503  502  0.00000000000E+00  0.00000000000E+00  0.40541053095E+02  0.40541053095E+02  0.00000000000E+00 0.  1.
          2   -1    0    0  502    0 -0.00000000000E+00 -0.00000000000E+00 -0.13074621221E+04  0.13074621221E+04  0.00000000000E+00 0. -1.
         24    2    1    2    0    0 -0.82265840854E+02  0.76102238398E+02 -0.32154053275E+03  0.34995947644E+03  0.80771911523E+02 0.  0.
         23    2    1    2    0    0 -0.47586840594E+02 -0.41259875321E+01 -0.23165623484E+03  0.25205820780E+03  0.87104522327E+02 0.  0.
        -13    1    3    3    0    0 -0.87183831505E+02  0.31752468337E+02 -0.23341849741E+03  0.25118406529E+03  0.00000000000E+00 0.  1.
         14    1    3    3    0    0  0.49179906513E+01  0.44349770061E+02 -0.88122035331E+02  0.98775411148E+02  0.00000000000E+00 0. -1.
        -13    1    4    4    0    0 -0.80470700681E+01 -0.39953571205E+02 -0.61887956265E+02  0.74102377286E+02  0.00000000000E+00 0. -1.
         13    1    4    4    0    0 -0.39539770526E+02  0.35827583672E+02 -0.16976827857E+03  0.17795583051E+03  0.00000000000E+00 0.  1.
         21    1    1    2  503  501  0.77160450324E+01 -0.19864569075E+02 -0.13636831673E+01  0.21354111718E+02  0.00000000000E+00 0. -1.
          1    1    1    2  501    0  0.12213663642E+03 -0.52111681790E+02 -0.71236061829E+03  0.72463137928E+03  0.00000000000E+00 0. -1.
<scales pt_clust_5="13000.00000" pt_clust_6="13000.00000" pt_clust_7="13000.00000" pt_clust_8="13000.00000" pt_clust_9="21.31052" pt_clust_10="13000.00000"></scales>
<clustering>
<clus scale="   21.311">  1  9  2 -1</clus>
<clus scale="   80.772">  5  6 -1 -1</clus>
<clus scale="   87.105">  7  8 -1 -1</clus>
<clus scale="  131.090">  2  5  1 -1</clus>
<clus scale="   64.554">  7 10 -1 -1</clus>
<clus scale="   21.311">  1  5  2 -1</clus>
</clustering>
</event>
<event>
10    4  0.2866397E-005  0.2758344E+03  0.7546771E-02  0.1137419E+00
         21   -1    0    0  503  502  0.00000000000E+00  0.00000000000E+00  0.28034994825E+02  0.28034994825E+02  0.00000000000E+00 0. -1.
          2   -1    0    0  502    0 -0.00000000000E+00 -0.00000000000E+00 -0.18398760048E+04  0.18398760048E+04  0.00000000000E+00 0. -1.
         24    2    1    2    0    0  0.32766859816E+02 -0.71203689324E+02 -0.47150620939E+03  0.48507462782E+03  0.82678029657E+02 0.  0.
         23    2    1    2    0    0 -0.42339322978E+02 -0.10335810981E+03 -0.56161619926E+03  0.57985912371E+03  0.91369201291E+02 0.  0.
        -13    1    3    3    0    0 -0.27074413273E+02 -0.33656572263E+02 -0.18816630606E+03  0.19306047613E+03  0.00000000000E+00 0.  1.
         14    1    3    3    0    0  0.59841273089E+02 -0.37547117062E+02 -0.28333990333E+03  0.29201415168E+03  0.00000000000E+00 0. -1.
        -11    1    4    4    0    0  0.60731884864E+01 -0.79773586436E+02 -0.43453641357E+03  0.44184002018E+03  0.00000000000E+00 0.  1.
         11    1    4    4    0    0 -0.48412511464E+02 -0.23584523371E+02 -0.12707978568E+03  0.13801910353E+03  0.00000000000E+00 0. -1.
         21    1    1    2  503  501 -0.17129376710E+02  0.54994944572E+02 -0.12181401902E+03  0.13474611202E+03  0.00000000000E+00 0. -1.
          1    1    1    2  501    0  0.26701839872E+02  0.11956685456E+03 -0.65690458226E+03  0.66823113603E+03  0.00000000000E+00 0. -1.
<scales pt_clust_5="13000.00000" pt_clust_6="13000.00000" pt_clust_7="13000.00000" pt_clust_8="13000.00000" pt_clust_9="57.60086" pt_clust_10="13000.00000"></scales>
<clustering>
<clus scale="   57.601">  1  9  2 -1</clus>
<clus scale="   82.678">  5  6 -1 -1</clus>
<clus scale="   91.369">  7  8 -1 -1</clus>
<clus scale="  102.426">  2  5  1 -1</clus>
<clus scale="  108.594">  7 10 -1 -1</clus>
<clus scale="   57.601">  1  5  2 -1</clus>
</clustering>
</event>
<event>
10    4  0.2866397E-005  0.2248453E+03  0.7546771E-02  0.1173290E+00
          2   -1    0    0  503    0 -0.00000000000E+00  0.00000000000E+00  0.89959552065E+03  0.89959552065E+03  0.00000000000E+00 0. -1.
         21   -1    0    0  501  502  0.00000000000E+00 -0.00000000000E+00 -0.68145002876E+02  0.68145002876E+02  0.00000000000E+00 0.  1.
         24    2    1    2    0    0  0.14022991133E+02  0.13364485723E+01  0.38476136729E+03  0.39294676005E+03  0.78532898226E+02 0.  0.
         23    2    1    2    0    0 -0.12487460471E+02 -0.62799485196E+02  0.13591073545E+03  0.17752281077E+03  0.94566951544E+02 0.  0.
        -13    1    3    3    0    0  0.31766676324E+02 -0.25142685781E+02  0.12913385858E+03  0.13533968304E+03  0.00000000000E+00 0.  1.
         14    1    3    3    0    0 -0.17743685191E+02  0.26479134353E+02  0.25562750871E+03  0.25760707701E+03  0.00000000000E+00 0. -1.
        -11    1    4    4    0    0  0.53674295833E+01  0.24174558020E+02  0.22226503733E+02  0.33275156258E+02  0.00000000000E+00 0.  1.
         11    1    4    4    0    0 -0.17854890054E+02 -0.86974043215E+02  0.11368423172E+03  0.14424765452E+03  0.00000000000E+00 0. -1.
         21    1    1    2  503  502  0.62129482752E+02 -0.22225758853E+02 -0.32898141628E+01  0.66067237424E+02  0.00000000000E+00 0.  1.
          1    1    1    2  501    0 -0.63665013414E+02  0.83688795476E+02  0.31406822920E+03  0.33120371528E+03  0.00000000000E+00 0. -1.
<scales pt_clust_5="13000.00000" pt_clust_6="13000.00000" pt_clust_7="13000.00000" pt_clust_8="13000.00000" pt_clust_9="65.98528" pt_clust_10="13000.00000"></scales>
<clustering>
<clus scale="   65.985">  2  9  1 -1</clus>
<clus scale="   78.533">  5  6 -1 -1</clus>
<clus scale="   81.467">  1  5  2 -1</clus>
<clus scale="   94.567">  7  8 -1 -1</clus>
<clus scale="   85.349">  7 10 -1 -1</clus>
<clus scale="   65.985">  2  5  1 -1</clus>
</clustering>
</event>
<event>
10    4  0.2866397E-005  0.1482774E+03  0.7546771E-02  0.1219377E+00
         21   -1    0    0  503  502  0.00000000000E+00  0.00000000000E+00  0.16092949837E+03  0.16092949837E+03  0.00000000000E+00 0. -1.
          2   -1    0    0  502    0 -0.00000000000E+00 -0.00000000000E+00 -0.66307437580E+03  0.66307437580E+03  0.00000000000E+00 0. -1.
         24    2    1    2    0    0  0.28122627778E+02 -0.62292936617E+02 -0.30473662244E+03  0.32124254871E+03  0.75240108341E+02 0.  0.
         23    2    1    2    0    0  0.25081544483E+02  0.66023955094E+02 -0.22797563344E+03  0.25445760598E+03  0.88247024199E+02 0.  0.
        -13    1    3    3    0    0 -0.22021348511E+02 -0.41956800620E+01 -0.43083188852E+02  0.48566497538E+02  0.00000000000E+00 0.  1.
         14    1    3    3    0    0  0.50143976289E+02 -0.58097256555E+02 -0.26165343359E+03  0.27267605118E+03  0.00000000000E+00 0. -1.
        -11    1    4    4    0    0  0.54821955570E+01  0.84789500880E+02 -0.15784426331E+03  0.17925993804E+03  0.00000000000E+00 0. -1.
         11    1    4    4    0    0  0.19599348926E+02 -0.18765545787E+02 -0.70131370136E+02  0.75197667944E+02  0.00000000000E+00 0.  1.
         21    1    1    2  503  501 -0.17169087315E+02 -0.16458327487E+02  0.13500993717E+03  0.13708879326E+03  0.00000000000E+00 0. -1.
          1    1    1    2  501    0 -0.36035084946E+02  0.12727309010E+02 -0.10444255871E+03  0.11121492621E+03  0.00000000000E+00 0. -1.
<scales pt_clust_5="13000.00000" pt_clust_6="13000.00000" pt_clust_7="13000.00000" pt_clust_8="13000.00000" pt_clust_9="23.78348" pt_clust_10="13000.00000"></scales>
<clustering>
<clus scale="   23.783">  1  9  2 -1</clus>
<clus scale="   75.240">  5  6 -1 -1</clus>
<clus scale="   88.247">  7  8 -1 -1</clus>
<clus scale="   39.779">  7 10 -1 -1</clus>
<clus scale="  103.704">  2  5  1 -1</clus>
<clus scale="   23.783">  1  5  2 -1</clus>
</clustering>
</event>
<event>
10    4  0.2866397E-005  0.2538379E+03  0.7546771E-02  0.1133615E+00
         -3   -1    0    0    0  501 -0.00000000000E+00  0.00000000000E+00  0.13996015243E+04  0.13996015243E+04  0.00000000000E+00 0.  1.
         21   -1    0    0  501  502  0.00000000000E+00 -0.00000000000E+00 -0.54761373685E+02  0.54761373685E+02  0.00000000000E+00 0.  1.
         24    2    1    2    0    0  0.97006401367E+02  0.74862424171E+02  0.61657412648E+03  0.63380252382E+03  0.80792086864E+02 0.  0.
         23    2    1    2    0    0  0.67462561132E+01 -0.12967580288E+03  0.45739892001E+03  0.48344095928E+03  0.87407455361E+02 0.  0.
        -13    1    3    3    0    0  0.98512265498E+02  0.88873876034E+02  0.55846975975E+03  0.57401368002E+03  0.00000000000E+00 0.  1.
         14    1    3    3    0    0 -0.15058641315E+01 -0.14011451863E+02  0.58104366729E+02  0.59788843801E+02  0.00000000000E+00 0. -1.
        -13    1    4    4    0    0  0.23360396165E+02 -0.30113079649E+01  0.12776720552E+03  0.12992010965E+03  0.00000000000E+00 0. -1.
         13    1    4    4    0    0 -0.16614140052E+02 -0.12666449492E+03  0.32963171449E+03  0.35352084963E+03  0.00000000000E+00 0.  1.
         21    1    1    2  503  502 -0.21107618583E+02  0.91983908693E+01 -0.20508534058E+02  0.30834103296E+02  0.00000000000E+00 0.  1.
         -4    1    1    2    0  503 -0.82645038897E+02  0.45614987842E+02  0.29137563817E+03  0.30628531158E+03  0.00000000000E+00 0.  1.
<scales pt_clust_5="13000.00000" pt_clust_6="13000.00000" pt_clust_7="13000.00000" pt_clust_8="13000.00000" pt_clust_9="23.02481" pt_clust_10="13000.00000"></scales>
<clustering>
<clus scale="   23.025">  2  9  1 -1</clus>
<clus scale="   80.792">  5  6 -1 -1</clus>
<clus scale="   87.407">  7  8 -1 -1</clus>
<clus scale="  100.274">  7 10 -1 -1</clus>
<clus scale="  144.165">  1  5  2 -1</clus>
<clus scale="   23.025">  2  5  1 -1</clus>
</clustering>
</event>
<event>
10    4  0.2866397E-005  0.2978289E+03  0.7546771E-02  0.1135068E+00
          2   -1    0    0  503    0 -0.00000000000E+00  0.00000000000E+00  0.10938890607E+04  0.10938890607E+04  0.00000000000E+00 0. -1.
         21   -1    0    0  501  502  0.00000000000E+00 -0.00000000000E+00 -0.69416468976E+02  0.69416468976E+02  0.00000000000E+00 0. -1.
         24    2    1    2    0    0  0.26918556737E+02 -0.16298525555E+02  0.23777482665E+03  0.25290064411E+03  0.80197362616E+02 0.  0.
         23    2    1    2    0    0 -0.38726783204E+02 -0.12872658680E+03  0.27196136970E+03  0.31826568618E+03  0.96227659788E+02 0.  0.
        -11    1    3    3    0    0  0.39032259120E+02  0.15772653172E+02  0.18669573980E+03  0.19138336683E+03  0.00000000000E+00 0.  1.
         12    1    3    3    0    0 -0.12113702382E+02 -0.32071178727E+02  0.51079086847E+02  0.61517277276E+02  0.00000000000E+00 0. -1.
        -13    1    4    4    0    0  0.22497663751E+02 -0.42322208739E+02  0.37023693408E+02  0.60564577935E+02  0.00000000000E+00 0.  1.
         13    1    4    4    0    0 -0.61224446955E+02 -0.86404378057E+02  0.23493767629E+03  0.25770110825E+03  0.00000000000E+00 0. -1.
         21    1    1    2  503  502  0.11687580688E+03  0.68912282179E+02  0.13730823919E+03  0.19303473630E+03  0.00000000000E+00 0. -1.
          1    1    1    2  501    0 -0.10506758042E+03  0.76112830173E+02  0.37742815622E+03  0.39910446311E+03  0.00000000000E+00 0. -1.
<scales pt_clust_5="13000.00000" pt_clust_6="13000.00000" pt_clust_7="13000.00000" pt_clust_8="13000.00000" pt_clust_9="138.68641" pt_clust_10="13000.00000"></scales>
<clustering>
<clus scale="   80.197">  5  6 -1 -1</clus>
<clus scale="   86.150">  1  5  2 -1</clus>
<clus scale="   96.228">  7  8 -1 -1</clus>
<clus scale="  115.396">  7 10 -1 -1</clus>
<clus scale="  138.686">  2  9  1 -1</clus>
<clus scale="  138.686">  2  5  1 -1</clus>
</clustering>
</event>
<event>
10    4  0.2866397E-005  0.7532359E+03  0.7546771E-02  0.1016880E+00
          2   -1    0    0  502    0 -0.00000000000E+00  0.00000000000E+00  0.29677847629E+04  0.29677847629E+04  0.00000000000E+00 0. -1.
         21   -1    0    0  503  502  0.00000000000E+00 -0.00000000000E+00 -0.73888035563E+02  0.73888035563E+02  0.00000000000E+00 0. -1.
         24    2    1    2    0    0  0.85012201587E+02 -0.20975490371E+02  0.34138158825E+03  0.36515038644E+03  0.95532038112E+02 0.  0.
         23    2    1    2    0    0 -0.12214278483E+03 -0.33129502398E+03  0.94900993148E+03  0.10166048336E+04  0.90500192104E+02 0.  0.
        -13    1    3    3    0    0  0.95106221413E+01 -0.44022302599E+02  0.17925863515E+03  0.18482984969E+03  0.00000000000E+00 0.  1.
         14    1    3    3    0    0  0.75501579446E+02  0.23046812228E+02  0.16212295310E+03  0.18032053675E+03  0.00000000000E+00 0. -1.
        -13    1    4    4    0    0 -0.13200820665E+03 -0.27300050385E+03  0.83128769582E+03  0.88486986328E+03  0.00000000000E+00 0. -1.
         13    1    4    4    0    0  0.98654218231E+01 -0.58294520132E+02  0.11772223566E+03  0.13173497028E+03  0.00000000000E+00 0.  1.
         21    1    1    2  503  501  0.24219812419E+02 -0.19778201400E+02  0.31314759153E+02  0.44253708376E+02  0.00000000000E+00 0. -1.
          1    1    1    2  501    0  0.12910770824E+02  0.37204871575E+03  0.15721904485E+04  0.16156638701E+04  0.00000000000E+00 0. -1.
<scales pt_clust_5="13000.00000" pt_clust_6="13000.00000" pt_clust_7="13000.00000" pt_clust_8="13000.00000" pt_clust_9="31.26942" pt_clust_10="13000.00000"></scales>
<clustering>
<clus scale="   31.269">  2  9  1 -1</clus>
<clus scale="   90.500">  7  8 -1 -1</clus>
<clus scale="   95.532">  5  6 -1 -1</clus>
<clus scale="  133.026">  1  5  2 -1</clus>
<clus scale="  358.764">  7 10 -1 -1</clus>
<clus scale="   31.269">  2  5  1 -1</clus>
</clustering>
</event>
<event>
10    4  0.2866397E-005  0.2639390E+03  0.7546771E-02  0.1144246E+00
          2   -1    0    0  502    0 -0.00000000000E+00  0.00000000000E+00  0.50886721121E+03  0.50886721121E+03  0.00000000000E+00 0. -1.
         21   -1    0    0  503  502  0.00000000000E+00 -0.00000000000E+00 -0.19928932571E+03  0.19928932571E+03  0.00000000000E+00 0. -1.
         24    2    1    2    0    0 -0.42176934155E+02  0.46071774743E+02  0.18028581863E+03  0.20649546512E+03  0.78967705522E+02 0.  0.
         23    2    1    2    0    0 -0.76877613915E+02 -0.98942687613E+02  0.99908805233E+02  0.18507254573E+03  0.92575671038E+02 0.  0.
        -11    1    3    3    0    0 -0.41449133559E+02  0.13595861329E+01  0.34311689484E+02  0.53825376751E+02  0.00000000000E+00 0.  1.
         12    1    3    3    0    0 -0.72780059659E+00  0.44712188610E+02  0.14597412914E+03  0.15267008837E+03  0.00000000000E+00 0. -1.
        -13    1    4    4    0    0 -0.34483109240E+02 -0.21617437800E+01  0.65321822631E+02  0.73896538964E+02  0.00000000000E+00 0.  1.
         13    1    4    4    0    0 -0.42394504675E+02 -0.96780943833E+02  0.34586982602E+02  0.11117600677E+03  0.00000000000E+00 0. -1.
         21    1    1    2  503  501  0.34615423731E+02  0.11866801301E+02 -0.12811533167E+03  0.13323883346E+03  0.00000000000E+00 0. -1.
          1    1    1    2  501    0  0.84439124339E+02  0.41004111569E+02  0.15749859330E+03  0.18334969260E+03  0.00000000000E+00 0. -1.
<scales pt_clust_5="13000.00000" pt_clust_6="13000.00000" pt_clust_7="13000.00000" pt_clust_8="13000.00000" pt_clust_9="36.59301" pt_clust_10="13000.00000"></scales>
<clustering>
<clus scale="   36.593">  2  9  1 -1</clus>
<clus scale="   78.968">  5  6 -1 -1</clus>
<clus scale="   92.576">  7  8 -1 -1</clus>
<clus scale="   99.184">  1  5  2 -1</clus>
<clus scale="  100.523">  7 10 -1 -1</clus>
<clus scale="   36.593">  2  5  1 -1</clus>
</clustering>
</event>
<event>
10    4  0.2866397E-005  0.1475533E+03  0.7546771E-02  0.1243206E+00
         -1   -1    0    0    0  501 -0.00000000000E+00  0.00000000000E+00  0.21958717266E+03  0.21958717266E+03  0.00000000000E+00 0.  1.
         21   -1    0    0  501  502  0.00000000000E+00 -0.00000000000E+00 -0.17694750859E+03  0.17694750859E+03  0.00000000000E+00 0.  1.
         24    2    1    2    0    0 -0.27021583639E+02 -0.10597828482E+01  0.10800485513E+02  0.65305239356E+02  0.58453696872E+02 0.  0.
         23    2    1    2    0    0  0.21723334816E+02  0.50999893108E+02  0.99984819026E+02  0.14611943618E+03  0.91000182536E+02 0.  0.
        -13    1    3    3    0    0 -0.35241556728E+02  0.20742611320E+02  0.94206714721E+01  0.41963940425E+02  0.00000000000E+00 0.  1.
         14    1    3    3    0    0  0.82199730889E+01 -0.21802394168E+02  0.13798140406E+01  0.23341298932E+02  0.00000000000E+00 0. -1.
        -13    1    4    4    0    0 -0.30252356155E+01  0.73221817417E+02  0.67871888422E+02  0.99885834003E+02  0.00000000000E+00 0. -1.
         13    1    4    4    0    0  0.24748570431E+02 -0.22221924309E+02  0.32112930604E+02  0.46233602178E+02  0.00000000000E+00 0.  1.
         21    1    1    2  503  502  0.41185167281E+02 -0.55971443644E+02 -0.10971001366E+03  0.12986649916E+03  0.00000000000E+00 0.  1.
         -2    1    1    2    0  503 -0.35886918457E+02  0.60313333837E+01  0.41564373188E+02  0.55243506562E+02  0.00000000000E+00 0.  1.
<scales pt_clust_5="13000.00000" pt_clust_6="13000.00000" pt_clust_7="13000.00000" pt_clust_8="13000.00000" pt_clust_9="68.66070" pt_clust_10="13000.00000"></scales>
<clustering>
<clus scale="   58.454">  5  6 -1 -1</clus>
<clus scale="   64.406">  1  5  2 -1</clus>
<clus scale="   68.661">  2  9  1 -1</clus>
<clus scale="   91.000">  7  8 -1 -1</clus>
<clus scale="   33.519">  7 10 -1 -1</clus>
<clus scale="   68.661">  2  5  1 -1</clus>
</clustering>
</event>
<event>
10    4  0.2866397E-005  0.3597748E+03  0.7546771E-02  0.1091165E+00
          2   -1    0    0  503    0 -0.00000000000E+00  0.00000000000E+00  0.77879111811E+03  0.77879111811E+03  0.00000000000E+00 0. -1.
         21   -1    0    0  501  502  0.00000000000E+00 -0.00000000000E+00 -0.13894561824E+03  0.13894561824E+03  0.00000000000E+00 0. -1.
         24    2    1    2    0    0 -0.12726400083E+03  0.81069474945E+02  0.15023458048E+03  0.22751316553E+03  0.80146276537E+02 0.  0.
         23    2    1    2    0    0  0.94428328037E+02 -0.12791281332E+03  0.33989199209E+02  0.18648023579E+03  0.91330256379E+02 0.  0.
        -11    1    3    3    0    0 -0.48900451702E+02  0.18159740280E+02  0.71289917984E+01  0.52648389032E+02  0.00000000000E+00 0.  1.
         12    1    3    3    0    0 -0.78363549127E+02  0.62909734665E+02  0.14310558869E+03  0.17486477650E+03  0.00000000000E+00 0. -1.
        -11    1    4    4    0    0  0.67321484368E+02 -0.13328625305E+03  0.96148537262E+01  0.14963239262E+03  0.00000000000E+00 0.  1.
         11    1    4    4    0    0  0.27106843669E+02  0.53734397325E+01  0.24374345483E+02  0.36847843166E+02  0.00000000000E+00 0. -1.
         21    1    1    2  503  502  0.11840356967E+03  0.18930399395E+02  0.20555265745E+03  0.23796987271E+03  0.00000000000E+00 0. -1.
          1    1    1    2  501    0 -0.85567896880E+02  0.27912938981E+02  0.25006906272E+03  0.26577346231E+03  0.00000000000E+00 0. -1.
<scales pt_clust_5="13000.00000" pt_clust_6="13000.00000" pt_clust_7="13000.00000" pt_clust_8="13000.00000" pt_clust_9="119.90738" pt_clust_10="13000.00000"></scales>
<clustering>
<clus scale="   80.146">  5  6 -1 -1</clus>
<clus scale="   91.330">  7  8 -1 -1</clus>
<clus scale="   90.006">  7 10 -1 -1</clus>
<clus scale="  119.907">  2  9  1 -1</clus>
<clus scale="  148.646">  1  5  2 -1</clus>
<clus scale="  119.907">  2  5  1 -1</clus>
</clustering>
</event>
<event>
10    4  0.2866397E-005  0.2108738E+03  0.7546771E-02  0.1143541E+00
         21   -1    0    0  501  502  0.00000000000E+00  0.00000000000E+00  0.13171566512E+03  0.13171566512E+03  0.00000000000E+00 0. -1.
          2   -1    0    0  503    0 -0.00000000000E+00 -0.00000000000E+00 -0.43092914835E+03  0.43092914835E+03  0.00000000000E+00 0. -1.
         24    2    1    2    0    0  0.10842507020E+03 -0.12031285629E+03 -0.21771036277E+02  0.18174612511E+03  0.79539277940E+02 0.  0.
         23    2    1    2    0    0 -0.98768019010E+02  0.97021059661E+02 -0.17526759124E+03  0.23927127274E+03  0.85812620418E+02 0.  0.
        -11    1    3    3    0    0  0.22458155536E+02 -0.83970502536E+02 -0.14581762480E+02  0.88136495524E+02  0.00000000000E+00 0.  1.
         12    1    3    3    0    0  0.85966914666E+02 -0.36342353754E+02 -0.71892737974E+01  0.93609629587E+02  0.00000000000E+00 0. -1.
        -13    1    4    4    0    0 -0.69457057010E+02  0.15000296602E+02 -0.50779080736E+02  0.87337315662E+02  0.00000000000E+00 0. -1.
         13    1    4    4    0    0 -0.29310962000E+02  0.82020763059E+02 -0.12448851050E+03  0.15193395708E+03  0.00000000000E+00 0.  1.
         21    1    1    2  503  502  0.28176791701E+02 -0.12369438383E+02 -0.46666503865E+01  0.31124142114E+02  0.00000000000E+00 0. -1.
          1    1    1    2  501    0 -0.37833842894E+02  0.35661235012E+02 -0.97508205325E+02  0.11050327351E+03  0.00000000000E+00 0. -1.
<scales pt_clust_5="13000.00000" pt_clust_6="13000.00000" pt_clust_7="13000.00000" pt_clust_8="13000.00000" pt_clust_9="30.77230" pt_clust_10="13000.00000"></scales>
<clustering>
<clus scale="   30.772">  1  9  2 -1</clus>
<clus scale="   79.539">  5  6 -1 -1</clus>
<clus scale="   85.813">  7  8 -1 -1</clus>
<clus scale="   50.405">  7 10 -1 -1</clus>
<clus scale="  197.796">  2  5  1 -1</clus>
<clus scale="   30.772">  1  5  2 -1</clus>
</clustering>
</event>
<event>
10    4  0.2866397E-005  0.2663587E+03  0.7546771E-02  0.1133440E+00
          2   -1    0    0  502    0 -0.00000000000E+00  0.00000000000E+00  0.14973988122E+03  0.14973988122E+03  0.00000000000E+00 0. -1.
         21   -1    0    0  503  502  0.00000000000E+00 -0.00000000000E+00 -0.58149738904E+03  0.58149738904E+03  0.00000000000E+00 0. -1.
         24    2    1    2    0    0  0.76746888268E+02 -0.57483835777E+02 -0.73360543210E+02  0.14520465998E+03  0.80673091827E+02 0.  0.
         23    2    1    2    0    0  0.56852779289E+02 -0.69179428019E+02 -0.31128475473E+02  0.12981026745E+03  0.88677459228E+02 0.  0.
        -13    1    3    3    0    0 -0.10783671998E+02 -0.26423182438E+02 -0.30236489183E+01  0.28698686463E+02  0.00000000000E+00 0.  1.
         14    1    3    3    0    0  0.87530560266E+02 -0.31060653339E+02 -0.70336894292E+02  0.11650597352E+03  0.00000000000E+00 0. -1.
        -11    1    4    4    0    0  0.14932582740E+02 -0.76232660544E+02 -0.38447589643E+02  0.86675358149E+02  0.00000000000E+00 0. -1.
         11    1    4    4    0    0  0.41920196549E+02  0.70532325252E+01  0.73191141705E+01  0.43134909296E+02  0.00000000000E+00 0.  1.
         21    1    1    2  503  501 -0.17415638236E+03  0.22342622341E+02 -0.28857747157E+03  0.33779667758E+03  0.00000000000E+00 0. -1.
          1    1    1    2  501    0  0.40556714800E+02  0.10432064146E+03 -0.38691017573E+02  0.11842566525E+03  0.00000000000E+00 0. -1.
<scales pt_clust_5="13000.00000" pt_clust_6="13000.00000" pt_clust_7="13000.00000" pt_clust_8="13000.00000" pt_clust_9="157.87379" pt_clust_10="13000.00000"></scales>
<clustering>
<clus scale="   80.673">  5  6 -1 -1</clus>
<clus scale="   88.677">  7  8 -1 -1</clus>
<clus scale="  111.927">  7 10 -1 -1</clus>
<clus scale="  125.310">  1  5  2 -1</clus>
<clus scale="  157.874">  2  9  1 -1</clus>
<clus scale="  157.874">  2  5  1 -1</clus>
</clustering>
</event>
<event>
10    4  0.2866397E-005  0.4987746E+03  0.7546771E-02  0.1074744E+00
         21   -1    0    0  503  502  0.00000000000E+00  0.00000000000E+00  0.23570048531E+03  0.23570048531E+03  0.00000000000E+00 0.  1.
          2   -1    0    0  502    0 -0.00000000000E+00 -0.00000000000E+00 -0.41684491752E+03  0.41684491752E+03  0.00000000000E+00 0. -1.
         24    2    1    2    0    0 -0.28317269394E+02 -0.33082128788E+02 -0.86127535690E+01  0.89963522262E+02  0.78249350302E+02 0.  0.
         23    2    1    2    0    0 -0.14600573041E+03 -0.17231399263E+03 -0.18238055314E+02  0.24497734753E+03  0.93120828881E+02 0.  0.
        -13    1    3    3    0    0  0.17944599566E+02 -0.34654339577E+02 -0.17600992416E+02  0.42810359017E+02  0.00000000000E+00 0.  1.
         14    1    3    3    0    0 -0.46261868960E+02  0.15722107892E+01  0.89882388474E+01  0.47153163245E+02  0.00000000000E+00 0. -1.
        -13    1    4    4    0    0 -0.70693431738E+02 -0.11786694628E+03  0.29393438057E+02  0.14054946644E+03  0.00000000000E+00 0.  1.
         13    1    4    4    0    0 -0.75312298672E+02 -0.54447046351E+02 -0.47631493371E+02  0.10442788109E+03  0.00000000000E+00 0. -1.
         21    1    1    2  503  501  0.28607731815E+02  0.20823957489E+02  0.16748087930E+01  0.35423784519E+02  0.00000000000E+00 0.  1.
          1    1    1    2  501    0  0.14571526799E+03  0.18457216393E+03 -0.15596843211E+03  0.28218074852E+03  0.00000000000E+00 0. -1.
<scales pt_clust_5="13000.00000" pt_clust_6="13000.00000" pt_clust_7="13000.00000" pt_clust_8="13000.00000" pt_clust_9="35.38417" pt_clust_10="13000.00000"></scales>
<clustering>
<clus scale="   35.384">  1  9  2 -1</clus>
<clus scale="   78.249">  5  6 -1 -1</clus>
<clus scale="   86.612">  2  5  1 -1</clus>
<clus scale="   93.121">  7  8 -1 -1</clus>
<clus scale="  220.583">  7 10 -1 -1</clus>
<clus scale="   35.384">  1  5  2 -1</clus>
</clustering>
</event>
<event>
10    4  0.2866397E-005  0.7808065E+03  0.7546771E-02  0.9944217E-01
         21   -1    0    0  501  502  0.00000000000E+00  0.00000000000E+00  0.18066100445E+03  0.18066100445E+03  0.00000000000E+00 0. -1.
          2   -1    0    0  503    0 -0.00000000000E+00 -0.00000000000E+00 -0.17007584047E+04  0.17007584047E+04  0.00000000000E+00 0. -1.
         24    2    1    2    0    0  0.15566188243E+03 -0.15635254141E+03 -0.54613762465E+03  0.59434376631E+03  0.79381790442E+02 0.  0.
         23    2    1    2    0    0  0.17991883587E+03 -0.18135402711E+03 -0.32423777972E+03  0.42273541050E+03  0.91186725154E+02 0.  0.
        -13    1    3    3    0    0  0.50579480222E+02 -0.70775975794E+01 -0.99572205754E+02  0.11190621236E+03  0.00000000000E+00 0.  1.
         14    1    3    3    0    0  0.10508240221E+03 -0.14927494383E+03 -0.44656541890E+03  0.48243755395E+03  0.00000000000E+00 0. -1.
        -13    1    4    4    0    0  0.10577356398E+03 -0.84937916793E+02 -0.23692231452E+03  0.27301040212E+03  0.00000000000E+00 0.  1.
         13    1    4    4    0    0  0.74145271896E+02 -0.96416110321E+02 -0.87315465199E+02  0.14972500839E+03  0.00000000000E+00 0. -1.
         21    1    1    2  503  502  0.21430142658E+02 -0.42739860853E+02 -0.65117051217E+02  0.80784757717E+02  0.00000000000E+00 0. -1.
          1    1    1    2  501    0 -0.35701086096E+03  0.38044642938E+03 -0.58460494463E+03  0.78355547458E+03  0.00000000000E+00 0. -1.
<scales pt_clust_5="13000.00000" pt_clust_6="13000.00000" pt_clust_7="13000.00000" pt_clust_8="13000.00000" pt_clust_9="47.81158" pt_clust_10="13000.00000"></scales>
<clustering>
<clus scale="   47.812">  1  9  2 -1</clus>
<clus scale="   79.382">  5  6 -1 -1</clus>
<clus scale="   91.187">  7  8 -1 -1</clus>
<clus scale="  240.452">  2  5  1 -1</clus>
<clus scale="  361.358">  7 10 -1 -1</clus>
<clus scale="   47.812">  1  5  2 -1</clus>
</clustering>
</event>
<event>
10    4  0.2866397E-005  0.4005940E+03  0.7546771E-02  0.1084525E+00
         21   -1    0    0  503  502  0.00000000000E+00  0.00000000000E+00  0.19320169727E+03  0.19320169727E+03  0.00000000000E+00 0. -1.
          2   -1    0    0  502    0 -0.00000000000E+00 -0.00000000000E+00 -0.22963930929E+04  0.22963930929E+04  0.00000000000E+00 0. -1.
         24    2    1    2    0    0 -0.77477131898E+02  0.64322503173E+02 -0.46495219417E+03  0.48261529379E+03  0.81221232193E+02 0.  0.
         23    2    1    2    0    0 -0.89679738162E+02 -0.13743090664E+03 -0.10767059262E+04  0.10932979598E+04  0.95263150482E+02 0.  0.
        -13    1    3    3    0    0 -0.38112397175E+02  0.41230387101E+01 -0.59136886111E+02  0.70474999578E+02  0.00000000000E+00 0.  1.
         14    1    3    3    0    0 -0.39364734723E+02  0.60199464463E+02 -0.40581530806E+03  0.41214029422E+03  0.00000000000E+00 0. -1.
        -11    1    4    4    0    0 -0.22267633117E+02 -0.11729861491E+03 -0.67530536238E+03  0.68577849558E+03  0.00000000000E+00 0. -1.
         11    1    4    4    0    0 -0.67412105045E+02 -0.20132291736E+02 -0.40140056386E+03  0.40751946425E+03  0.00000000000E+00 0.  1.
         21    1    1    2  503  501 -0.10589532152E+02 -0.20525934927E+02  0.16155781374E+03  0.16320042701E+03  0.00000000000E+00 0. -1.
          1    1    1    2  501    0  0.17774640221E+03  0.93634338398E+02 -0.72309108895E+03  0.75048110952E+03  0.00000000000E+00 0. -1.
<scales pt_clust_5="13000.00000" pt_clust_6="13000.00000" pt_clust_7="13000.00000" pt_clust_8="13000.00000" pt_clust_9="23.09658" pt_clust_10="13000.00000"></scales>
<clustering>
<clus scale="   23.097">  1  9  2 -1</clus>
<clus scale="   81.221">  5  6 -1 -1</clus>
<clus scale="   95.263">  7  8 -1 -1</clus>
<clus scale="  128.430">  2  5  1 -1</clus>
<clus scale="  178.244">  7 10 -1 -1</clus>
<clus scale="   23.097">  1  5  2 -1</clus>
</clustering>
</event>
<event>
10    4  0.2866397E-005  0.3536085E+03  0.7546771E-02  0.1105446E+00
          2   -1    0    0  502    0 -0.00000000000E+00  0.00000000000E+00  0.11467469184E+03  0.11467469184E+03  0.00000000000E+00 0. -1.
         21   -1    0    0  503  502  0.00000000000E+00 -0.00000000000E+00 -0.10774348009E+04  0.10774348009E+04  0.00000000000E+00 0. -1.
         24    2    1    2    0    0  0.71571253892E+02 -0.62441905454E+00 -0.42829119958E+02  0.11613719854E+03  0.80812629487E+02 0.  0.
         23    2    1    2    0    0  0.10398182806E+03 -0.50983663739E+02 -0.26144154511E+03  0.30014671036E+03  0.91240406043E+02 0.  0.
        -11    1    3    3    0    0  0.20208103248E+02 -0.36143840476E+02 -0.18636826241E+01  0.41451392669E+02  0.00000000000E+00 0.  1.
         12    1    3    3    0    0  0.51363150644E+02  0.35519421421E+02 -0.40965437334E+02  0.74685805868E+02  0.00000000000E+00 0. -1.
        -11    1    4    4    0    0  0.38842606003E+01  0.22566429711E+02 -0.33902812667E+02  0.40911269071E+02  0.00000000000E+00 0.  1.
         11    1    4    4    0    0  0.10009756746E+03 -0.73550093450E+02 -0.22753873244E+03  0.25923544129E+03  0.00000000000E+00 0. -1.
         21    1    1    2  503  501 -0.78957961763E+02 -0.86299867967E+02 -0.57706116114E+03  0.58879674815E+03  0.00000000000E+00 0. -1.
          1    1    1    2  501    0 -0.96595120187E+02  0.13790795076E+03 -0.81428282829E+02  0.18702883567E+03  0.00000000000E+00 0. -1.
<scales pt_clust_5="13000.00000" pt_clust_6="13000.00000" pt_clust_7="13000.00000" pt_clust_8="13000.00000" pt_clust_9="113.44200" pt_clust_10="13000.00000"></scales>
<clustering>
<clus scale="   80.813">  5  6 -1 -1</clus>
<clus scale="   91.240">  7  8 -1 -1</clus>
<clus scale="  107.951">  1  5  2 -1</clus>
<clus scale="  113.442">  2  9  1 -1</clus>
<clus scale="  131.615">  7 10 -1 -1</clus>
<clus scale="  113.442">  2  5  1 -1</clus>
</clustering>
</event>
<event>
10    4  0.2866397E-005  0.3369043E+03  0.7546771E-02  0.1105829E+00
          2   -1    0    0  502    0 -0.00000000000E+00  0.00000000000E+00  0.71090675558E+03  0.71090675558E+03  0.00000000000E+00 0. -1.
         21   -1    0    0  503  502  0.00000000000E+00 -0.00000000000E+00 -0.10007669594E+03  0.10007669594E+03  0.00000000000E+00 0.  1.
         24    2    1    2    0    0  0.70674571622E+02 -0.42876731562E+02  0.12142453706E+03  0.16700438170E+03  0.79455875318E+02 0.  0.
         23    2    1    2    0    0  0.91118098836E+02  0.21968161390E+02  0.20680527685E+03  0.24478435582E+03  0.91465022116E+02 0.  0.
        -11    1    3    3    0    0 -0.14748978531E+02 -0.20757991513E+02  0.18755724866E+02  0.31625998713E+02  0.00000000000E+00 0.  1.
         12    1    3    3    0    0  0.85423550153E+02 -0.22118740049E+02  0.10266881220E+03  0.13537838299E+03  0.00000000000E+00 0. -1.
        -11    1    4    4    0    0  0.58378363960E+02  0.11495608199E+02  0.20137879889E+03  0.20998476857E+03  0.00000000000E+00 0.  1.
         11    1    4    4    0    0  0.32739734876E+02  0.10472553191E+02  0.54264779600E+01  0.34799587255E+02  0.00000000000E+00 0. -1.
         21    1    1    2  503  501  0.53158300158E+02  0.10493599417E+02  0.15842458433E+02  0.56452670386E+02  0.00000000000E+00 0. -1.
          1    1    1    2  501    0 -0.21495097062E+03  0.10414970755E+02  0.26675778728E+03  0.34274204361E+03  0.00000000000E+00 0. -1.
<scales pt_clust_5="13000.00000" pt_clust_6="13000.00000" pt_clust_7="13000.00000" pt_clust_8="13000.00000" pt_clust_9="54.18414" pt_clust_10="13000.00000"></scales>
<clustering>
<clus scale="   54.184">  2  9  1 -1</clus>
<clus scale="   79.456">  5  6 -1 -1</clus>
<clus scale="   91.465">  7  8 -1 -1</clus>
<clus scale="  123.595">  1  5  2 -1</clus>
<clus scale="  148.720">  7 10 -1 -1</clus>
<clus scale="   54.184">  2  5  1 -1</clus>
</clustering>
</event>
<event>
10    4  0.2866397E-005  0.2442028E+03  0.7546771E-02  0.1161784E+00
          2   -1    0    0  502    0 -0.00000000000E+00  0.00000000000E+00  0.55029280958E+03  0.55029280958E+03  0.00000000000E+00 0. -1.
         21   -1    0    0  503  502  0.00000000000E+00 -0.00000000000E+00 -0.72063908046E+02  0.72063908046E+02  0.00000000000E+00 0.  1.
         24    2    1    2    0    0 -0.10802773007E+02 -0.10811182430E+02  0.13681395446E+03  0.15980297891E+03  0.81150183993E+02 0.  0.
         23    2    1    2    0    0  0.17780292216E+02  0.86567894590E+02  0.80793683150E+02  0.15088476607E+03  0.91806613220E+02 0.  0.
        -13    1    3    3    0    0 -0.28111662879E+02 -0.39840480849E+02  0.82485282080E+02  0.95819367895E+02  0.00000000000E+00 0.  1.
         14    1    3    3    0    0  0.17308889872E+02  0.29029298420E+02  0.54328672380E+02  0.63983611010E+02  0.00000000000E+00 0. -1.
        -13    1    4    4    0    0  0.55337831397E+02  0.44383593439E+02  0.43948308953E+02  0.83448384107E+02  0.00000000000E+00 0. -1.
         13    1    4    4    0    0 -0.37557539181E+02  0.42184301151E+02  0.36845374197E+02  0.67436381966E+02  0.00000000000E+00 0.  1.
         21    1    1    2  503  501  0.21367424890E+02 -0.20423006572E+02 -0.12109138750E+02  0.31942092686E+02  0.00000000000E+00 0.  1.
          1    1    1    2  501    0 -0.28344944098E+02 -0.55333705588E+02  0.27273040267E+03  0.27972687996E+03  0.00000000000E+00 0. -1.
<scales pt_clust_5="13000.00000" pt_clust_6="13000.00000" pt_clust_7="13000.00000" pt_clust_8="13000.00000" pt_clust_9="29.55784" pt_clust_10="13000.00000"></scales>
<clustering>
<clus scale="   29.558">  2  9  1 -1</clus>
<clus scale="   81.150">  5  6 -1 -1</clus>
<clus scale="   82.828">  1  5  2 -1</clus>
<clus scale="   91.807">  7  8 -1 -1</clus>
<clus scale="   74.570">  7 10 -1 -1</clus>
<clus scale="   29.558">  2  5  1 -1</clus>
</clustering>
</event>
<event>
10    4  0.2866397E-005  0.2730638E+03  0.7546771E-02  0.1119675E+00
          2   -1    0    0  503    0 -0.00000000000E+00  0.00000000000E+00  0.21730092457E+03  0.21730092457E+03  0.00000000000E+00 0. -1.
         21   -1    0    0  501  502  0.00000000000E+00 -0.00000000000E+00 -0.51759226783E+03  0.51759226783E+03  0.00000000000E+00 0. -1.
         24    2    1    2    0    0 -0.10510244667E+03 -0.95755166949E+02 -0.65767746818E+02  0.17616759203E+03  0.80585654220E+02 0.  0.
         23    2    1    2    0    0  0.52675839241E+02 -0.74038157878E+02  0.74838609099E+02  0.14875943164E+03  0.90951405862E+02 0.  0.
        -13    1    3    3    0    0 -0.55205418348E+02 -0.87494583167E+01  0.60344234573E+00  0.55897722481E+02  0.00000000000E+00 0.  1.
         14    1    3    3    0    0 -0.49897028319E+02 -0.87005708632E+02 -0.66371189163E+02  0.12026986955E+03  0.00000000000E+00 0. -1.
        -11    1    4    4    0    0  0.34252097202E+02 -0.65039924477E+02  0.94923265148E+02  0.12005758704E+03  0.00000000000E+00 0. -1.
         11    1    4    4    0    0  0.18423742039E+02 -0.89982334009E+01 -0.20084656049E+02  0.28701844604E+02  0.00000000000E+00 0.  1.
         21    1    1    2  503  502  0.10214430301E+03  0.18941337489E+03 -0.25606827806E+03  0.33448744110E+03  0.00000000000E+00 0. -1.
          1    1    1    2  501    0 -0.49717695581E+02 -0.19620050064E+02 -0.53293927481E+02  0.75478727631E+02  0.00000000000E+00 0. -1.
<scales pt_clust_5="13000.00000" pt_clust_6="13000.00000" pt_clust_7="13000.00000" pt_clust_8="13000.00000" pt_clust_9="183.10072" pt_clust_10="13000.00000"></scales>
<clustering>
<clus scale="   80.586">  5  6 -1 -1</clus>
<clus scale="   90.951">  7  8 -1 -1</clus>
<clus scale="   53.449">  7 10 -1 -1</clus>
<clus scale="  163.431">  1  5  2 -1</clus>
<clus scale="  183.101">  2  9  1 -1</clus>
<clus scale="  183.101">  2  5  1 -1</clus>
</clustering>
</event>
<event>
10    4  0.2866397E-005  0.3740534E+03  0.7546771E-02  0.1064697E+00
          2   -1    0    0  503    0 -0.00000000000E+00  0.00000000000E+00  0.37086699891E+03  0.37086699891E+03  0.00000000000E+00 0. -1.
         21   -1    0    0  501  502  0.00000000000E+00 -0.00000000000E+00 -0.49900309269E+03  0.49900309269E+03  0.00000000000E+00 0. -1.
         24    2    1    2    0    0  0.15510224714E+03  0.26130573774E+03  0.79197026189E+02  0.32620424456E+03  0.88315596426E+02 0.  0.
         23    2    1    2    0    0  0.52443468615E+02 -0.39187128971E+02 -0.10749539395E+03  0.15508377346E+03  0.90607773367E+02 0.  0.
        -13    1    3    3    0    0  0.51022486544E+02  0.16353406694E+03  0.23440940922E+02  0.17290506903E+03  0.00000000000E+00 0.  1.
         14    1    3    3    0    0  0.10407976060E+03  0.97771670791E+02  0.55756085267E+02  0.15329917553E+03  0.00000000000E+00 0. -1.
        -13    1    4    4    0    0  0.73642434573E+02 -0.36572348399E+02 -0.10531762532E+03  0.13361342388E+03  0.00000000000E+00 0. -1.
         13    1    4    4    0    0 -0.21198965957E+02 -0.26147805724E+01 -0.21777686245E+01  0.21470349585E+02  0.00000000000E+00 0.  1.
         21    1    1    2  503  502 -0.11474964938E+03 -0.78382065700E+02 -0.15561412264E+03  0.20863121871E+03  0.00000000000E+00 0. -1.
          1    1    1    2  501    0 -0.92796066372E+02 -0.14373654306E+03  0.55776396619E+02  0.17995085486E+03  0.00000000000E+00 0. -1.
<scales pt_clust_5="13000.00000" pt_clust_6="13000.00000" pt_clust_7="13000.00000" pt_clust_8="13000.00000" pt_clust_9="138.96485" pt_clust_10="13000.00000"></scales>
<clustering>
<clus scale="   88.316">  5  6 -1 -1</clus>
<clus scale="   90.608">  7  8 -1 -1</clus>
<clus scale="  138.965">  2  9  1 -1</clus>
<clus scale="  196.470">  7 10 -1 -1</clus>
<clus scale="  270.613">  1  5  2 -1</clus>
<clus scale="  138.965">  2  5  1 -1</clus>
</clustering>
</event>
<event>
10    4  0.2866397E-005  0.2322637E+03  0.7546771E-02  0.1170622E+00
          2   -1    0    0  502    0 -0.00000000000E+00  0.00000000000E+00  0.84901434908E+03  0.84901434908E+03  0.00000000000E+00 0. -1.
         21   -1    0    0  503  502  0.00000000000E+00 -0.00000000000E+00 -0.65568110054E+02  0.65568110054E+02  0.00000000000E+00 0.  1.
         24    2    1    2    0    0 -0.29660611883E+01  0.54463299902E+01  0.45271602007E+03  0.45950041089E+03  0.78424312283E+02 0.  0.
         23    2    1    2    0    0  0.82519199710E+02 -0.25050593549E+02  0.15077513649E+03  0.19903168482E+03  0.97177771226E+02 0.  0.
        -13    1    3    3    0    0  0.26403172702E+02 -0.24312918983E+02  0.17374542210E+03  0.17741397144E+03  0.00000000000E+00 0.  1.
         14    1    3    3    0    0 -0.29369233890E+02  0.29759248974E+02  0.27897059796E+03  0.28208643946E+03  0.00000000000E+00 0. -1.
        -11    1    4    4    0    0  0.28248788388E+02 -0.46522018217E+02  0.24032315902E+02  0.59496591768E+02  0.00000000000E+00 0.  1.
         11    1    4    4    0    0  0.54270411322E+02  0.21471424668E+02  0.12674282059E+03  0.13953509305E+03  0.00000000000E+00 0. -1.
         21    1    1    2  503  501  0.73631931621E+01 -0.20595999676E+02 -0.22937017953E+02  0.31694141553E+02  0.00000000000E+00 0.  1.
          1    1    1    2  501    0 -0.86916331684E+02  0.40200263235E+02  0.20289210043E+03  0.22435622187E+03  0.00000000000E+00 0. -1.
<scales pt_clust_5="13000.00000" pt_clust_6="13000.00000" pt_clust_7="13000.00000" pt_clust_8="13000.00000" pt_clust_9="21.87263" pt_clust_10="13000.00000"></scales>
<clustering>
<clus scale="   21.873">  2  9  1 -1</clus>
<clus scale="   78.424">  5  6 -1 -1</clus>
<clus scale="   78.542">  1  5  2 -1</clus>
<clus scale="   97.178">  7  8 -1 -1</clus>
<clus scale="   93.333">  7 10 -1 -1</clus>
<clus scale="   21.873">  2  5  1 -1</clus>
</clustering>
</event>
<event>
10    4  0.2866397E-005  0.2805067E+03  0.7546771E-02  0.1139929E+00
         21   -1    0    0  503  502  0.00000000000E+00  0.00000000000E+00  0.23734285054E+03  0.23734285054E+03  0.00000000000E+00 0. -1.
          2   -1    0    0  502    0 -0.00000000000E+00 -0.00000000000E+00 -0.49464934961E+03  0.49464934961E+03  0.00000000000E+00 0. -1.
         24    2    1    2    0    0  0.23096765242E+02 -0.37054868725E+02 -0.12706949725E+03  0.15626294349E+03  0.79780489583E+02 0.  0.
         23    2    1    2    0    0  0.13252192929E+02 -0.81269163872E+02 -0.35771048772E+02  0.12667058860E+03  0.89362030372E+02 0.  0.
        -11    1    3    3    0    0  0.17114037932E+02 -0.46490849388E+02 -0.13417052410E+03  0.14302453953E+03  0.00000000000E+00 0.  1.
         12    1    3    3    0    0  0.59827273096E+01  0.94359806634E+01  0.71010268520E+01  0.13238403963E+02  0.00000000000E+00 0. -1.
        -13    1    4    4    0    0  0.48534804025E+02 -0.27674375520E+02 -0.68520775725E+01  0.56288979643E+02  0.00000000000E+00 0.  1.
         13    1    4    4    0    0 -0.35282611096E+02 -0.53594788352E+02 -0.28918971199E+02  0.70381608958E+02  0.00000000000E+00 0. -1.
         21    1    1    2  503  501  0.53695436762E+02  0.35584045519E+02  0.15685456719E+03  0.16956644560E+03  0.00000000000E+00 0. -1.
          1    1    1    2  501    0 -0.90044394932E+02  0.82739987078E+02 -0.25132052024E+03  0.27949222246E+03  0.00000000000E+00 0. -1.
<scales pt_clust_5="13000.00000" pt_clust_6="13000.00000" pt_clust_7="13000.00000" pt_clust_8="13000.00000" pt_clust_9="64.41602" pt_clust_10="13000.00000"></scales>
<clustering>
<clus scale="   64.416">  1  9  2 -1</clus>
<clus scale="   79.780">  5  6 -1 -1</clus>
<clus scale="   89.362">  7  8 -1 -1</clus>
<clus scale="   91.659">  2  5  1 -1</clus>
<clus scale="   86.707">  7 10 -1 -1</clus>
<clus scale="   64.416">  1  5  2 -1</clus>
</clustering>
</event>
<event>
10    4  0.2866397E-005  0.3217168E+03  0.7546771E-02  0.1111973E+00
         -1   -1    0    0    0  501 -0.00000000000E+00  0.00000000000E+00  0.39411247546E+03  0.39411247546E+03  0.00000000000E+00 0.  1.
         21   -1    0    0  503  502  0.00000000000E+00 -0.00000000000E+00 -0.33131359364E+03  0.33131359364E+03  0.00000000000E+00 0.  1.
         24    2    1    2    0    0  0.29699620820E+02  0.91914574798E+02  0.21322815007E+03  0.24760854646E+03  0.80705586943E+02 0.  0.
         23    2    1    2    0    0 -0.43361120397E+02  0.93861437489E+02 -0.67442307802E+02  0.15225741802E+03  0.89127438265E+02 0.  0.
        -11    1    3    3    0    0 -0.97797131552E+01  0.81972222506E+02  0.11768172163E+03  0.14375004577E+03  0.00000000000E+00 0.  1.
         12    1    3    3    0    0  0.39479333975E+02  0.99423522918E+01  0.95546428432E+02  0.10385850069E+03  0.00000000000E+00 0. -1.
        -11    1    4    4    0    0 -0.25219192702E+02 -0.12811337146E+02 -0.14886514355E+02  0.31964767318E+02  0.00000000000E+00 0. -1.
         11    1    4    4    0    0 -0.18141927695E+02  0.10667277464E+03 -0.52555793447E+02  0.12029265071E+03  0.00000000000E+00 0.  1.
         21    1    1    2  503  501 -0.33497222372E+02 -0.51793686726E+02 -0.15462778302E+03  0.16647642828E+03  0.00000000000E+00 0.  1.
         -2    1    1    2    0  502  0.47158721949E+02 -0.13398232556E+03  0.71640822570E+02  0.15908367634E+03  0.00000000000E+00 0.  1.
<scales pt_clust_5="13000.00000" pt_clust_6="13000.00000" pt_clust_7="13000.00000" pt_clust_8="13000.00000" pt_clust_9="61.68184" pt_clust_10="13000.00000"></scales>
<clustering>
<clus scale="   61.682">  2  9  1 -1</clus>
<clus scale="   80.706">  5  6 -1 -1</clus>
<clus scale="   89.127">  7  8 -1 -1</clus>
<clus scale="  121.341">  1  5  2 -1</clus>
<clus scale="  100.729">  7 10 -1 -1</clus>
<clus scale="   61.682">  2  5  1 -1</clus>
</clustering>
</event>
<event>
10    4  0.2866397E-005  0.3024636E+03  0.7546771E-02  0.1119873E+00
         21   -1    0    0  501  502  0.00000000000E+00  0.00000000000E+00  0.18843247276E+03  0.18843247276E+03  0.00000000000E+00 0. -1.
          2   -1    0    0  503    0 -0.00000000000E+00 -0.00000000000E+00 -0.12193281187E+04  0.12193281187E+04  0.00000000000E+00 0. -1.
         24    2    1    2    0    0 -0.92752573536E+02 -0.37198364091E+02 -0.45100660937E+03  0.46879207493E+03  0.79826622339E+02 0.  0.
         23    2    1    2    0    0 -0.76435107274E+02 -0.50803127039E+02 -0.22780463107E+03  0.26225896571E+03  0.91986584977E+02 0.  0.
        -11    1    3    3    0    0 -0.32193291351E+02  0.19979746269E+02 -0.79546137829E+02  0.88108945700E+02  0.00000000000E+00 0.  1.
         12    1    3    3    0    0 -0.60559282185E+02 -0.57178110360E+02 -0.37146047154E+03  0.38068312923E+03  0.00000000000E+00 0. -1.
        -11    1    4    4    0    0 -0.18683147714E+02 -0.45093675943E+02 -0.18169626717E+03  0.18813833507E+03  0.00000000000E+00 0.  1.
         11    1    4    4    0    0 -0.57751959560E+02 -0.57094510957E+01 -0.46108363902E+02  0.74120630641E+02  0.00000000000E+00 0. -1.
         21    1    1    2  503  502  0.74753681728E+02 -0.43044539770E+02  0.13685928155E+03  0.16177579634E+03  0.00000000000E+00 0. -1.
          1    1    1    2  501    0  0.94433999082E+02  0.13104603090E+03 -0.48894368710E+03  0.51493375452E+03  0.00000000000E+00 0. -1.
<scales pt_clust_5="13000.00000" pt_clust_6="13000.00000" pt_clust_7="13000.00000" pt_clust_8="13000.00000" pt_clust_9="86.26091" pt_clust_10="13000.00000"></scales>
<clustering>
<clus scale="   79.827">  5  6 -1 -1</clus>
<clus scale="   86.261">  1  9  2 -1</clus>
<clus scale="   91.987">  7  8 -1 -1</clus>
<clus scale="  119.662">  2  5  1 -1</clus>
<clus scale="  108.442">  7 10 -1 -1</clus>
<clus scale="   86.261">  1  5  2 -1</clus>
</clustering>
</event>
<event>
10    4  0.2866397E-005  0.4177921E+03  0.7546771E-02  0.1086784E+00
          4   -1    0    0  502    0 -0.00000000000E+00  0.00000000000E+00  0.21934204740E+03  0.21934204740E+03  0.00000000000E+00 0. -1.
         21   -1    0    0  503  502  0.00000000000E+00 -0.00000000000E+00 -0.72953792990E+03  0.72953792990E+03  0.00000000000E+00 0. -1.
         24    2    1    2    0    0  0.48474338538E+02  0.49022296394E+02 -0.38318840121E+01  0.10666679583E+03  0.81302982468E+02 0.  0.
         23    2    1    2    0    0 -0.75761346727E+02  0.98340322000E+02 -0.14676203009E+03  0.21346528899E+03  0.92831759318E+02 0.  0.
        -13    1    3    3    0    0  0.15986683165E+02  0.51547021672E+02  0.28269567444E+02  0.60924854742E+02  0.00000000000E+00 0.  1.
         14    1    3    3    0    0  0.32487655373E+02 -0.25247252780E+01 -0.32101451456E+02  0.45741941093E+02  0.00000000000E+00 0. -1.
        -11    1    4    4    0    0 -0.89153087021E+01  0.42830708130E+02 -0.98749703871E+00  0.43759883896E+02  0.00000000000E+00 0.  1.
         11    1    4    4    0    0 -0.66846038025E+02  0.55509613870E+02 -0.14577453305E+03  0.16970540509E+03  0.00000000000E+00 0. -1.
         21    1    1    2  503  501  0.15586523848E+03  0.93170185334E+02 -0.29826384679E+03  0.34919332511E+03  0.00000000000E+00 0. -1.
          3    1    1    2  501    0 -0.12857823029E+03 -0.24053280373E+03 -0.61338121616E+02  0.27955456737E+03  0.00000000000E+00 0. -1.
<scales pt_clust_5="13000.00000" pt_clust_6="13000.00000" pt_clust_7="13000.00000" pt_clust_8="13000.00000" pt_clust_9="191.73074" pt_clust_10="13000.00000"></scales>
<clustering>
<clus scale="   81.303">  5  6 -1 -1</clus>
<clus scale="   92.832">  7  8 -1 -1</clus>
<clus scale="  106.598">  1  5  2 -1</clus>
<clus scale="  191.731">  2  9  1 -1</clus>
<clus scale="  168.987">  7 10 -1 -1</clus>
<clus scale="  191.731">  2  5  1 -1</clus>
</clustering>
</event>
<event>
10    4  0.2866397E-005  0.2549632E+03  0.7546771E-02  0.1155825E+00
          2   -1    0    0  502    0 -0.00000000000E+00  0.00000000000E+00  0.74776029802E+03  0.74776029802E+03  0.00000000000E+00 0. -1.
         21   -1    0    0  503  502  0.00000000000E+00 -0.00000000000E+00 -0.25430770998E+03  0.25430770998E+03  0.00000000000E+00 0.  1.
         24    2    1    2    0    0 -0.35881512686E+02 -0.18944690050E+02  0.72561228997E+02  0.11766922527E+03  0.83273827748E+02 0.  0.
         23    2    1    2    0    0 -0.76080661660E+02  0.83462405092E+02  0.23882096511E+03  0.27930363848E+03  0.90668787073E+02 0.  0.
        -13    1    3    3    0    0 -0.17125965215E+02 -0.45864772759E+02  0.69088577404E+02  0.84676487837E+02  0.00000000000E+00 0.  1.
         14    1    3    3    0    0 -0.18755547471E+02  0.26920082710E+02  0.34726515933E+01  0.32992737430E+02  0.00000000000E+00 0. -1.
        -13    1    4    4    0    0 -0.15245252477E+02  0.82329513180E+02  0.13010319336E+03  0.15471718516E+03  0.00000000000E+00 0.  1.
         13    1    4    4    0    0 -0.60835409183E+02  0.11328919119E+01  0.10871777176E+03  0.12458645332E+03  0.00000000000E+00 0. -1.
         21    1    1    2  503  501  0.81031080975E+02  0.24572494269E+02 -0.19702277128E+03  0.21444769983E+03  0.00000000000E+00 0.  1.
          1    1    1    2  501    0  0.30931093372E+02 -0.89090209311E+02  0.37909316521E+03  0.39064744443E+03  0.00000000000E+00 0. -1.
<scales pt_clust_5="13000.00000" pt_clust_6="13000.00000" pt_clust_7="13000.00000" pt_clust_8="13000.00000" pt_clust_9="84.67493" pt_clust_10="13000.00000"></scales>
<clustering>
<clus scale="   83.274">  5  6 -1 -1</clus>
<clus scale="   84.675">  2  9  1 -1</clus>
<clus scale="   83.632">  1  5  2 -1</clus>
<clus scale="   90.669">  7  8 -1 -1</clus>
<clus scale="   99.887">  7 10 -1 -1</clus>
<clus scale="   84.675">  2  5  1 -1</clus>
</clustering>
</event>
<event>
10    4  0.2866397E-005  0.2078641E+03  0.7546771E-02  0.1180701E+00
         21   -1    0    0  501  502  0.00000000000E+00  0.00000000000E+00  0.83319688158E+02  0.83319688158E+02  0.00000000000E+00 0. -1.
          2   -1    0    0  503    0 -0.00000000000E+00 -0.00000000000E+00 -0.50115361963E+03  0.50115361963E+03  0.00000000000E+00 0. -1.
         24    2    1    2    0    0 -0.32107039423E+02 -0.32493811329E+02 -0.14502524518E+03  0.17258724180E+03  0.81653686617E+02 0.  0.
         23    2    1    2    0    0 -0.18912287291E+02  0.77141418947E+02 -0.10046149356E+03  0.15658328189E+03  0.90096278242E+02 0.  0.
        -11    1    3    3    0    0 -0.58122220642E+02 -0.28138901868E+02 -0.11976860430E+03  0.13606803044E+03  0.00000000000E+00 0.  1.
         12    1    3    3    0    0  0.26015181218E+02 -0.43549094616E+01 -0.25256640877E+02  0.36519211364E+02  0.00000000000E+00 0. -1.
        -13    1    4    4    0    0  0.29136748710E+02 -0.74683205931E-01 -0.23005945221E+02  0.37124509673E+02  0.00000000000E+00 0.  1.
         13    1    4    4    0    0 -0.48049036001E+02  0.77216102153E+02 -0.77455548334E+02  0.11945877222E+03  0.00000000000E+00 0. -1.
         21    1    1    2  503  502  0.56517401804E+02  0.21623121240E+02  0.98868178939E+01  0.61314967560E+02  0.00000000000E+00 0. -1.
          1    1    1    2  501    0 -0.54980750898E+01 -0.66270728857E+02 -0.18223401063E+03  0.19398781654E+03  0.00000000000E+00 0. -1.
<scales pt_clust_5="13000.00000" pt_clust_6="13000.00000" pt_clust_7="13000.00000" pt_clust_8="13000.00000" pt_clust_9="60.51261" pt_clust_10="13000.00000"></scales>
<clustering>
<clus scale="   60.513">  1  9  2 -1</clus>
<clus scale="   81.654">  5  6 -1 -1</clus>
<clus scale="   87.210">  2  5  1 -1</clus>
<clus scale="   90.096">  7  8 -1 -1</clus>
<clus scale="   77.432">  7 10 -1 -1</clus>
<clus scale="   60.513">  1  5  2 -1</clus>
</clustering>
</event>
<event>
10    4  0.2866397E-005  0.4797274E+03  0.7546771E-02  0.1085341E+00
         21   -1    0    0  501  502  0.00000000000E+00  0.00000000000E+00  0.16416406570E+03  0.16416406570E+03  0.00000000000E+00 0. -1.
          2   -1    0    0  503    0 -0.00000000000E+00 -0.00000000000E+00 -0.12893623294E+04  0.12893623294E+04  0.00000000000E+00 0. -1.
         24    2    1    2    0    0  0.16087948059E+02  0.26538241063E+02 -0.44854628608E+02  0.85825697242E+02  0.66264713747E+02 0.  0.
         23    2    1    2    0    0 -0.21864087867E+03 -0.53507719893E+02 -0.10704295340E+04  0.10976033300E+04  0.90811744189E+02 0.  0.
        -13    1    3    3    0    0 -0.32015039073E+01  0.45750798960E+02 -0.30121489825E+02  0.54869749243E+02  0.00000000000E+00 0.  1.
         14    1    3    3    0    0  0.19289451966E+02 -0.19212557897E+02 -0.14733138783E+02  0.30955947999E+02  0.00000000000E+00 0. -1.
        -13    1    4    4    0    0 -0.18379097154E+03 -0.62815277145E+01 -0.82656456221E+03  0.84677479551E+03  0.00000000000E+00 0. -1.
         13    1    4    4    0    0 -0.34849907128E+02 -0.47226192179E+02 -0.24386497181E+03  0.25082853452E+03  0.00000000000E+00 0.  1.
         21    1    1    2  503  502  0.96147842579E+02 -0.38627850124E+02  0.66941587538E+02  0.12336002018E+03  0.00000000000E+00 0. -1.
          1    1    1    2  501    0  0.10640508803E+03  0.65597328954E+02 -0.76855688622E+02  0.14673734766E+03  0.00000000000E+00 0. -1.
<scales pt_clust_5="13000.00000" pt_clust_6="13000.00000" pt_clust_7="13000.00000" pt_clust_8="13000.00000" pt_clust_9="103.73561" pt_clust_10="13000.00000"></scales>
<clustering>
<clus scale="   66.265">  5  6 -1 -1</clus>
<clus scale="   73.172">  2  5  1 -1</clus>
<clus scale="   90.812">  7  8 -1 -1</clus>
<clus scale="  103.736">  1  9  2 -1</clus>
<clus scale="  170.664">  7 10 -1 -1</clus>
<clus scale="  103.736">  1  5  2 -1</clus>
</clustering>
</event>
<event>
10    4  0.2866397E-005  0.2822863E+03  0.7546771E-02  0.1113849E+00
         21   -1    0    0  501  502  0.00000000000E+00  0.00000000000E+00  0.10756189033E+03  0.10756189033E+03  0.00000000000E+00 0.  1.
          2   -1    0    0  503    0 -0.00000000000E+00 -0.00000000000E+00 -0.10422550647E+04  0.10422550647E+04  0.00000000000E+00 0. -1.
         24    2    1    2    0    0 -0.55155691846E+02  0.91381305600E+02 -0.27761247293E+02  0.13602977968E+03  0.79628642790E+02 0.  0.
         23    2    1    2    0    0  0.77982911296E+01  0.68313930232E+01 -0.14608358407E+03  0.17335467939E+03  0.92757479788E+02 0.  0.
        -11    1    3    3    0    0 -0.63542236950E+02  0.81394641540E+02  0.22741703466E+01  0.10328540748E+03  0.00000000000E+00 0.  1.
         12    1    3    3    0    0  0.83865451046E+01  0.99866640597E+01 -0.30035417640E+02  0.32744372198E+02  0.00000000000E+00 0. -1.
        -11    1    4    4    0    0  0.48207955726E+02 -0.13147269446E+01 -0.10297663917E+03  0.11370982243E+03  0.00000000000E+00 0. -1.
         11    1    4    4    0    0 -0.40409664596E+02  0.81461199678E+01 -0.43106944904E+02  0.59644856964E+02  0.00000000000E+00 0.  1.
         21    1    1    2  503  502  0.77010609536E+02  0.90664635465E+02 -0.10977691298E+03  0.16186933227E+03  0.00000000000E+00 0.  1.
          1    1    1    2  501    0 -0.29653208820E+02 -0.18887733409E+03 -0.65107143006E+03  0.67856316373E+03  0.00000000000E+00 0. -1.
<scales pt_clust_5="13000.00000" pt_clust_6="13000.00000" pt_clust_7="13000.00000" pt_clust_8="13000.00000" pt_clust_9="118.95676" pt_clust_10="13000.00000"></scales>
<clustering>
<clus scale="   79.629">  5  6 -1 -1</clus>
<clus scale="   92.757">  7  8 -1 -1</clus>
<clus scale="  118.957">  1  9  2 -1</clus>
<clus scale="  171.280">  2  5  1 -1</clus>
<clus scale="   66.903">  7 10 -1 -1</clus>
<clus scale="  118.957">  1  5  2 -1</clus>
</clustering>
</event>
<event>
10    4  0.2866397E-005  0.2247895E+03  0.7546771E-02  0.1152907E+00
         21   -1    0    0  503  502  0.00000000000E+00  0.00000000000E+00  0.18050836995E+03  0.18050836995E+03  0.00000000000E+00 0. -1.
          2   -1    0    0  502    0 -0.00000000000E+00 -0.00000000000E+00 -0.78104382409E+03  0.78104382409E+03  0.00000000000E+00 0. -1.
         24    2    1    2    0    0  0.77274494226E+02 -0.61972477954E+02 -0.54308851392E+03  0.55831327116E+03  0.83406470506E+02 0.  0.
         23    2    1    2    0    0  0.34375726285E+01  0.55108054646E+01 -0.21399698411E+02  0.97140343771E+02  0.94531018261E+02 0.  0.
        -11    1    3    3    0    0  0.86981634411E+02 -0.29537425269E+02 -0.44946887728E+03  0.45875978012E+03  0.00000000000E+00 0.  1.
         12    1    3    3    0    0 -0.97071401850E+01 -0.32435052685E+02 -0.93619636645E+02  0.99553491043E+02  0.00000000000E+00 0. -1.
        -11    1    4    4    0    0 -0.61450065360E+01  0.27543656880E+02  0.29518498252E+02  0.40838166936E+02  0.00000000000E+00 0.  1.
         11    1    4    4    0    0  0.95825791645E+01 -0.22032851415E+02 -0.50918196663E+02  0.56302176835E+02  0.00000000000E+00 0. -1.
         21    1    1    2  503  501  0.48843345111E+02  0.40467102951E+02  0.99446237733E+02  0.11795258786E+03  0.00000000000E+00 0. -1.
          1    1    1    2  501    0 -0.12955541197E+03  0.15994569539E+02 -0.13549347954E+03  0.18814599125E+03  0.00000000000E+00 0. -1.
<scales pt_clust_5="13000.00000" pt_clust_6="13000.00000" pt_clust_7="13000.00000" pt_clust_8="13000.00000" pt_clust_9="63.42916" pt_clust_10="13000.00000"></scales>
<clustering>
<clus scale="   63.429">  1  9  2 -1</clus>
<clus scale="   83.406">  5  6 -1 -1</clus>
<clus scale="   94.531">  7  8 -1 -1</clus>
<clus scale="  115.827">  7 10 -1 -1</clus>
<clus scale="  130.699">  2  5  1 -1</clus>
<clus scale="   63.429">  1  5  2 -1</clus>
</clustering>
</event>
<event>
10    4  0.2866397E-005  0.3496197E+03  0.7546771E-02  0.1102235E+00
         21   -1    0    0  501  502  0.00000000000E+00  0.00000000000E+00  0.57158391006E+03  0.57158391006E+03  0.00000000000E+00 0. -1.
          2   -1    0    0  503    0 -0.00000000000E+00 -0.00000000000E+00 -0.19728259315E+03  0.19728259315E+03  0.00000000000E+00 0. -1.
         24    2    1    2    0    0  0.72513248858E+02 -0.56675237201E+02  0.44865056887E+02  0.12948161645E+03  0.79261351845E+02 0.  0.
         23    2    1    2    0    0 -0.63771812845E+02 -0.14213359873E+02  0.18109393972E+03  0.21274869213E+03  0.90543510460E+02 0.  0.
        -13    1    3    3    0    0  0.35487454297E+01 -0.39043409927E+02 -0.89896278474E+01  0.40221820715E+02  0.00000000000E+00 0.  1.
         14    1    3    3    0    0  0.68964503428E+02 -0.17631827274E+02  0.53854684734E+02  0.89259795731E+02  0.00000000000E+00 0. -1.
        -11    1    4    4    0    0 -0.59594331562E+02  0.26719028905E+02  0.77904433718E+02  0.10165870181E+03  0.00000000000E+00 0.  1.
         11    1    4    4    0    0 -0.41774812839E+01 -0.40932388778E+02  0.10318950600E+03  0.11108999032E+03  0.00000000000E+00 0. -1.
         21    1    1    2  503  502  0.23043393153E+02  0.35177347771E+02  0.28177591724E+03  0.28489666776E+03  0.00000000000E+00 0. -1.
          1    1    1    2  501    0 -0.31784829165E+02  0.35711249303E+02 -0.13343359693E+03  0.14173952688E+03  0.00000000000E+00 0. -1.
<scales pt_clust_5="13000.00000" pt_clust_6="13000.00000" pt_clust_7="13000.00000" pt_clust_8="13000.00000" pt_clust_9="42.05287" pt_clust_10="13000.00000"></scales>
<clustering>
<clus scale="   42.053">  1  9  2 -1</clus>
<clus scale="   79.261">  5  6 -1 -1</clus>
<clus scale="   90.544">  7  8 -1 -1</clus>
<clus scale="   47.969">  7 10 -1 -1</clus>
<clus scale="  121.323">  2  5  1 -1</clus>
<clus scale="   42.053">  1  5  2 -1</clus>
</clustering>
</event>
<event>
10    4  0.2866397E-005  0.8986562E+03  0.7546771E-02  0.9795483E-01
          2   -1    0    0  502    0 -0.00000000000E+00  0.00000000000E+00  0.19023893827E+04  0.19023893827E+04  0.00000000000E+00 0. -1.
         21   -1    0    0  503  502  0.00000000000E+00 -0.00000000000E+00 -0.27879036612E+03  0.27879036612E+03  0.00000000000E+00 0. -1.
         24    2    1    2    0    0 -0.55960493735E+02 -0.25943799105E+03  0.89026478381E+02  0.29149816701E+03  0.81276192455E+02 0.  0.
         23    2    1    2    0    0 -0.27559779167E+03 -0.18095525850E+03  0.37953968575E+03  0.51075915951E+03  0.90142096782E+02 0.  0.
        -13    1    3    3    0    0  0.10324499410E+02 -0.17950549985E+02 -0.89960244700E+01  0.22577554985E+02  0.00000000000E+00 0.  1.
         14    1    3    3    0    0 -0.66284993146E+02 -0.24148744106E+03  0.98022502851E+02  0.26892061203E+03  0.00000000000E+00 0. -1.
        -11    1    4    4    0    0 -0.12014437529E+03 -0.12851466252E+03  0.22253866399E+03  0.28367965448E+03  0.00000000000E+00 0.  1.
         11    1    4    4    0    0 -0.15545341638E+03 -0.52440595986E+02  0.15700102176E+03  0.22707950503E+03  0.00000000000E+00 0. -1.
         21    1    1    2  503  501  0.73834501493E+01  0.50051776868E+02 -0.50178110083E+02  0.71256848339E+02  0.00000000000E+00 0. -1.
          1    1    1    2  501    0  0.32417483526E+03  0.39034147268E+03  0.12052109625E+04  0.13076655739E+04  0.00000000000E+00 0. -1.
<scales pt_clust_5="13000.00000" pt_clust_6="13000.00000" pt_clust_7="13000.00000" pt_clust_8="13000.00000" pt_clust_9="50.59344" pt_clust_10="13000.00000"></scales>
<clustering>
<clus scale="   50.593">  2  9  1 -1</clus>
<clus scale="   81.276">  5  6 -1 -1</clus>
<clus scale="   90.142">  7  8 -1 -1</clus>
<clus scale="  255.259">  1  5  2 -1</clus>
<clus scale="  363.409">  7 10 -1 -1</clus>
<clus scale="   50.593">  2  5  1 -1</clus>
</clustering>
</event>
<event>
10    4  0.4896593E-005  0.2934669E+03  0.7546771E-02  0.1116362E+00
         21   -1    0    0  503  502  0.00000000000E+00  0.00000000000E+00  0.15230135017E+03  0.15230135017E+03  0.00000000000E+00 0. -1.
          2   -1    0    0  502    0 -0.00000000000E+00 -0.00000000000E+00 -0.10793288961E+04  0.10793288961E+04  0.00000000000E+00 0. -1.
         24    2    1    2    0    0  0.11582721805E+03 -0.70400909876E+02  0.52646425335E+02  0.16606273803E+03  0.80205699989E+02 0.  0.
         23    2    1    2    0    0  0.51346427419E+02 -0.12849454855E+02 -0.20359663608E+03  0.22803558148E+03  0.88017453365E+02 0.  0.
        -13    1    3    3    0    0 -0.47440856002E+01 -0.25486095759E+02 -0.25675775690E+01  0.26050717453E+02  0.00000000000E+00 0.  1.
         14    1    3    3    0    0  0.12057130365E+03 -0.44914814117E+02  0.55214002904E+02  0.14001202058E+03  0.00000000000E+00 0. -1.
        -13    1    4    4    0    0  0.11136048040E+02 -0.47912518904E+02 -0.91201363522E+02  0.10362099084E+03  0.00000000000E+00 0.  1.
         13    1    4    4    0    0  0.40210379379E+02  0.35063064049E+02 -0.11239527256E+03  0.12441459064E+03  0.00000000000E+00 0. -1.
         21    1    1    2  503  501 -0.75935180995E+01  0.29900233324E+02  0.10937606695E+02  0.32730974782E+02  0.00000000000E+00 0.  1.
          1    1    1    2  501    0 -0.15958012737E+03  0.53350131406E+02 -0.78701494184E+03  0.80480095195E+03  0.00000000000E+00 0. -1.
<scales pt_clust_5="13000.00000" pt_clust_6="13000.00000" pt_clust_7="13000.00000" pt_clust_8="13000.00000" pt_clust_9="30.84940" pt_clust_10="13000.00000"></scales>
<clustering>
<clus scale="   30.849">  1  9  2 -1</clus>
<clus scale="   80.206">  5  6 -1 -1</clus>
<clus scale="   88.017">  7  8 -1 -1</clus>
<clus scale="  143.076">  2  5  1 -1</clus>
<clus scale="   76.184">  7 10 -1 -1</clus>
<clus scale="   30.849">  1  5  2 -1</clus>
</clustering>
</event>
<event>
10    4  0.2866397E-005  0.3225684E+03  0.7546771E-02  0.1098288E+00
         21   -1    0    0  503  502  0.00000000000E+00  0.00000000000E+00  0.49583102209E+03  0.49583102209E+03  0.00000000000E+00 0.  1.
         -3   -1    0    0    0  501 -0.00000000000E+00 -0.00000000000E+00 -0.25437658244E+03  0.25437658244E+03  0.00000000000E+00 0.  1.
         24    2    1    2    0    0 -0.14248123503E+03  0.43478143861E+02  0.32520911565E+03  0.36678918419E+03  0.81130052398E+02 0.  0.
         23    2    1    2    0    0  0.74408937325E+01  0.94025688075E+02 -0.61186879635E+01  0.13183612460E+03  0.91908261270E+02 0.  0.
        -11    1    3    3    0    0 -0.66399002560E+02 -0.20690467496E+02  0.14847609036E+03  0.16395753229E+03  0.00000000000E+00 0.  1.
         12    1    3    3    0    0 -0.76082232473E+02  0.64168611357E+02  0.17673302529E+03  0.20283165190E+03  0.00000000000E+00 0. -1.
        -13    1    4    4    0    0  0.29372645876E+02  0.59541506033E+02 -0.41063709164E+02  0.78065174545E+02  0.00000000000E+00 0.  1.
         13    1    4    4    0    0 -0.21931752144E+02  0.34484182042E+02  0.34945021200E+02  0.53770950056E+02  0.00000000000E+00 0. -1.
         21    1    1    2  503  501 -0.84888944050E+01 -0.26845055154E+02  0.29718673036E+02  0.40937975541E+02  0.00000000000E+00 0. -1.
         -4    1    1    2    0  502  0.14352923571E+03 -0.11065877678E+03 -0.10735466107E+03  0.21064432021E+03  0.00000000000E+00 0.  1.
<scales pt_clust_5="13000.00000" pt_clust_6="13000.00000" pt_clust_7="13000.00000" pt_clust_8="13000.00000" pt_clust_9="28.15525" pt_clust_10="13000.00000"></scales>
<clustering>
<clus scale="   28.155">  1  9  2 -1</clus>
<clus scale="   81.130">  5  6 -1 -1</clus>
<clus scale="   91.908">  7  8 -1 -1</clus>
<clus scale="  171.127">  2  5  1 -1</clus>
<clus scale="  104.205">  7 10 -1 -1</clus>
<clus scale="   28.155">  1  5  2 -1</clus>
</clustering>
</event>
<event>
10    4  0.2866397E-005  0.3188482E+03  0.7546771E-02  0.1083584E+00
         21   -1    0    0  503  502  0.00000000000E+00  0.00000000000E+00  0.27409297805E+03  0.27409297805E+03  0.00000000000E+00 0. -1.
          4   -1    0    0  502    0 -0.00000000000E+00 -0.00000000000E+00 -0.39048037748E+03  0.39048037748E+03  0.00000000000E+00 0. -1.
         24    2    1    2    0    0  0.23870025627E+03 -0.53766318555E+02 -0.15303022521E+01  0.25725471795E+03  0.79429331658E+02 0.  0.
         23    2    1    2    0    0 -0.59368779830E+02  0.48546857716E+02 -0.16122085824E+02  0.11983389435E+03  0.90657548891E+02 0.  0.
        -11    1    3    3    0    0  0.43138620468E+02 -0.34443130087E+02  0.21820530377E+02  0.59358279388E+02  0.00000000000E+00 0.  1.
         12    1    3    3    0    0  0.19556163581E+03 -0.19323188468E+02 -0.23350832629E+02  0.19789643856E+03  0.00000000000E+00 0. -1.
        -11    1    4    4    0    0  0.23258611671E+02  0.17922012647E+02 -0.11684509562E+02  0.31602046103E+02  0.00000000000E+00 0.  1.
         11    1    4    4    0    0 -0.82627391501E+02  0.30624845069E+02 -0.44375762617E+01  0.88231848246E+02  0.00000000000E+00 0. -1.
         21    1    1    2  503  501  0.11998970225E+02  0.22786165784E+02  0.42037335463E+02  0.49298298251E+02  0.00000000000E+00 0. -1.
          3    1    1    2  501    0 -0.19133044667E+03 -0.17566704945E+02 -0.14077234682E+03  0.23818644498E+03  0.00000000000E+00 0. -1.
<scales pt_clust_5="13000.00000" pt_clust_6="13000.00000" pt_clust_7="13000.00000" pt_clust_8="13000.00000" pt_clust_9="25.75237" pt_clust_10="13000.00000"></scales>
<clustering>
<clus scale="   25.752">  1  9  2 -1</clus>
<clus scale="   79.429">  5  6 -1 -1</clus>
<clus scale="   90.658">  7  8 -1 -1</clus>
<clus scale="  189.199">  7 10 -1 -1</clus>
<clus scale="  261.190">  2  5  1 -1</clus>
<clus scale="   25.752">  1  5  2 -1</clus>
</clustering>
</event>
<event>
10    4  0.2866397E-005  0.1681192E+03  0.7546771E-02  0.1212396E+00
          2   -1    0    0  502    0 -0.00000000000E+00  0.00000000000E+00  0.82408357967E+03  0.82408357967E+03  0.00000000000E+00 0. -1.
         21   -1    0    0  503  502  0.00000000000E+00 -0.00000000000E+00 -0.38200511866E+02  0.38200511866E+02  0.00000000000E+00 0.  1.
         24    2    1    2    0    0  0.66699664030E+00 -0.12730669106E+02  0.11902547424E+03  0.14521524782E+03  0.82206385760E+02 0.  0.
         23    2    1    2    0    0 -0.43455644200E+02 -0.43879011890E+02  0.32266308944E+03  0.34038996872E+03  0.89107243359E+02 0.  0.
        -11    1    3    3    0    0 -0.31818062083E+02 -0.92234197717E+01  0.10419233598E+03  0.10933207866E+03  0.00000000000E+00 0.  1.
         12    1    3    3    0    0  0.32485058723E+02 -0.35072493347E+01  0.14833138262E+02  0.35883169158E+02  0.00000000000E+00 0. -1.
        -13    1    4    4    0    0 -0.44187996569E+02  0.53408931268E+01  0.69826619670E+02  0.82806165197E+02  0.00000000000E+00 0. -1.
         13    1    4    4    0    0  0.73235236940E+00 -0.49219905017E+02  0.25283646977E+03  0.25758380352E+03  0.00000000000E+00 0.  1.
         21    1    1    2  503  501 -0.22625655551E+01  0.34958743351E+02  0.69050390807E+01  0.35705916936E+02  0.00000000000E+00 0.  1.
          1    1    1    2  501    0  0.45051213115E+02  0.21650937646E+02  0.33728946505E+03  0.34097295807E+03  0.00000000000E+00 0. -1.
<scales pt_clust_5="13000.00000" pt_clust_6="13000.00000" pt_clust_7="13000.00000" pt_clust_8="13000.00000" pt_clust_9="35.03188" pt_clust_10="13000.00000"></scales>
<clustering>
<clus scale="   35.032">  2  9  1 -1</clus>
<clus scale="   82.206">  5  6 -1 -1</clus>
<clus scale="   82.465">  1  5  2 -1</clus>
<clus scale="   89.107">  7  8 -1 -1</clus>
<clus scale="   52.525">  7 10 -1 -1</clus>
<clus scale="   35.032">  2  5  1 -1</clus>
</clustering>
</event>
<event>
10    4  0.2866397E-005  0.3576522E+03  0.7546771E-02  0.1115391E+00
         21   -1    0    0  501  502  0.00000000000E+00  0.00000000000E+00  0.59315270410E+02  0.59315270410E+02  0.00000000000E+00 0.  1.
         -1   -1    0    0    0  501 -0.00000000000E+00 -0.00000000000E+00 -0.12964496315E+04  0.12964496315E+04  0.00000000000E+00 0.  1.
         24    2    1    2    0    0  0.25612216228E+02 -0.23158911090E+02 -0.37125451968E+03  0.37998817012E+03  0.73271892703E+02 0.  0.
         23    2    1    2    0    0  0.13774430448E+03 -0.12420621500E+03 -0.39832626403E+03  0.44802927175E+03  0.87554203027E+02 0.  0.
        -11    1    3    3    0    0 -0.63000398667E+01 -0.42798836699E+02 -0.21427883595E+03  0.21860203672E+03  0.00000000000E+00 0.  1.
         12    1    3    3    0    0  0.31912256095E+02  0.19639925608E+02 -0.15697568374E+03  0.16138613339E+03  0.00000000000E+00 0. -1.
        -11    1    4    4    0    0  0.13476814785E+03 -0.72543845461E+02 -0.28685091556E+03  0.32512845299E+03  0.00000000000E+00 0.  1.
         11    1    4    4    0    0  0.29761566352E+01 -0.51662369538E+02 -0.11147534847E+03  0.12290081876E+03  0.00000000000E+00 0. -1.
         21    1    1    2  503  502 -0.41863529347E+02  0.70757941346E+02 -0.81172520083E+02  0.11553449428E+03  0.00000000000E+00 0.  1.
         -2    1    1    2    0  503 -0.12149299137E+03  0.76607184743E+02 -0.38638105733E+03  0.41221296580E+03  0.00000000000E+00 0.  1.
<scales pt_clust_5="13000.00000" pt_clust_6="13000.00000" pt_clust_7="13000.00000" pt_clust_8="13000.00000" pt_clust_9="78.70034" pt_clust_10="13000.00000"></scales>
<clustering>
<clus scale="   73.272">  5  6 -1 -1</clus>
<clus scale="   81.001">  2  5  1 -1</clus>
<clus scale="   78.700">  1  9  2 -1</clus>
<clus scale="   87.554">  7  8 -1 -1</clus>
<clus scale="  150.230">  7 10 -1 -1</clus>
<clus scale="   78.700">  1  5  2 -1</clus>
</clustering>
</event>
<event>
10    4  0.2866397E-005  0.3217533E+03  0.7546771E-02  0.1079975E+00
          2   -1    0    0  502    0 -0.00000000000E+00  0.00000000000E+00  0.31559963873E+03  0.31559963873E+03  0.00000000000E+00 0. -1.
         21   -1    0    0  503  502  0.00000000000E+00 -0.00000000000E+00 -0.58594782490E+03  0.58594782490E+03  0.00000000000E+00 0. -1.
         24    2    1    2    0    0 -0.34731763441E+02 -0.28674625937E+03 -0.29472227573E+02  0.30271573481E+03  0.85664994304E+02 0.  0.
         23    2    1    2    0    0  0.58886091012E+02  0.14720853207E+03 -0.48682409639E+02  0.18958437067E+03  0.91838624591E+02 0.  0.
        -13    1    3    3    0    0  0.14053774199E+02 -0.23783032006E+02 -0.21740230963E+02  0.35153645941E+02  0.00000000000E+00 0.  1.
         14    1    3    3    0    0 -0.48785537640E+02 -0.26296322736E+03 -0.77319966098E+01  0.26756208887E+03  0.00000000000E+00 0. -1.
        -11    1    4    4    0    0 -0.21929750131E+02  0.34213616824E+02 -0.27473174623E+02  0.49053652676E+02  0.00000000000E+00 0.  1.
         11    1    4    4    0    0  0.80815841143E+02  0.11299491524E+03 -0.21209235017E+02  0.14053071800E+03  0.00000000000E+00 0. -1.
         21    1    1    2  503  501 -0.79349601765E+02  0.58834420612E+02 -0.26793805225E+03  0.28556723936E+03  0.00000000000E+00 0. -1.
          1    1    1    2  501    0  0.55195274195E+02  0.80703306690E+02  0.75744503292E+02  0.12368011879E+03  0.00000000000E+00 0. -1.
<scales pt_clust_5="13000.00000" pt_clust_6="13000.00000" pt_clust_7="13000.00000" pt_clust_8="13000.00000" pt_clust_9="98.78182" pt_clust_10="13000.00000"></scales>
<clustering>
<clus scale="   85.665">  5  6 -1 -1</clus>
<clus scale="   91.839">  7  8 -1 -1</clus>
<clus scale="   97.773">  7 10 -1 -1</clus>
<clus scale="   98.782">  2  9  1 -1</clus>
<clus scale="  280.035">  1  5  2 -1</clus>
<clus scale="   98.782">  2  5  1 -1</clus>
</clustering>
</event>
<event>
10    4  0.2866397E-005  0.3540269E+03  0.7546771E-02  0.1071656E+00
          4   -1    0    0  503    0 -0.00000000000E+00  0.00000000000E+00  0.84304292665E+03  0.84304292665E+03  0.00000000000E+00 0. -1.
         21   -1    0    0  501  502  0.00000000000E+00 -0.00000000000E+00 -0.25343394644E+03  0.25343394644E+03  0.00000000000E+00 0.  1.
         24    2    1    2    0    0 -0.10088281002E+03  0.22793064899E+03  0.66409147035E+03  0.71471777571E+03  0.87603058233E+02 0.  0.
         23    2    1    2    0    0  0.25117895698E+02  0.18518676251E+02 -0.27201808698E+02  0.99062616207E+02  0.89997852635E+02 0.  0.
        -11    1    3    3    0    0 -0.25284826474E+02  0.14652102061E+03  0.31406113216E+03  0.34747967806E+03  0.00000000000E+00 0.  1.
         12    1    3    3    0    0 -0.75597983548E+02  0.81409628377E+02  0.35003033819E+03  0.36723809764E+03  0.00000000000E+00 0. -1.
        -11    1    4    4    0    0 -0.17489913045E+02 -0.25803510362E+02 -0.20291053658E+02  0.37194691340E+02  0.00000000000E+00 0. -1.
         11    1    4    4    0    0  0.42607808743E+02  0.44322186613E+02 -0.69107550400E+01  0.61867924867E+02  0.00000000000E+00 0.  1.
         21    1    1    2  503  502  0.21011299144E+02  0.17035019628E+01 -0.16394126675E+02  0.26704756132E+02  0.00000000000E+00 0.  1.
          3    1    1    2  501    0  0.54753615180E+02 -0.24815282721E+03 -0.30886554763E+02  0.25599172504E+03  0.00000000000E+00 0. -1.
<scales pt_clust_5="13000.00000" pt_clust_6="13000.00000" pt_clust_7="13000.00000" pt_clust_8="13000.00000" pt_clust_9="21.08024" pt_clust_10="13000.00000"></scales>
<clustering>
<clus scale="   21.080">  2  9  1 -1</clus>
<clus scale="   87.603">  5  6 -1 -1</clus>
<clus scale="   89.998">  7  8 -1 -1</clus>
<clus scale="  256.219">  7 10 -1 -1</clus>
<clus scale="  263.498">  1  5  2 -1</clus>
<clus scale="   21.080">  2  5  1 -1</clus>
</clustering>
</event>
<event>
10    4  0.2866397E-005  0.3870692E+03  0.7546771E-02  0.1097970E+00
         21   -1    0    0  501  502  0.00000000000E+00  0.00000000000E+00  0.13414004903E+04  0.13414004903E+04  0.00000000000E+00 0. -1.
          2   -1    0    0  503    0 -0.00000000000E+00 -0.00000000000E+00 -0.74054647555E+02  0.74054647555E+02  0.00000000000E+00 0. -1.
         24    2    1    2    0    0  0.61308407589E+02 -0.14886652843E+02  0.27536936395E+03  0.29343329679E+03  0.79337757624E+02 0.  0.
         23    2    1    2    0    0  0.67137515310E+02  0.15865048544E+02  0.51176081043E+03  0.52430798214E+03  0.90777680715E+02 0.  0.
        -11    1    3    3    0    0  0.23047782558E+02 -0.32481978052E+02  0.48830806393E+02  0.63013703525E+02  0.00000000000E+00 0.  1.
         12    1    3    3    0    0  0.38260625031E+02  0.17595325209E+02  0.22653855756E+03  0.23041959326E+03  0.00000000000E+00 0. -1.
        -13    1    4    4    0    0  0.87412281104E+02 -0.12521749725E+01  0.39969542612E+03  0.40914411702E+03  0.00000000000E+00 0. -1.
         13    1    4    4    0    0 -0.20274765795E+02  0.17117223516E+02  0.11206538431E+03  0.11516386512E+03  0.00000000000E+00 0.  1.
         21    1    1    2  503  502 -0.30583918436E+01  0.66105478320E+02  0.44674918273E+03  0.45162387037E+03  0.00000000000E+00 0. -1.
          1    1    1    2  501    0 -0.12538753105E+03 -0.67083874021E+02  0.33466485645E+02  0.14608998857E+03  0.00000000000E+00 0. -1.
<scales pt_clust_5="13000.00000" pt_clust_6="13000.00000" pt_clust_7="13000.00000" pt_clust_8="13000.00000" pt_clust_9="66.17619" pt_clust_10="13000.00000"></scales>
<clustering>
<clus scale="   66.176">  1  9  2 -1</clus>
<clus scale="   79.338">  5  6 -1 -1</clus>
<clus scale="   90.778">  7  8 -1 -1</clus>
<clus scale="   99.864">  2  5  1 -1</clus>
<clus scale="   92.736">  7 10 -1 -1</clus>
<clus scale="   66.176">  1  5  2 -1</clus>
</clustering>
</event>
<event>
10    4  0.2866397E-005  0.1426258E+03  0.7546771E-02  0.1231100E+00
         21   -1    0    0  503  502  0.00000000000E+00  0.00000000000E+00  0.18944233626E+03  0.18944233626E+03  0.00000000000E+00 0. -1.
         -1   -1    0    0    0  501 -0.00000000000E+00 -0.00000000000E+00 -0.30728880605E+03  0.30728880605E+03  0.00000000000E+00 0.  1.
         24    2    1    2    0    0  0.20658965569E+02  0.31516665869E+02 -0.11929135113E+03  0.15128350947E+03  0.85065743391E+02 0.  0.
         23    2    1    2    0    0  0.62447941294E+01 -0.60915633092E+02 -0.11212778523E+03  0.15579292661E+03  0.89157635413E+02 0.  0.
        -11    1    3    3    0    0  0.24857607414E+01  0.44536841666E+02 -0.18920395085E+02  0.48452973306E+02  0.00000000000E+00 0.  1.
         12    1    3    3    0    0  0.18173204828E+02 -0.13020175797E+02 -0.10037095604E+03  0.10283053617E+03  0.00000000000E+00 0. -1.
        -11    1    4    4    0    0  0.19028250190E+02  0.14865186294E+02 -0.62112551240E+01  0.24932463959E+02  0.00000000000E+00 0. -1.
         11    1    4    4    0    0 -0.12783456061E+02 -0.75780819386E+02 -0.10591653010E+03  0.13086046265E+03  0.00000000000E+00 0.  1.
         21    1    1    2  503  501 -0.20710336221E+02 -0.32918335651E+01  0.14342707493E+03  0.14495199211E+03  0.00000000000E+00 0. -1.
         -2    1    1    2    0  502 -0.61934234778E+01  0.32690800788E+02 -0.29854408366E+02  0.44702714117E+02  0.00000000000E+00 0.  1.
<scales pt_clust_5="13000.00000" pt_clust_6="13000.00000" pt_clust_7="13000.00000" pt_clust_8="13000.00000" pt_clust_9="20.97032" pt_clust_10="13000.00000"></scales>
<clustering>
<clus scale="   20.970">  1  9  2 -1</clus>
<clus scale="   85.066">  5  6 -1 -1</clus>
<clus scale="   89.158">  7  8 -1 -1</clus>
<clus scale="   33.551">  7 10 -1 -1</clus>
<clus scale="   91.298">  2  5  1 -1</clus>
<clus scale="   20.970">  1  5  2 -1</clus>
</clustering>
</event>
<event>
10    4  0.2866397E-005  0.3330772E+03  0.7546771E-02  0.1107253E+00
         21   -1    0    0  501  502  0.00000000000E+00  0.00000000000E+00  0.24801548172E+03  0.24801548172E+03  0.00000000000E+00 0. -1.
          2   -1    0    0  503    0 -0.00000000000E+00 -0.00000000000E+00 -0.13181006750E+04  0.13181006750E+04  0.00000000000E+00 0. -1.
         24    2    1    2    0    0 -0.85421703719E+02 -0.60889959791E+02 -0.77004008439E+03  0.78073298409E+03  0.74684712028E+02 0.  0.
         23    2    1    2    0    0 -0.91784359563E+02  0.71524191438E+01 -0.39455959811E+03  0.41503697263E+03  0.90016034280E+02 0.  0.
        -11    1    3    3    0    0  0.78390902334E+01 -0.27810511547E+02 -0.13787824375E+03  0.14087329764E+03  0.00000000000E+00 0.  1.
         12    1    3    3    0    0 -0.93260793952E+02 -0.33079448244E+02 -0.63216184064E+03  0.63985968645E+03  0.00000000000E+00 0. -1.
        -13    1    4    4    0    0  0.11355626820E+02  0.21083629736E+02 -0.92518406901E+02  0.95567386271E+02  0.00000000000E+00 0.  1.
         13    1    4    4    0    0 -0.10313998638E+03 -0.13931210593E+02 -0.30204119121E+03  0.31946958636E+03  0.00000000000E+00 0. -1.
         21    1    1    2  503  502  0.36625118353E+02  0.66878749571E+02  0.18673538398E+03  0.20170342107E+03  0.00000000000E+00 0. -1.
          1    1    1    2  501    0  0.14058094493E+03 -0.13141208924E+02 -0.92220894741E+02  0.16864277890E+03  0.00000000000E+00 0. -1.
<scales pt_clust_5="13000.00000" pt_clust_6="13000.00000" pt_clust_7="13000.00000" pt_clust_8="13000.00000" pt_clust_9="76.25068" pt_clust_10="13000.00000"></scales>
<clustering>
<clus scale="   74.685">  5  6 -1 -1</clus>
<clus scale="   76.251">  1  9  2 -1</clus>
<clus scale="   90.016">  7  8 -1 -1</clus>
<clus scale="  123.322">  2  5  1 -1</clus>
<clus scale="  139.393">  7 10 -1 -1</clus>
<clus scale="   76.251">  1  5  2 -1</clus>
</clustering>
</event>
<event>
10    4  0.2866397E-005  0.3110152E+03  0.7546771E-02  0.1123590E+00
          2   -1    0    0  502    0 -0.00000000000E+00  0.00000000000E+00  0.10243244771E+04  0.10243244771E+04  0.00000000000E+00 0. -1.
         21   -1    0    0  503  502  0.00000000000E+00 -0.00000000000E+00 -0.52407692713E+02  0.52407692713E+02  0.00000000000E+00 0. -1.
         24    2    1    2    0    0  0.38910423762E+02 -0.30643569687E+02  0.90108523962E+02  0.13047529507E+03  0.80319406704E+02 0.  0.
         23    2    1    2    0    0  0.11679916478E+02  0.11043723107E+03  0.18543454416E+03  0.23437961495E+03  0.90636809738E+02 0.  0.
        -11    1    3    3    0    0  0.56611642039E+02 -0.21467392143E+02  0.92332937519E+02  0.11041330667E+03  0.00000000000E+00 0.  1.
         12    1    3    3    0    0 -0.17701218278E+02 -0.91761775442E+01 -0.22244135571E+01  0.20061988399E+02  0.00000000000E+00 0. -1.
        -11    1    4    4    0    0 -0.39041362520E+02  0.59682228781E+02  0.99664426569E+02  0.12255282266E+03  0.00000000000E+00 0. -1.
         11    1    4    4    0    0  0.50721278999E+02  0.50755002291E+02  0.85770117592E+02  0.11182679228E+03  0.00000000000E+00 0.  1.
         21    1    1    2  503  501  0.24032913770E+02 -0.10402933503E+02  0.41144250353E+02  0.48771418954E+02  0.00000000000E+00 0. -1.
          1    1    1    2  501    0 -0.74623254010E+02 -0.69390727881E+02  0.65522946592E+03  0.66310584085E+03  0.00000000000E+00 0. -1.
<scales pt_clust_5="13000.00000" pt_clust_6="13000.00000" pt_clust_7="13000.00000" pt_clust_8="13000.00000" pt_clust_9="26.18782" pt_clust_10="13000.00000"></scales>
<clustering>
<clus scale="   26.188">  2  9  1 -1</clus>
<clus scale="   80.319">  5  6 -1 -1</clus>
<clus scale="   90.637">  7  8 -1 -1</clus>
<clus scale="  100.320">  1  5  2 -1</clus>
<clus scale="  102.846">  7 10 -1 -1</clus>
<clus scale="   26.188">  2  5  1 -1</clus>
</clustering>
</event>
<event>
10    4  0.2866397E-005  0.3246307E+03  0.7546771E-02  0.1078662E+00
         21   -1    0    0  503  502  0.00000000000E+00  0.00000000000E+00  0.33720209001E+03  0.33720209001E+03  0.00000000000E+00 0. -1.
          4   -1    0    0  502    0 -0.00000000000E+00 -0.00000000000E+00 -0.69862826047E+03  0.69862826047E+03  0.00000000000E+00 0. -1.
         24    2    1    2    0    0  0.94440073299E+02  0.21333940269E+03 -0.12370275071E+03  0.27722104172E+03  0.84359393398E+02 0.  0.
         23    2    1    2    0    0  0.11572299049E+02 -0.55432370532E+02 -0.14172620557E+03  0.17438631460E+03  0.84365891004E+02 0.  0.
        -11    1    3    3    0    0  0.11535552835E+02  0.16567643357E+02 -0.45587026975E+02  0.49857124005E+02  0.00000000000E+00 0.  1.
         12    1    3    3    0    0  0.82904520464E+02  0.19677175933E+03 -0.78115723737E+02  0.22736391772E+03  0.00000000000E+00 0. -1.
        -13    1    4    4    0    0 -0.66866946161E+01  0.21511928953E+02 -0.31539346474E+02  0.38758293927E+02  0.00000000000E+00 0.  1.
         13    1    4    4    0    0  0.18258993666E+02 -0.76944299485E+02 -0.11018685910E+03  0.13562802067E+03  0.00000000000E+00 0. -1.
         21    1    1    2  503  501 -0.75359442619E+02  0.94961825142E+02  0.17462423849E+03  0.21258038125E+03  0.00000000000E+00 0. -1.
          3    1    1    2  501    0 -0.30652929730E+02 -0.25286885730E+03 -0.27062145266E+03  0.37164261291E+03  0.00000000000E+00 0. -1.
<scales pt_clust_5="13000.00000" pt_clust_6="13000.00000" pt_clust_7="13000.00000" pt_clust_8="13000.00000" pt_clust_9="121.23033" pt_clust_10="13000.00000"></scales>
<clustering>
<clus scale="   84.359">  5  6 -1 -1</clus>
<clus scale="   84.366">  7  8 -1 -1</clus>
<clus scale="  121.230">  1  9  2 -1</clus>
<clus scale="  226.788">  7 10 -1 -1</clus>
<clus scale="  282.486">  2  5  1 -1</clus>
<clus scale="  121.230">  1  5  2 -1</clus>
</clustering>
</event>
<event>
10    4  0.2866397E-005  0.3607147E+03  0.7546771E-02  0.1095543E+00
         21   -1    0    0  503  502  0.00000000000E+00  0.00000000000E+00  0.56359521152E+02  0.56359521152E+02  0.00000000000E+00 0. -1.
          2   -1    0    0  502    0 -0.00000000000E+00 -0.00000000000E+00 -0.15361861498E+04  0.15361861498E+04  0.00000000000E+00 0. -1.
         24    2    1    2    0    0 -0.61008806328E+02 -0.78666306583E+02 -0.32475561691E+03  0.34774106046E+03  0.74479340595E+02 0.  0.
         23    2    1    2    0    0  0.11673584130E+03  0.18130191210E+03 -0.50694054572E+03  0.55846691140E+03  0.91645699619E+02 0.  0.
        -13    1    3    3    0    0  0.16511676802E+02 -0.13588965638E+02 -0.37412463735E+02  0.43092782466E+02  0.00000000000E+00 0.  1.
         14    1    3    3    0    0 -0.77520483131E+02 -0.65077340945E+02 -0.28734315318E+03  0.30464827800E+03  0.00000000000E+00 0. -1.
        -13    1    4    4    0    0  0.88691327405E+02  0.14689379072E+03 -0.28942395412E+03  0.33646717898E+03  0.00000000000E+00 0. -1.
         13    1    4    4    0    0  0.28044513895E+02  0.34408121386E+02 -0.21751659159E+03  0.22199973242E+03  0.00000000000E+00 0.  1.
         21    1    1    2  503  501 -0.12413282858E+02 -0.28968926992E+02  0.10721942657E+01  0.31534709812E+02  0.00000000000E+00 0. -1.
          1    1    1    2  501    0 -0.43313752113E+02 -0.73666678526E+02 -0.64920266030E+03  0.65480298929E+03  0.00000000000E+00 0. -1.
<scales pt_clust_5="13000.00000" pt_clust_6="13000.00000" pt_clust_7="13000.00000" pt_clust_8="13000.00000" pt_clust_9="31.51648" pt_clust_10="13000.00000"></scales>
<clustering>
<clus scale="   31.516">  1  9  2 -1</clus>
<clus scale="   74.479">  5  6 -1 -1</clus>
<clus scale="   91.646">  7  8 -1 -1</clus>
<clus scale="   87.643">  7 10 -1 -1</clus>
<clus scale="  131.460">  2  5  1 -1</clus>
<clus scale="   31.516">  1  5  2 -1</clus>
</clustering>
</event>
<event>
10    4  0.2866397E-005  0.7779301E+03  0.7546771E-02  0.9891014E-01
          2   -1    0    0  503    0 -0.00000000000E+00  0.00000000000E+00  0.15806481139E+04  0.15806481139E+04  0.00000000000E+00 0. -1.
         21   -1    0    0  501  502  0.00000000000E+00 -0.00000000000E+00 -0.28330492619E+03  0.28330492619E+03  0.00000000000E+00 0. -1.
         24    2    1    2    0    0  0.20640007661E+03 -0.14238746047E+03  0.45662662284E+03  0.52709478452E+03  0.80286105038E+02 0.  0.
         23    2    1    2    0    0  0.22505218600E+03  0.13668887851E+03  0.21494307634E+03  0.35117131633E+03  0.88252090144E+02 0.  0.
        -13    1    3    3    0    0  0.55379490535E+02 -0.45338193236E+02  0.21137792507E+03  0.22316600759E+03  0.00000000000E+00 0.  1.
         14    1    3    3    0    0  0.15102058607E+03 -0.97049267231E+02  0.24524869777E+03  0.30392877693E+03  0.00000000000E+00 0. -1.
        -11    1    4    4    0    0  0.13974383230E+03  0.12456243853E+03  0.11716036079E+03  0.22084087008E+03  0.00000000000E+00 0. -1.
         11    1    4    4    0    0  0.85308353704E+02  0.12126439972E+02  0.97782715556E+02  0.13033044625E+03  0.00000000000E+00 0.  1.
         21    1    1    2  503  502  0.11663988760E+03 -0.14930637248E+03  0.19189980376E+03  0.26967163537E+03  0.00000000000E+00 0.  1.
          1    1    1    2  501    0 -0.54809215021E+03  0.15500495444E+03  0.43387368474E+03  0.71601530384E+03  0.00000000000E+00 0. -1.
<scales pt_clust_5="13000.00000" pt_clust_6="13000.00000" pt_clust_7="13000.00000" pt_clust_8="13000.00000" pt_clust_9="189.46581" pt_clust_10="13000.00000"></scales>
<clustering>
<clus scale="   80.286">  5  6 -1 -1</clus>
<clus scale="   88.252">  7  8 -1 -1</clus>
<clus scale="  189.466">  2  9  1 -1</clus>
<clus scale="  288.335">  1  5  2 -1</clus>
<clus scale="  357.765">  7 10 -1 -1</clus>
<clus scale="  189.466">  2  5  1 -1</clus>
</clustering>
</event>
<event>
10    4  0.2866397E-005  0.3386230E+03  0.7546771E-02  0.1113985E+00
          2   -1    0    0  503    0 -0.00000000000E+00  0.00000000000E+00  0.62168159806E+03  0.62168159806E+03  0.00000000000E+00 0. -1.
         21   -1    0    0  501  502  0.00000000000E+00 -0.00000000000E+00 -0.14872663464E+03  0.14872663464E+03  0.00000000000E+00 0. -1.
         24    2    1    2    0    0 -0.25574402855E+02  0.52906559395E+02  0.17914245151E+03  0.20491840750E+03  0.80289362270E+02 0.  0.
         23    2    1    2    0    0  0.52193017166E+02  0.43994237155E+02  0.39366457912E+03  0.41012773971E+03  0.92592429909E+02 0.  0.
        -11    1    3    3    0    0  0.21769945156E+02  0.45932216165E+01  0.91729650396E+02  0.94389390075E+02  0.00000000000E+00 0.  1.
         12    1    3    3    0    0 -0.47344348010E+02  0.48313337778E+02  0.87412801109E+02  0.11052901743E+03  0.00000000000E+00 0. -1.
        -11    1    4    4    0    0  0.47818000566E+02  0.71029538452E+02  0.32774167604E+03  0.33874232497E+03  0.00000000000E+00 0. -1.
         11    1    4    4    0    0  0.43750165999E+01 -0.27035301297E+02  0.65922903083E+02  0.71385414739E+02  0.00000000000E+00 0.  1.
         21    1    1    2  503  502 -0.30767117950E+02 -0.24366442444E+02 -0.62161425124E+02  0.73514500867E+02  0.00000000000E+00 0. -1.
          1    1    1    2  501    0  0.41485036394E+01 -0.72534354105E+02 -0.37690642084E+02  0.81847584623E+02  0.00000000000E+00 0. -1.
<scales pt_clust_5="13000.00000" pt_clust_6="13000.00000" pt_clust_7="13000.00000" pt_clust_8="13000.00000" pt_clust_9="39.24715" pt_clust_10="13000.00000"></scales>
<clustering>
<clus scale="   39.247">  2  9  1 -1</clus>
<clus scale="   80.289">  5  6 -1 -1</clus>
<clus scale="   92.592">  7  8 -1 -1</clus>
<clus scale="   92.427">  7 10 -1 -1</clus>
<clus scale="   98.887">  1  5  2 -1</clus>
<clus scale="   39.247">  2  5  1 -1</clus>
</clustering>
</event>
<event>
10    4  0.2866397E-005  0.2557490E+03  0.7546771E-02  0.1131070E+00
         -1   -1    0    0    0  501 -0.00000000000E+00  0.00000000000E+00  0.13671685028E+04  0.13671685028E+04  0.00000000000E+00 0.  1.
         21   -1    0    0  503  502  0.00000000000E+00 -0.00000000000E+00 -0.40916742594E+02  0.40916742594E+02  0.00000000000E+00 0.  1.
         24    2    1    2    0    0  0.12668532179E+03 -0.74089653273E+01  0.30420885071E+03  0.33940158788E+03  0.80909514152E+02 0.  0.
         23    2    1    2    0    0 -0.64496266320E+02 -0.75659940968E+02  0.44759340411E+03  0.46644189883E+03  0.85697109346E+02 0.  0.
        -13    1    3    3    0    0  0.10015322758E+03  0.29072231713E+02  0.19260983421E+03  0.21903061860E+03  0.00000000000E+00 0.  1.
         14    1    3    3    0    0  0.26532094210E+02 -0.36481197040E+02  0.11159901650E+03  0.12037096927E+03  0.00000000000E+00 0. -1.
        -11    1    4    4    0    0 -0.14661444026E+02 -0.74930993154E+02  0.33009108404E+03  0.33880633914E+03  0.00000000000E+00 0.  1.
         11    1    4    4    0    0 -0.49834822294E+02 -0.72894781384E+00  0.11750232006E+03  0.12763555969E+03  0.00000000000E+00 0. -1.
         21    1    1    2  503  501 -0.37615404099E+01 -0.24187386991E+02  0.13108971858E+02  0.27767319260E+02  0.00000000000E+00 0.  1.
         -2    1    1    2    0  502 -0.58427515057E+02  0.10725629329E+03  0.56134053354E+03  0.57447443943E+03  0.00000000000E+00 0.  1.
<scales pt_clust_5="13000.00000" pt_clust_6="13000.00000" pt_clust_7="13000.00000" pt_clust_8="13000.00000" pt_clust_9="24.47813" pt_clust_10="13000.00000"></scales>
<clustering>
<clus scale="   24.478">  2  9  1 -1</clus>
<clus scale="   80.910">  5  6 -1 -1</clus>
<clus scale="   85.697">  7  8 -1 -1</clus>
<clus scale="  118.373">  7 10 -1 -1</clus>
<clus scale="  150.011">  1  5  2 -1</clus>
<clus scale="   24.478">  2  5  1 -1</clus>
</clustering>
</event>
<event>
10    4  0.2866397E-005  0.1896735E+03  0.7546771E-02  0.1189984E+00
         -1   -1    0    0    0  501 -0.00000000000E+00  0.00000000000E+00  0.54519741150E+03  0.54519741150E+03  0.00000000000E+00 0.  1.
         21   -1    0    0  501  502  0.00000000000E+00 -0.00000000000E+00 -0.11559843650E+03  0.11559843650E+03  0.00000000000E+00 0. -1.
         24    2    1    2    0    0 -0.25096494111E+02 -0.30357131007E+02  0.19653523879E+03  0.21629638091E+03  0.81281208708E+02 0.  0.
         23    2    1    2    0    0 -0.40409228962E+02  0.43575508758E+02  0.24718451179E+03  0.27096521643E+03  0.93756252564E+02 0.  0.
        -11    1    3    3    0    0 -0.18224671451E+02 -0.56614111841E+02  0.16062938703E+03  0.17128659109E+03  0.00000000000E+00 0.  1.
         12    1    3    3    0    0 -0.68718226594E+01  0.26256980834E+02  0.35905851761E+02  0.45009789823E+02  0.00000000000E+00 0. -1.
        -11    1    4    4    0    0  0.28444658670E+02  0.26106148836E+02  0.67708434419E+02  0.77942682180E+02  0.00000000000E+00 0.  1.
         11    1    4    4    0    0 -0.68853887632E+02  0.17469359922E+02  0.17947607737E+03  0.19302253425E+03  0.00000000000E+00 0. -1.
         21    1    1    2  503  502 -0.41755158063E+01 -0.28473645219E+02 -0.74635549723E+02  0.79991553846E+02  0.00000000000E+00 0. -1.
         -2    1    1    2    0  503  0.69681238879E+02  0.15255267468E+02  0.60514774145E+02  0.93542696814E+02  0.00000000000E+00 0.  1.
<scales pt_clust_5="13000.00000" pt_clust_6="13000.00000" pt_clust_7="13000.00000" pt_clust_8="13000.00000" pt_clust_9="28.77818" pt_clust_10="13000.00000"></scales>
<clustering>
<clus scale="   28.778">  2  9  1 -1</clus>
<clus scale="   81.281">  5  6 -1 -1</clus>
<clus scale="   93.346">  1  5  2 -1</clus>
<clus scale="   93.756">  7  8 -1 -1</clus>
<clus scale="   62.213">  7 10 -1 -1</clus>
<clus scale="   28.778">  2  5  1 -1</clus>
</clustering>
</event>
<event>
10    4  0.2866397E-005  0.6817018E+03  0.7546771E-02  0.9859257E-01
          2   -1    0    0  502    0 -0.00000000000E+00  0.00000000000E+00  0.20725527508E+04  0.20725527508E+04  0.00000000000E+00 0. -1.
         21   -1    0    0  503  502  0.00000000000E+00 -0.00000000000E+00 -0.37718467085E+03  0.37718467085E+03  0.00000000000E+00 0. -1.
         24    2    1    2    0    0 -0.23685917325E+03 -0.35954781647E+03  0.49486002513E+03  0.66088959655E+03  0.80695192442E+02 0.  0.
         23    2    1    2    0    0 -0.10394444443E+02 -0.40844384180E+02  0.48306586319E+02  0.11065929132E+03  0.90197806403E+02 0.  0.
        -11    1    3    3    0    0 -0.12776538995E+03 -0.22580757568E+03  0.34929060121E+03  0.43510571152E+03  0.00000000000E+00 0.  1.
         12    1    3    3    0    0 -0.10909378331E+03 -0.13374024079E+03  0.14556942392E+03  0.22578388503E+03  0.00000000000E+00 0. -1.
        -11    1    4    4    0    0 -0.24161887393E+02 -0.25891465193E+02 -0.19112847939E+02  0.40242586008E+02  0.00000000000E+00 0.  1.
         11    1    4    4    0    0  0.13767442951E+02 -0.14952918986E+02  0.67419434258E+02  0.70416705314E+02  0.00000000000E+00 0. -1.
         21    1    1    2  503  501  0.89848869116E+02 -0.13714216298E+03 -0.17368782416E+03  0.23884775990E+03  0.00000000000E+00 0. -1.
          1    1    1    2  501    0  0.15740474858E+03  0.53753436363E+03  0.13258892927E+04  0.14393407739E+04  0.00000000000E+00 0. -1.
<scales pt_clust_5="13000.00000" pt_clust_6="13000.00000" pt_clust_7="13000.00000" pt_clust_8="13000.00000" pt_clust_9="163.95363" pt_clust_10="13000.00000"></scales>
<clustering>
<clus scale="   80.695">  5  6 -1 -1</clus>
<clus scale="   90.198">  7  8 -1 -1</clus>
<clus scale="  163.954">  2  9  1 -1</clus>
<clus scale="  474.822">  1  5  2 -1</clus>
<clus scale="  104.316">  7 10 -1 -1</clus>
<clus scale="  163.954">  2  5  1 -1</clus>
</clustering>
</event>
<event>
10    4  0.2866397E-005  0.2625383E+03  0.7546771E-02  0.1134127E+00
          2   -1    0    0  503    0 -0.00000000000E+00  0.00000000000E+00  0.83496823475E+03  0.83496823475E+03  0.00000000000E+00 0. -1.
         21   -1    0    0  501  502  0.00000000000E+00 -0.00000000000E+00 -0.98196055702E+02  0.98196055702E+02  0.00000000000E+00 0. -1.
         24    2    1    2    0    0  0.86307474140E+02 -0.59628810779E+02  0.56675363902E+03  0.58194967662E+03  0.80319135983E+02 0.  0.
         23    2    1    2    0    0  0.36515304665E+02 -0.43666582501E+02  0.15046363256E+03  0.18507958405E+03  0.91515079671E+02 0.  0.
        -11    1    3    3    0    0  0.44465272762E+02  0.74377759108E+01  0.11863591347E+03  0.12691320245E+03  0.00000000000E+00 0.  1.
         12    1    3    3    0    0  0.41842201378E+02 -0.67066586690E+02  0.44811772556E+03  0.45503647417E+03  0.00000000000E+00 0. -1.
        -13    1    4    4    0    0  0.61035396529E+02 -0.83112994661E+01  0.65943694016E+02  0.90238395978E+02  0.00000000000E+00 0. -1.
         13    1    4    4    0    0 -0.24520091864E+02 -0.35355283035E+02  0.84519938543E+02  0.94841188072E+02  0.00000000000E+00 0.  1.
         21    1    1    2  503  502 -0.36129908586E+02  0.20393208468E+02 -0.98296212760E+01  0.42636541845E+02  0.00000000000E+00 0.  1.
          1    1    1    2  501    0 -0.86692870219E+02  0.82902184812E+02  0.29384528742E+02  0.12349848794E+03  0.00000000000E+00 0. -1.
<scales pt_clust_5="13000.00000" pt_clust_6="13000.00000" pt_clust_7="13000.00000" pt_clust_8="13000.00000" pt_clust_9="41.48799" pt_clust_10="13000.00000"></scales>
<clustering>
<clus scale="   41.488">  2  9  1 -1</clus>
<clus scale="   80.319">  5  6 -1 -1</clus>
<clus scale="   91.515">  7  8 -1 -1</clus>
<clus scale="  128.684">  1  5  2 -1</clus>
<clus scale="  103.822">  7 10 -1 -1</clus>
<clus scale="   41.488">  2  5  1 -1</clus>
</clustering>
</event>
<event>
10    4  0.2866397E-005  0.4742081E+03  0.7546771E-02  0.1053625E+00
         21   -1    0    0  503  502  0.00000000000E+00  0.00000000000E+00  0.51091647458E+03  0.51091647458E+03  0.00000000000E+00 0.  1.
          2   -1    0    0  502    0 -0.00000000000E+00 -0.00000000000E+00 -0.97654283926E+03  0.97654283926E+03  0.00000000000E+00 0. -1.
         24    2    1    2    0    0 -0.47364766291E+03 -0.12536811305E+03 -0.39700079198E+03  0.63578663296E+03  0.80967533378E+02 0.  0.
         23    2    1    2    0    0  0.44894208302E+01  0.19651676241E+02 -0.77948831582E+02  0.12088744280E+03  0.90174332292E+02 0.  0.
        -11    1    3    3    0    0 -0.14465307245E+03 -0.36053154734E+00 -0.11709946501E+03  0.18610998377E+03  0.00000000000E+00 0.  1.
         12    1    3    3    0    0 -0.32899459046E+03 -0.12500758150E+03 -0.27990132697E+03  0.44967664919E+03  0.00000000000E+00 0. -1.
        -13    1    4    4    0    0  0.93631999636E+01 -0.24278251188E+02 -0.71665828168E+02  0.76243648400E+02  0.00000000000E+00 0.  1.
         13    1    4    4    0    0 -0.48737791334E+01  0.43929927429E+02 -0.62830034141E+01  0.44643794405E+02  0.00000000000E+00 0. -1.
         21    1    1    2  503  501  0.47419755394E+03  0.31632905052E+01  0.19965499854E+03  0.51452448436E+03  0.00000000000E+00 0.  1.
          1    1    1    2  501    0 -0.50393118557E+01  0.10255314630E+03 -0.19033173965E+03  0.21626075372E+03  0.00000000000E+00 0. -1.
<scales pt_clust_5="13000.00000" pt_clust_6="13000.00000" pt_clust_7="13000.00000" pt_clust_8="13000.00000" pt_clust_9="474.20810" pt_clust_10="13000.00000"></scales>
<clustering>
<clus scale="   80.968">  5  6 -1 -1</clus>
<clus scale="   90.174">  7  8 -1 -1</clus>
<clus scale="  102.677">  7 10 -1 -1</clus>
<clus scale="  474.208">  1  9  2 -1</clus>
<clus scale="  181.147">  2  5  1 -1</clus>
<clus scale="  474.208">  1  5  2 -1</clus>
</clustering>
</event>
<event>
10    4  0.2866397E-005  0.1513707E+03  0.7546771E-02  0.1223760E+00
          2   -1    0    0  503    0 -0.00000000000E+00  0.00000000000E+00  0.65945804608E+03  0.65945804608E+03  0.00000000000E+00 0. -1.
         21   -1    0    0  501  502  0.00000000000E+00 -0.00000000000E+00 -0.51334719185E+02  0.51334719185E+02  0.00000000000E+00 0. -1.
         24    2    1    2    0    0  0.12101910802E+02 -0.22428946365E+02  0.16341677601E+03  0.18387088389E+03  0.80336451137E+02 0.  0.
         23    2    1    2    0    0 -0.87910404251E+02  0.10148920014E+02  0.39534252501E+03  0.41353423956E+03  0.82967556618E+02 0.  0.
        -11    1    3    3    0    0  0.29642462723E+01  0.21842042163E+02  0.11707946682E+03  0.11913632155E+03  0.00000000000E+00 0.  1.
         12    1    3    3    0    0  0.91376645297E+01 -0.44270988528E+02  0.46337309186E+02  0.64734562337E+02  0.00000000000E+00 0. -1.
        -13    1    4    4    0    0 -0.66795292698E+02  0.17126366882E+02  0.38073177695E+03  0.38692584502E+03  0.00000000000E+00 0. -1.
         13    1    4    4    0    0 -0.21115111553E+02 -0.69774468682E+01  0.14610748063E+02  0.26608394534E+02  0.00000000000E+00 0.  1.
         21    1    1    2  503  502  0.44474789232E+02  0.16600551065E+01 -0.98271161708E+01  0.45577789244E+02  0.00000000000E+00 0. -1.
          1    1    1    2  501    0  0.31333704218E+02  0.10619971245E+02  0.59191142046E+02  0.67809852573E+02  0.00000000000E+00 0. -1.
<scales pt_clust_5="13000.00000" pt_clust_6="13000.00000" pt_clust_7="13000.00000" pt_clust_8="13000.00000" pt_clust_9="44.50576" pt_clust_10="13000.00000"></scales>
<clustering>
<clus scale="   44.506">  2  9  1 -1</clus>
<clus scale="   80.336">  5  6 -1 -1</clus>
<clus scale="   82.968">  7  8 -1 -1</clus>
<clus scale="   40.928">  7 10 -1 -1</clus>
<clus scale="   88.927">  1  5  2 -1</clus>
<clus scale="   44.506">  2  5  1 -1</clus>
</clustering>
</event>
<event>
10    4  0.2866397E-005  0.1502956E+03  0.7546771E-02  0.1229792E+00
          4   -1    0    0  503    0 -0.00000000000E+00  0.00000000000E+00  0.15424355819E+03  0.15424355819E+03  0.00000000000E+00 0. -1.
         21   -1    0    0  501  502  0.00000000000E+00 -0.00000000000E+00 -0.20033818844E+03  0.20033818844E+03  0.00000000000E+00 0.  1.
         24    2    1    2    0    0  0.19859459626E+02  0.10475321457E+02 -0.20585998185E+02  0.85688237964E+02  0.80090950224E+02 0.  0.
         23    2    1    2    0    0  0.75791071811E+02  0.22843254502E+02 -0.58641843261E+02  0.13403113704E+03  0.90881126054E+02 0.  0.
        -11    1    3    3    0    0  0.11873476558E+02 -0.34389532313E+02 -0.18856752758E+01  0.36430415171E+02  0.00000000000E+00 0.  1.
         12    1    3    3    0    0  0.79859830683E+01  0.44864853770E+02 -0.18700322909E+02  0.49257822793E+02  0.00000000000E+00 0. -1.
        -11    1    4    4    0    0  0.59338443858E+02  0.51517104863E+02 -0.16200986465E+02  0.80234250638E+02  0.00000000000E+00 0.  1.
         11    1    4    4    0    0  0.16452627953E+02 -0.28673850360E+02 -0.42440856796E+02  0.53796886403E+02  0.00000000000E+00 0. -1.
         21    1    1    2  503  502 -0.60277401447E+02 -0.29846503863E+02  0.60136415496E+02  0.90225092889E+02  0.00000000000E+00 0. -1.
          3    1    1    2  501    0 -0.35373129990E+02 -0.34720720959E+01 -0.27003204304E+02  0.44637278732E+02  0.00000000000E+00 0. -1.
<scales pt_clust_5="13000.00000" pt_clust_6="13000.00000" pt_clust_7="13000.00000" pt_clust_8="13000.00000" pt_clust_9="67.26205" pt_clust_10="13000.00000"></scales>
<clustering>
<clus scale="   67.262">  2  9  1 -1</clus>
<clus scale="   80.091">  5  6 -1 -1</clus>
<clus scale="   80.155">  1  5  2 -1</clus>
<clus scale="   90.881">  7  8 -1 -1</clus>
<clus scale="   47.023">  7 10 -1 -1</clus>
<clus scale="   67.262">  2  5  1 -1</clus>
</clustering>
</event>
<event>
10    4  0.2866397E-005  0.1701003E+03  0.7546771E-02  0.1207304E+00
         21   -1    0    0  503  502  0.00000000000E+00  0.00000000000E+00  0.11542833749E+03  0.11542833749E+03  0.00000000000E+00 0.  1.
         -3   -1    0    0    0  501 -0.00000000000E+00 -0.00000000000E+00 -0.51129852402E+03  0.51129852402E+03  0.00000000000E+00 0.  1.
         24    2    1    2    0    0 -0.21259832939E+02  0.14475261370E+02 -0.49819470529E+02  0.97810114519E+02  0.80145649727E+02 0.  0.
         23    2    1    2    0    0  0.47002197016E+02  0.27779878859E+02 -0.36546448415E+03  0.38076135928E+03  0.91836786501E+02 0.  0.
        -11    1    3    3    0    0  0.27299978648E+02  0.14354312873E+02 -0.35826101920E+02  0.47274144212E+02  0.00000000000E+00 0.  1.
         12    1    3    3    0    0 -0.48559811587E+02  0.12094849709E+00 -0.13993368609E+02  0.50535970307E+02  0.00000000000E+00 0. -1.
        -11    1    4    4    0    0 -0.17473718107E+02 -0.20023767672E+02 -0.90386767710E+02  0.94212790391E+02  0.00000000000E+00 0. -1.
         11    1    4    4    0    0  0.64475915123E+02  0.47803646531E+02 -0.27507771644E+03  0.28654856889E+03  0.00000000000E+00 0.  1.
         21    1    1    2  503  501 -0.21151172972E+02  0.60632641419E+01  0.72771391724E+02  0.76025066548E+02  0.00000000000E+00 0.  1.
         -4    1    1    2    0  502 -0.45911911054E+01 -0.48318404370E+02 -0.53357623579E+02  0.72130321160E+02  0.00000000000E+00 0.  1.
<scales pt_clust_5="13000.00000" pt_clust_6="13000.00000" pt_clust_7="13000.00000" pt_clust_8="13000.00000" pt_clust_9="22.00307" pt_clust_10="13000.00000"></scales>
<clustering>
<clus scale="   22.003">  1  9  2 -1</clus>
<clus scale="   80.146">  5  6 -1 -1</clus>
<clus scale="   88.764">  2  5  1 -1</clus>
<clus scale="   91.837">  7  8 -1 -1</clus>
<clus scale="   46.567">  7 10 -1 -1</clus>
<clus scale="   22.003">  1  5  2 -1</clus>
</clustering>
</event>
<event>
10    4  0.2866397E-005  0.1851280E+03  0.7546771E-02  0.1179575E+00
          2   -1    0    0  502    0 -0.00000000000E+00  0.00000000000E+00  0.96658954447E+03  0.96658954447E+03  0.00000000000E+00 0. -1.
         21   -1    0    0  503  502  0.00000000000E+00 -0.00000000000E+00 -0.84465430617E+02  0.84465430617E+02  0.00000000000E+00 0. -1.
         24    2    1    2    0    0 -0.18421998188E+02  0.77313712131E+02  0.63955819471E+02  0.13034415483E+03  0.81132433421E+02 0.  0.
         23    2    1    2    0    0  0.23058320423E+02 -0.12200474057E+03  0.81453438194E+03  0.82869080875E+03  0.88574004527E+02 0.  0.
        -11    1    3    3    0    0 -0.27233602107E+02 -0.54148040043E+01  0.46014940210E+01  0.28145389203E+02  0.00000000000E+00 0.  1.
         12    1    3    3    0    0  0.88116039196E+01  0.82728516136E+02  0.59354325450E+02  0.10219876562E+03  0.00000000000E+00 0. -1.
        -11    1    4    4    0    0  0.48928747585E+02 -0.33989287423E+02  0.27125424515E+03  0.27771956992E+03  0.00000000000E+00 0.  1.
         11    1    4    4    0    0 -0.25870427163E+02 -0.88015453147E+02  0.54328013679E+03  0.55097123883E+03  0.00000000000E+00 0. -1.
         21    1    1    2  503  501 -0.92629529294E+01  0.21551439694E+02 -0.37712937747E+02  0.44413202129E+02  0.00000000000E+00 0. -1.
          1    1    1    2  501    0  0.46266306946E+01  0.23139588745E+02  0.41346850182E+02  0.47606809375E+02  0.00000000000E+00 0. -1.
<scales pt_clust_5="13000.00000" pt_clust_6="13000.00000" pt_clust_7="13000.00000" pt_clust_8="13000.00000" pt_clust_9="23.45777" pt_clust_10="13000.00000"></scales>
<clustering>
<clus scale="   23.458">  2  9  1 -1</clus>
<clus scale="   81.132">  5  6 -1 -1</clus>
<clus scale="   88.574">  7  8 -1 -1</clus>
<clus scale="   25.009">  7 10 -1 -1</clus>
<clus scale="  126.613">  1  5  2 -1</clus>
<clus scale="   23.458">  2  5  1 -1</clus>
</clustering>
</event>
<event>
10    4  0.2866397E-005  0.3158329E+03  0.7546771E-02  0.1087301E+00
         -3   -1    0    0    0  501 -0.00000000000E+00  0.00000000000E+00  0.19953711316E+03  0.19953711316E+03  0.00000000000E+00 0.  1.
         21   -1    0    0  501  502  0.00000000000E+00 -0.00000000000E+00 -0.65714683835E+03  0.65714683835E+03  0.00000000000E+00 0.  1.
         24    2    1    2    0    0 -0.22654247529E+03 -0.48133421882E+01  0.23205664549E+02  0.24157136950E+03  0.80458450892E+02 0.  0.
         23    2    1    2    0    0  0.26108693853E+02 -0.51766340594E+02 -0.80920630380E+02  0.13319749270E+03  0.88498619911E+02 0.  0.
        -11    1    3    3    0    0 -0.15130386568E+03  0.34184914609E+02  0.23087245462E+02  0.15682630219E+03  0.00000000000E+00 0.  1.
         12    1    3    3    0    0 -0.75238609612E+02 -0.38998256797E+02  0.11841908641E+00  0.84745067306E+02  0.00000000000E+00 0. -1.
        -13    1    4    4    0    0  0.17694669174E+02  0.13712107800E+02 -0.59850202196E+02  0.63899686387E+02  0.00000000000E+00 0.  1.
         13    1    4    4    0    0  0.84140246791E+01 -0.65478448394E+02 -0.21070428184E+02  0.69297806309E+02  0.00000000000E+00 0. -1.
         21    1    1    2  503  502 -0.15117856776E+02  0.38991856557E+02 -0.12703945699E+03  0.13374579659E+03  0.00000000000E+00 0.  1.
         -4    1    1    2    0  503  0.21555163822E+03  0.17587826225E+02 -0.27285530236E+03  0.34816929273E+03  0.00000000000E+00 0.  1.
<scales pt_clust_5="13000.00000" pt_clust_6="13000.00000" pt_clust_7="13000.00000" pt_clust_8="13000.00000" pt_clust_9="41.82002" pt_clust_10="13000.00000"></scales>
<clustering>
<clus scale="   41.820">  2  9  1 -1</clus>
<clus scale="   80.458">  5  6 -1 -1</clus>
<clus scale="   88.499">  7  8 -1 -1</clus>
<clus scale="  210.586">  7 10 -1 -1</clus>
<clus scale="  243.383">  1  5  2 -1</clus>
<clus scale="   41.820">  2  5  1 -1</clus>
</clustering>
</event>
<event>
10    4  0.2866397E-005  0.8263515E+03  0.7546771E-02  0.1023030E+00
          2   -1    0    0  502    0 -0.00000000000E+00  0.00000000000E+00  0.14252304271E+04  0.14252304271E+04  0.00000000000E+00 0. -1.
         21   -1    0    0  503  502  0.00000000000E+00 -0.00000000000E+00 -0.35622161231E+03  0.35622161231E+03  0.00000000000E+00 0.  1.
         24    2    1    2    0    0 -0.22169937475E+02  0.41508827372E+01  0.89598799385E+03  0.89988809577E+03  0.80593819976E+02 0.  0.
         23    2    1    2    0    0  0.20991730301E+03 -0.18203747120E+03 -0.21857153554E+03  0.36524614698E+03  0.91805864238E+02 0.  0.
        -13    1    3    3    0    0  0.51375079031E+01  0.28288384152E+02  0.13498968329E+03  0.13801753969E+03  0.00000000000E+00 0.  1.
         14    1    3    3    0    0 -0.27307445378E+02 -0.24137501414E+02  0.76099831056E+03  0.76187055608E+03  0.00000000000E+00 0. -1.
        -13    1    4    4    0    0  0.84494773702E+02 -0.65646159190E+02 -0.31096605475E+02  0.11142613639E+03  0.00000000000E+00 0. -1.
         13    1    4    4    0    0  0.12542252931E+03 -0.11639131201E+03 -0.18747493007E+03  0.25382001058E+03  0.00000000000E+00 0.  1.
         21    1    1    2  503  501  0.38054756934E+02  0.21094257768E+01  0.10095062833E+02  0.39427458656E+02  0.00000000000E+00 0. -1.
          1    1    1    2  501    0 -0.22580212247E+03  0.17577716268E+03  0.38149729368E+03  0.47689033804E+03  0.00000000000E+00 0. -1.
<scales pt_clust_5="13000.00000" pt_clust_6="13000.00000" pt_clust_7="13000.00000" pt_clust_8="13000.00000" pt_clust_9="38.11318" pt_clust_10="13000.00000"></scales>
<clustering>
<clus scale="   38.113">  2  9  1 -1</clus>
<clus scale="   80.594">  5  6 -1 -1</clus>
<clus scale="   83.634">  1  5  2 -1</clus>
<clus scale="   91.806">  7  8 -1 -1</clus>
<clus scale="  298.031">  7 10 -1 -1</clus>
<clus scale="   38.113">  2  5  1 -1</clus>
</clustering>
</event>
<event>
10    4  0.2866397E-005  0.3255931E+03  0.7546771E-02  0.1118294E+00
          2   -1    0    0  503    0 -0.00000000000E+00  0.00000000000E+00  0.44243410220E+03  0.44243410220E+03  0.00000000000E+00 0. -1.
         21   -1    0    0  501  502  0.00000000000E+00 -0.00000000000E+00 -0.54252032658E+03  0.54252032658E+03  0.00000000000E+00 0. -1.
         24    2    1    2    0    0 -0.12058053229E+01 -0.60397097882E+02  0.36722855188E+03  0.38060084309E+03  0.79692716393E+02 0.  0.
         23    2    1    2    0    0 -0.77545945685E+02  0.32019975191E+02  0.22906970966E+01  0.12522624613E+03  0.92939296985E+02 0.  0.
        -13    1    3    3    0    0 -0.33671298030E+01 -0.42869836246E+02  0.65490593789E+02  0.78346527030E+02  0.00000000000E+00 0.  1.
         14    1    3    3    0    0  0.21613244800E+01 -0.17527261636E+02  0.30173795809E+03  0.30225431606E+03  0.00000000000E+00 0. -1.
        -11    1    4    4    0    0 -0.61482252635E+01  0.38361338379E+02 -0.27504635127E+02  0.47601448608E+02  0.00000000000E+00 0.  1.
         11    1    4    4    0    0 -0.71397720422E+02 -0.63413631886E+01  0.29795332223E+02  0.77624797525E+02  0.00000000000E+00 0. -1.
         21    1    1    2  503  502  0.69221737817E+01  0.19378442555E+02 -0.15135683418E+03  0.15274924477E+03  0.00000000000E+00 0. -1.
          1    1    1    2  501    0  0.71829577226E+02  0.89986801362E+01 -0.31824863918E+03  0.32637809478E+03  0.00000000000E+00 0. -1.
<scales pt_clust_5="13000.00000" pt_clust_6="13000.00000" pt_clust_7="13000.00000" pt_clust_8="13000.00000" pt_clust_9="20.57767" pt_clust_10="13000.00000"></scales>
<clustering>
<clus scale="   20.578">  2  9  1 -1</clus>
<clus scale="   79.693">  5  6 -1 -1</clus>
<clus scale="   92.939">  7  8 -1 -1</clus>
<clus scale="   81.472">  7 10 -1 -1</clus>
<clus scale="   99.800">  1  5  2 -1</clus>
<clus scale="   20.578">  2  5  1 -1</clus>
</clustering>
</event>
<event>
10    4  0.2866397E-005  0.2822510E+03  0.7546771E-02  0.1138073E+00
         21   -1    0    0  501  502  0.00000000000E+00  0.00000000000E+00  0.92731839322E+03  0.92731839322E+03  0.00000000000E+00 0.  1.
         -1   -1    0    0    0  501 -0.00000000000E+00 -0.00000000000E+00 -0.81294609265E+02  0.81294609265E+02  0.00000000000E+00 0.  1.
         24    2    1    2    0    0  0.20395471071E+02 -0.42721253932E+02  0.14058196417E+03  0.16916657708E+03  0.81320116661E+02 0.  0.
         23    2    1    2    0    0  0.62502985182E+01 -0.52661253833E+02  0.58887224206E+02  0.12054104835E+03  0.90830420436E+02 0.  0.
        -11    1    3    3    0    0 -0.24770659533E+02 -0.32572519872E+02  0.98273944603E+02  0.10645338328E+03  0.00000000000E+00 0.  1.
         12    1    3    3    0    0  0.45166130604E+02 -0.10148734060E+02  0.42308019569E+02  0.62713193800E+02  0.00000000000E+00 0. -1.
        -13    1    4    4    0    0  0.40579653565E+02 -0.43806019684E+01  0.42827469338E+02  0.59161559200E+02  0.00000000000E+00 0.  1.
         13    1    4    4    0    0 -0.34329355046E+02 -0.48280651865E+02  0.16059754868E+02  0.61379489154E+02  0.00000000000E+00 0. -1.
         21    1    1    2  503  502 -0.66615624791E+02 -0.77139326735E+02  0.41534680192E+03  0.42766936185E+03  0.00000000000E+00 0.  1.
         -2    1    1    2    0  503  0.39969855202E+02  0.17252183450E+03  0.23120779366E+03  0.29123601520E+03  0.00000000000E+00 0.  1.
<scales pt_clust_5="13000.00000" pt_clust_6="13000.00000" pt_clust_7="13000.00000" pt_clust_8="13000.00000" pt_clust_9="103.74621" pt_clust_10="13000.00000"></scales>
<clustering>
<clus scale="   81.320">  5  6 -1 -1</clus>
<clus scale="   90.830">  7  8 -1 -1</clus>
<clus scale="   94.096">  2  5  1 -1</clus>
<clus scale="  103.746">  1  9  2 -1</clus>
<clus scale="  109.234">  7 10 -1 -1</clus>
<clus scale="  103.746">  1  5  2 -1</clus>
</clustering>
</event>
<event>
10    4  0.2866397E-005  0.1922507E+03  0.7546771E-02  0.1183814E+00
          2   -1    0    0  503    0 -0.00000000000E+00  0.00000000000E+00  0.48070098353E+03  0.48070098353E+03  0.00000000000E+00 0. -1.
         21   -1    0    0  501  502  0.00000000000E+00 -0.00000000000E+00 -0.22082827238E+03  0.22082827238E+03  0.00000000000E+00 0.  1.
         24    2    1    2    0    0 -0.41122910504E+02  0.50488571594E+02  0.37164093588E+03  0.38579741121E+03  0.80513773042E+02 0.  0.
         23    2    1    2    0    0 -0.40976626135E+02 -0.14542258855E+02  0.24182315937E+02  0.10353891683E+03  0.90801771529E+02 0.  0.
        -11    1    3    3    0    0 -0.12436688170E+02  0.22199968488E+02  0.21404856234E+02  0.33251732044E+02  0.00000000000E+00 0.  1.
         12    1    3    3    0    0 -0.28686222334E+02  0.28288603106E+02  0.35023607964E+03  0.35254567917E+03  0.00000000000E+00 0. -1.
        -11    1    4    4    0    0  0.44329345921E+01 -0.23894265698E+02 -0.25746209337E+02  0.35404154241E+02  0.00000000000E+00 0.  1.
         11    1    4    4    0    0 -0.45409560727E+02  0.93520068425E+01  0.49928525274E+02  0.68134762592E+02  0.00000000000E+00 0. -1.
         21    1    1    2  503  502 -0.13331455212E+01 -0.21767276433E+02 -0.12496538688E+03  0.12685400868E+03  0.00000000000E+00 0.  1.
          1    1    1    2  501    0  0.83432682160E+02 -0.14179036306E+02 -0.10985153777E+02  0.85338919178E+02  0.00000000000E+00 0. -1.
<scales pt_clust_5="13000.00000" pt_clust_6="13000.00000" pt_clust_7="13000.00000" pt_clust_8="13000.00000" pt_clust_9="21.80806" pt_clust_10="13000.00000"></scales>
<clustering>
<clus scale="   21.808">  2  9  1 -1</clus>
<clus scale="   80.514">  5  6 -1 -1</clus>
<clus scale="   90.802">  7  8 -1 -1</clus>
<clus scale="   86.515">  7 10 -1 -1</clus>
<clus scale="  102.808">  1  5  2 -1</clus>
<clus scale="   21.808">  2  5  1 -1</clus>
</clustering>
</event>
<event>
10    4  0.2866397E-005  0.4147084E+03  0.7546771E-02  0.1089100E+00
         21   -1    0    0  503  502  0.00000000000E+00  0.00000000000E+00  0.16451655428E+03  0.16451655428E+03  0.00000000000E+00 0. -1.
          2   -1    0    0  502    0 -0.00000000000E+00 -0.00000000000E+00 -0.81462375727E+03  0.81462375727E+03  0.00000000000E+00 0. -1.
         24    2    1    2    0    0  0.18597095027E+02  0.59911372176E+02 -0.45613235600E+03  0.46751946697E+03  0.81132615757E+02 0.  0.
         23    2    1    2    0    0  0.96492908585E+01  0.16296454291E+03 -0.11593213784E+03  0.22015169083E+03  0.91520245482E+02 0.  0.
        -11    1    3    3    0    0 -0.20417129629E+02  0.41162197597E+02 -0.11803860734E+03  0.12666609063E+03  0.00000000000E+00 0.  1.
         12    1    3    3    0    0  0.39014224656E+02  0.18749174580E+02 -0.33809374867E+03  0.34085337634E+03  0.00000000000E+00 0. -1.
        -13    1    4    4    0    0 -0.31223735036E+02  0.72380189628E+02 -0.85329689394E+02  0.11616784999E+03  0.00000000000E+00 0.  1.
         13    1    4    4    0    0  0.40873025894E+02  0.90584353277E+02 -0.30602448449E+02  0.10398384084E+03  0.00000000000E+00 0. -1.
         21    1    1    2  503  501 -0.20976678654E+02  0.40866302377E+01  0.32512732364E+02  0.38907574581E+02  0.00000000000E+00 0. -1.
          1    1    1    2  501    0 -0.72697072322E+01 -0.22696254532E+03 -0.11055544151E+03  0.25256157916E+03  0.00000000000E+00 0. -1.
<scales pt_clust_5="13000.00000" pt_clust_6="13000.00000" pt_clust_7="13000.00000" pt_clust_8="13000.00000" pt_clust_9="21.37105" pt_clust_10="13000.00000"></scales>
<clustering>
<clus scale="   21.371">  1  9  2 -1</clus>
<clus scale="   81.133">  5  6 -1 -1</clus>
<clus scale="   91.520">  7  8 -1 -1</clus>
<clus scale="  102.498">  2  5  1 -1</clus>
<clus scale="  194.198">  7 10 -1 -1</clus>
<clus scale="   21.371">  1  5  2 -1</clus>
</clustering>
</event>
<event>
10    4  0.2866397E-005  0.4068765E+03  0.7546771E-02  0.1062036E+00
         21   -1    0    0  501  502  0.00000000000E+00  0.00000000000E+00  0.12133030258E+04  0.12133030258E+04  0.00000000000E+00 0. -1.
          2   -1    0    0  503    0 -0.00000000000E+00 -0.00000000000E+00 -0.39618742988E+03  0.39618742988E+03  0.00000000000E+00 0. -1.
         24    2    1    2    0    0 -0.11488140071E+03  0.20734325906E+03 -0.29031236188E+02  0.25221141886E+03  0.81109948952E+02 0.  0.
         23    2    1    2    0    0 -0.30038664727E+02  0.87159968226E+02 -0.23393449437E+02  0.13273290377E+03  0.92582875448E+02 0.  0.
        -13    1    3    3    0    0 -0.44566366835E+02  0.14142540159E+03  0.91025680093E+01  0.14856029756E+03  0.00000000000E+00 0.  1.
         14    1    3    3    0    0 -0.70315033880E+02  0.65917857476E+02 -0.38133804197E+02  0.10365112130E+03  0.00000000000E+00 0. -1.
        -13    1    4    4    0    0  0.17016486988E+02  0.29285361653E+02  0.26490755737E+02  0.42999457858E+02  0.00000000000E+00 0.  1.
         13    1    4    4    0    0 -0.47055151715E+02  0.57874606573E+02 -0.49884205174E+02  0.89733445909E+02  0.00000000000E+00 0. -1.
         21    1    1    2  503  502 -0.83934032418E+02 -0.14183168023E+03  0.92865155339E+03  0.94316215729E+03  0.00000000000E+00 0. -1.
          1    1    1    2  501    0  0.22885409786E+03 -0.15267154706E+03 -0.59111271808E+02  0.28138397581E+03  0.00000000000E+00 0. -1.
<scales pt_clust_5="13000.00000" pt_clust_6="13000.00000" pt_clust_7="13000.00000" pt_clust_8="13000.00000" pt_clust_9="164.80639" pt_clust_10="13000.00000"></scales>
<clustering>
<clus scale="   81.110">  5  6 -1 -1</clus>
<clus scale="   92.583">  7  8 -1 -1</clus>
<clus scale="  164.806">  1  9  2 -1</clus>
<clus scale="  226.409">  2  5  1 -1</clus>
<clus scale="  136.221">  7 10 -1 -1</clus>
<clus scale="  164.806">  1  5  2 -1</clus>
</clustering>
</event>
<event>
10    4  0.2866397E-005  0.2491614E+03  0.7546771E-02  0.1152128E+00
         21   -1    0    0  501  502  0.00000000000E+00  0.00000000000E+00  0.38525767645E+02  0.38525767645E+02  0.00000000000E+00 0. -1.
          2   -1    0    0  503    0 -0.00000000000E+00 -0.00000000000E+00 -0.13076704810E+04  0.13076704810E+04  0.00000000000E+00 0. -1.
         24    2    1    2    0    0  0.46086593106E+02  0.11514068260E+02 -0.31582547430E+03  0.32947732427E+03  0.80950782309E+02 0.  0.
         23    2    1    2    0    0  0.43677604947E+02  0.82950300300E+02 -0.39365648481E+03  0.41536847372E+03  0.93685940401E+02 0.  0.
        -11    1    3    3    0    0  0.20175811039E+02  0.38249645505E+02 -0.25119373037E+03  0.25488897369E+03  0.00000000000E+00 0.  1.
         12    1    3    3    0    0  0.25910782067E+02 -0.26735577245E+02 -0.64631743932E+02  0.74588350576E+02  0.00000000000E+00 0. -1.
        -11    1    4    4    0    0  0.27970670625E+02 -0.98043660115E+01 -0.42400747795E+02  0.51733039942E+02  0.00000000000E+00 0.  1.
         11    1    4    4    0    0  0.15706934322E+02  0.92754666312E+02 -0.35125573702E+03  0.36363543377E+03  0.00000000000E+00 0. -1.
         21    1    1    2  503  502  0.32257440408E+02 -0.62304944162E+02 -0.85076529486E+02  0.11027449568E+03  0.00000000000E+00 0.  1.
          1    1    1    2  501    0 -0.12202163846E+03 -0.32159424399E+02 -0.47458622473E+03  0.49107595495E+03  0.00000000000E+00 0. -1.
<scales pt_clust_5="13000.00000" pt_clust_6="13000.00000" pt_clust_7="13000.00000" pt_clust_8="13000.00000" pt_clust_9="70.16016" pt_clust_10="13000.00000"></scales>
<clustering>
<clus scale="   70.160">  1  9  2 -1</clus>
<clus scale="   80.951">  5  6 -1 -1</clus>
<clus scale="   93.686">  7  8 -1 -1</clus>
<clus scale="   97.754">  2  5  1 -1</clus>
<clus scale="   98.888">  7 10 -1 -1</clus>
<clus scale="   70.160">  1  5  2 -1</clus>
</clustering>
</event>
<event>
10    4  0.2866397E-005  0.7347392E+03  0.7546771E-02  0.1031191E+00
         21   -1    0    0  503  502  0.00000000000E+00  0.00000000000E+00  0.74696082188E+03  0.74696082188E+03  0.00000000000E+00 0.  1.
          4   -1    0    0  502    0 -0.00000000000E+00 -0.00000000000E+00 -0.26823284095E+03  0.26823284095E+03  0.00000000000E+00 0. -1.
         24    2    1    2    0    0 -0.10215630965E+02 -0.25598593960E+02  0.10496299565E+03  0.14076902111E+03  0.89660692176E+02 0.  0.
         23    2    1    2    0    0  0.18037301239E+03 -0.52120040563E+02  0.47859133179E+03  0.52121397634E+03  0.85810395864E+02 0.  0.
        -13    1    3    3    0    0  0.22573525027E+02  0.23671865894E+02  0.24420920953E+02  0.40820370494E+02  0.00000000000E+00 0.  1.
         14    1    3    3    0    0 -0.32789155992E+02 -0.49270459854E+02  0.80542074695E+02  0.99948650621E+02  0.00000000000E+00 0. -1.
        -11    1    4    4    0    0  0.53425443427E+02  0.23034525306E+02  0.15578865227E+03  0.16629783985E+03  0.00000000000E+00 0.  1.
         11    1    4    4    0    0  0.12694756896E+03 -0.75154565869E+02  0.32280267952E+03  0.35491613649E+03  0.00000000000E+00 0. -1.
         21    1    1    2  503  501  0.47835294461E+02 -0.87121789316E-01  0.54270898133E+02  0.72343302182E+02  0.00000000000E+00 0. -1.
          3    1    1    2  501    0 -0.21799267589E+03  0.77805756313E+02 -0.15909724464E+03  0.28086736320E+03  0.00000000000E+00 0. -1.
<scales pt_clust_5="13000.00000" pt_clust_6="13000.00000" pt_clust_7="13000.00000" pt_clust_8="13000.00000" pt_clust_9="47.83537" pt_clust_10="13000.00000"></scales>
<clustering>
<clus scale="   47.835">  1  9  2 -1</clus>
<clus scale="   85.810">  7  8 -1 -1</clus>
<clus scale="   89.661">  5  6 -1 -1</clus>
<clus scale="   93.262">  2  5  1 -1</clus>
<clus scale="  222.249">  7 10 -1 -1</clus>
<clus scale="   47.835">  1  5  2 -1</clus>
</clustering>
</event>
<event>
10    4  0.2866397E-005  0.2064482E+03  0.7546771E-02  0.1174942E+00
         -3   -1    0    0    0  501 -0.00000000000E+00  0.00000000000E+00  0.10246065252E+03  0.10246065252E+03  0.00000000000E+00 0.  1.
         21   -1    0    0  503  502  0.00000000000E+00 -0.00000000000E+00 -0.51221494860E+03  0.51221494860E+03  0.00000000000E+00 0.  1.
         24    2    1    2    0    0 -0.13811467695E+02  0.55621571150E+02 -0.12710311840E+03  0.16257688619E+03  0.83615341890E+02 0.  0.
         23    2    1    2    0    0 -0.24977098123E+02  0.14515982348E+02 -0.21826914349E+01  0.94980512107E+02  0.90454211422E+02 0.  0.
        -13    1    3    3    0    0 -0.37036826436E+02  0.30480839843E+02 -0.23397217844E+02  0.53368885250E+02  0.00000000000E+00 0.  1.
         14    1    3    3    0    0  0.23225358741E+02  0.25140731306E+02 -0.10370590055E+03  0.10920800094E+03  0.00000000000E+00 0. -1.
        -13    1    4    4    0    0 -0.54269571865E+02 -0.11808034194E+02 -0.25168914724E+01  0.55596320424E+02  0.00000000000E+00 0.  1.
         13    1    4    4    0    0  0.29292473742E+02  0.26324016543E+02  0.33420003744E+00  0.39384191683E+02  0.00000000000E+00 0. -1.
         21    1    1    2  503  501  0.70878053651E+02 -0.13267755241E+03 -0.20037826141E+03  0.25055633907E+03  0.00000000000E+00 0.  1.
         -4    1    1    2    0  502 -0.32089487833E+02  0.62539998908E+02 -0.80090224841E+02  0.10656186376E+03  0.00000000000E+00 0.  1.
<scales pt_clust_5="13000.00000" pt_clust_6="13000.00000" pt_clust_7="13000.00000" pt_clust_8="13000.00000" pt_clust_9="134.03207" pt_clust_10="13000.00000"></scales>
<clustering>
<clus scale="   83.615">  5  6 -1 -1</clus>
<clus scale="   90.454">  7  8 -1 -1</clus>
<clus scale="   70.292">  7 10 -1 -1</clus>
<clus scale="  101.371">  1  5  2 -1</clus>
<clus scale="  134.032">  2  9  1 -1</clus>
<clus scale="  134.032">  2  5  1 -1</clus>
</clustering>
</event>
<event>
10    4  0.2866397E-005  0.1262351E+03  0.7546771E-02  0.1253383E+00
          2   -1    0    0  502    0 -0.00000000000E+00  0.00000000000E+00  0.15311966916E+04  0.15311966916E+04  0.00000000000E+00 0. -1.
         21   -1    0    0  503  502  0.00000000000E+00 -0.00000000000E+00 -0.35212905374E+02  0.35212905374E+02  0.00000000000E+00 0. -1.
         24    2    1    2    0    0  0.24849583067E+02 -0.16227589574E+01  0.12122730383E+04  0.12152125598E+04  0.80718715441E+02 0.  0.
         23    2    1    2    0    0  0.22406911749E+02  0.57752425782E+01  0.25246337728E+03  0.27002906660E+03  0.92965137680E+02 0.  0.
        -13    1    3    3    0    0  0.26706245175E+02  0.12304579082E+02  0.15044862800E+03  0.15329519191E+03  0.00000000000E+00 0.  1.
         14    1    3    3    0    0 -0.18566621083E+01 -0.13927338040E+02  0.10618244103E+04  0.10619173679E+04  0.00000000000E+00 0. -1.
        -13    1    4    4    0    0 -0.17697041679E+02  0.28598209853E+02  0.38383479878E+02  0.51032679908E+02  0.00000000000E+00 0.  1.
         13    1    4    4    0    0  0.40103953428E+02 -0.22822967275E+02  0.21407989740E+03  0.21899638670E+03  0.00000000000E+00 0. -1.
         21    1    1    2  503  501 -0.20119747204E+02 -0.57654536882E+01 -0.16212196680E+02  0.26474138418E+02  0.00000000000E+00 0. -1.
          1    1    1    2  501    0 -0.27136747612E+02  0.16129700674E+01  0.47459567381E+02  0.54693832188E+02  0.00000000000E+00 0. -1.
<scales pt_clust_5="13000.00000" pt_clust_6="13000.00000" pt_clust_7="13000.00000" pt_clust_8="13000.00000" pt_clust_9="20.92952" pt_clust_10="13000.00000"></scales>
<clustering>
<clus scale="   20.930">  2  9  1 -1</clus>
<clus scale="   80.719">  5  6 -1 -1</clus>
<clus scale="   83.884">  1  5  2 -1</clus>
<clus scale="   92.965">  7  8 -1 -1</clus>
<clus scale="   27.268">  7 10 -1 -1</clus>
<clus scale="   20.930">  2  5  1 -1</clus>
</clustering>
</event>
<event>
10    4  0.2866397E-005  0.2555751E+03  0.7546771E-02  0.1117811E+00
          2   -1    0    0  502    0 -0.00000000000E+00  0.00000000000E+00  0.82100352486E+03  0.82100352486E+03  0.00000000000E+00 0. -1.
         21   -1    0    0  503  502  0.00000000000E+00 -0.00000000000E+00 -0.11993871825E+03  0.11993871825E+03  0.00000000000E+00 0. -1.
         24    2    1    2    0    0  0.10149515901E+03  0.16767724767E+03  0.58210119997E+03  0.61946089732E+03  0.80455388959E+02 0.  0.
         23    2    1    2    0    0 -0.25990758954E+02 -0.54047666741E+02  0.11803345329E+03  0.16174722863E+03  0.92917167642E+02 0.  0.
        -13    1    3    3    0    0  0.54891134365E+02  0.38714018378E+02  0.12090261689E+03  0.13830854862E+03  0.00000000000E+00 0.  1.
         14    1    3    3    0    0  0.46604024641E+02  0.12896322929E+03  0.46119858308E+03  0.48115234870E+03  0.00000000000E+00 0. -1.
        -13    1    4    4    0    0 -0.41624374596E+02 -0.88784035895E+01  0.10330877272E+03  0.11173234595E+03  0.00000000000E+00 0. -1.
         13    1    4    4    0    0  0.15633615642E+02 -0.45169263151E+02  0.14724680574E+02  0.50014882682E+02  0.00000000000E+00 0.  1.
         21    1    1    2  503  501 -0.25781907528E+02 -0.29609717884E+01 -0.24592885076E+02  0.35753099252E+02  0.00000000000E+00 0.  1.
          1    1    1    2  501    0 -0.49722492525E+02 -0.11066860914E+03  0.25523038422E+02  0.12398101791E+03  0.00000000000E+00 0. -1.
<scales pt_clust_5="13000.00000" pt_clust_6="13000.00000" pt_clust_7="13000.00000" pt_clust_8="13000.00000" pt_clust_9="25.95138" pt_clust_10="13000.00000"></scales>
<clustering>
<clus scale="   25.951">  2  9  1 -1</clus>
<clus scale="   80.455">  5  6 -1 -1</clus>
<clus scale="   92.917">  7  8 -1 -1</clus>
<clus scale="  129.182">  7 10 -1 -1</clus>
<clus scale="  208.862">  1  5  2 -1</clus>
<clus scale="   25.951">  2  5  1 -1</clus>
</clustering>
</event>
<event>
10    4  0.2866397E-005  0.1570072E+03  0.7546771E-02  0.1207562E+00
         21   -1    0    0  501  502  0.00000000000E+00  0.00000000000E+00  0.12835193369E+03  0.12835193369E+03  0.00000000000E+00 0.  1.
          2   -1    0    0  503    0 -0.00000000000E+00 -0.00000000000E+00 -0.69389519303E+03  0.69389519303E+03  0.00000000000E+00 0. -1.
         24    2    1    2    0    0 -0.10868864889E+02 -0.58651787023E+02 -0.11659334165E+03  0.15429515950E+03  0.81577108207E+02 0.  0.
         23    2    1    2    0    0 -0.88399666326E-01  0.47402409620E+02 -0.46875169519E+03  0.47979189402E+03  0.90692411855E+02 0.  0.
        -11    1    3    3    0    0  0.10655941403E+02 -0.62178822882E+02 -0.40096626448E+02  0.74749545515E+02  0.00000000000E+00 0.  1.
         12    1    3    3    0    0 -0.21524806293E+02  0.35270358585E+01 -0.76496715198E+02  0.79545613984E+02  0.00000000000E+00 0. -1.
        -11    1    4    4    0    0 -0.44840427780E+02  0.26712348576E+02 -0.21035368747E+03  0.21673229423E+03  0.00000000000E+00 0.  1.
         11    1    4    4    0    0  0.44752028113E+02  0.20690061044E+02 -0.25839800772E+03  0.26305959979E+03  0.00000000000E+00 0. -1.
         21    1    1    2  503  502 -0.16484812661E+02 -0.25382729668E+02  0.95233847219E+02  0.99927562114E+02  0.00000000000E+00 0.  1.
          1    1    1    2  501    0  0.27442077217E+02  0.36632107072E+02 -0.75432069715E+02  0.88232511083E+02  0.00000000000E+00 0. -1.
<scales pt_clust_5="13000.00000" pt_clust_6="13000.00000" pt_clust_7="13000.00000" pt_clust_8="13000.00000" pt_clust_9="30.26602" pt_clust_10="13000.00000"></scales>
<clustering>
<clus scale="   30.266">  1  9  2 -1</clus>
<clus scale="   81.577">  5  6 -1 -1</clus>
<clus scale="   90.692">  7  8 -1 -1</clus>
<clus scale="   39.492">  7 10 -1 -1</clus>
<clus scale="  112.251">  2  5  1 -1</clus>
<clus scale="   30.266">  1  5  2 -1</clus>
</clustering>
</event>
<event>
10    4  0.2866397E-005  0.2231344E+03  0.7546771E-02  0.1165754E+00
         21   -1    0    0  501  502  0.00000000000E+00  0.00000000000E+00  0.40383767403E+02  0.40383767403E+02  0.00000000000E+00 0. -1.
          2   -1    0    0  503    0 -0.00000000000E+00 -0.00000000000E+00 -0.88644607358E+03  0.88644607358E+03  0.00000000000E+00 0. -1.
         24    2    1    2    0    0 -0.49181770303E+02  0.41806813969E+02 -0.13755134122E+03  0.17028064425E+03  0.76866573425E+02 0.  0.
         23    2    1    2    0    0  0.99688112786E+02  0.31397388055E+02 -0.32231466980E+03  0.35073120964E+03  0.90565552196E+02 0.  0.
        -11    1    3    3    0    0 -0.95442534594E+01 -0.22695698474E+02 -0.31568503789E+02  0.40034459342E+02  0.00000000000E+00 0.  1.
         12    1    3    3    0    0 -0.39637516844E+02  0.64502512443E+02 -0.10598283743E+03  0.13024618491E+03  0.00000000000E+00 0. -1.
        -11    1    4    4    0    0  0.24873628811E+02 -0.25536870494E+02 -0.15267756188E+03  0.15678414163E+03  0.00000000000E+00 0.  1.
         11    1    4    4    0    0  0.74814483976E+02  0.56934258549E+02 -0.16963710792E+03  0.19394706801E+03  0.00000000000E+00 0. -1.
         21    1    1    2  503  502 -0.82599017570E+01 -0.18637382729E+02 -0.88680022030E+01  0.22231047548E+02  0.00000000000E+00 0.  1.
          1    1    1    2  501    0 -0.42246440726E+02 -0.54566819295E+02 -0.37732829295E+03  0.38358693954E+03  0.00000000000E+00 0. -1.
<scales pt_clust_5="13000.00000" pt_clust_6="13000.00000" pt_clust_7="13000.00000" pt_clust_8="13000.00000" pt_clust_9="20.38573" pt_clust_10="13000.00000"></scales>
<clustering>
<clus scale="   20.386">  1  9  2 -1</clus>
<clus scale="   76.867">  5  6 -1 -1</clus>
<clus scale="   90.566">  7  8 -1 -1</clus>
<clus scale="   70.849">  7 10 -1 -1</clus>
<clus scale="   99.050">  2  5  1 -1</clus>
<clus scale="   20.386">  1  5  2 -1</clus>
</clustering>
</event>
<event>
10    4  0.2866397E-005  0.1749366E+03  0.7546771E-02  0.1188604E+00
          2   -1    0    0  503    0 -0.00000000000E+00  0.00000000000E+00  0.79675862058E+03  0.79675862058E+03  0.00000000000E+00 0. -1.
         21   -1    0    0  501  502  0.00000000000E+00 -0.00000000000E+00 -0.76834041405E+02  0.76834041405E+02  0.00000000000E+00 0.  1.
         24    2    1    2    0    0  0.85716632634E+02 -0.27926915747E+02  0.62861594984E+03  0.64120419071E+03  0.88642811645E+02 0.  0.
         23    2    1    2    0    0 -0.59973146550E+02  0.30486098958E+02  0.10307715628E+03  0.15385353228E+03  0.92302918218E+02 0.  0.
        -13    1    3    3    0    0  0.30087852287E+01  0.24788979768E+02  0.77336435353E+02  0.81267893658E+02  0.00000000000E+00 0.  1.
         14    1    3    3    0    0  0.82707847405E+02 -0.52715895515E+02  0.55127951449E+03  0.55993629705E+03  0.00000000000E+00 0. -1.
        -13    1    4    4    0    0 -0.31308418721E+02 -0.30993035373E+02  0.25902996433E+02  0.51105288852E+02  0.00000000000E+00 0. -1.
         13    1    4    4    0    0 -0.28664727830E+02  0.61479134331E+02  0.77174159849E+02  0.10274824343E+03  0.00000000000E+00 0.  1.
         21    1    1    2  503  502 -0.38284132960E+02  0.25875081708E+02 -0.33053485321E+01  0.46326234671E+02  0.00000000000E+00 0.  1.
          1    1    1    2  501    0  0.12540646876E+02 -0.28434264919E+02 -0.84631784122E+01  0.32208704327E+02  0.00000000000E+00 0. -1.
<scales pt_clust_5="13000.00000" pt_clust_6="13000.00000" pt_clust_7="13000.00000" pt_clust_8="13000.00000" pt_clust_9="46.20817" pt_clust_10="13000.00000"></scales>
<clustering>
<clus scale="   46.208">  2  9  1 -1</clus>
<clus scale="   88.643">  5  6 -1 -1</clus>
<clus scale="   92.303">  7  8 -1 -1</clus>
<clus scale="   18.479">  7 10 -1 -1</clus>
<clus scale="  122.666">  1  5  2 -1</clus>
<clus scale="   46.208">  2  5  1 -1</clus>
</clustering>
</event>
<event>
10    4  0.2866397E-005  0.5005689E+03  0.7546771E-02  0.1035268E+00
          4   -1    0    0  502    0 -0.00000000000E+00  0.00000000000E+00  0.11988121065E+04  0.11988121065E+04  0.00000000000E+00 0. -1.
         21   -1    0    0  503  502  0.00000000000E+00 -0.00000000000E+00 -0.16029380509E+03  0.16029380509E+03  0.00000000000E+00 0. -1.
         24    2    1    2    0    0  0.82634962057E+02 -0.22601314443E+03  0.54450484799E+03  0.60079039622E+03  0.80951172314E+02 0.  0.
         23    2    1    2    0    0  0.15429164715E+03  0.83844770252E+02  0.10597197951E+03  0.22403600549E+03  0.90145512560E+02 0.  0.
        -13    1    3    3    0    0  0.19951793878E+02 -0.57105574102E+02  0.66176589630E+02  0.89657468666E+02  0.00000000000E+00 0.  1.
         14    1    3    3    0    0  0.62683168178E+02 -0.16890757033E+03  0.47832825836E+03  0.51113292756E+03  0.00000000000E+00 0. -1.
        -11    1    4    4    0    0  0.11498993839E+03  0.93630193122E+02  0.53263280661E+02  0.15756356198E+03  0.00000000000E+00 0. -1.
         11    1    4    4    0    0  0.39301708760E+02 -0.97854228699E+01  0.52708698852E+02  0.66472443516E+02  0.00000000000E+00 0.  1.
         21    1    1    2  503  501  0.95969401782E+00 -0.41595671558E+02 -0.22260115964E+01  0.41666245722E+02  0.00000000000E+00 0. -1.
          3    1    1    2  501    0 -0.23788630323E+03  0.18376404574E+03  0.39026748547E+03  0.49261326412E+03  0.00000000000E+00 0. -1.
<scales pt_clust_5="13000.00000" pt_clust_6="13000.00000" pt_clust_7="13000.00000" pt_clust_8="13000.00000" pt_clust_9="41.60674" pt_clust_10="13000.00000"></scales>
<clustering>
<clus scale="   41.607">  2  9  1 -1</clus>
<clus scale="   80.951">  5  6 -1 -1</clus>
<clus scale="   90.146">  7  8 -1 -1</clus>
<clus scale="  261.519">  1  5  2 -1</clus>
<clus scale="  178.158">  7 10 -1 -1</clus>
<clus scale="   41.607">  2  5  1 -1</clus>
</clustering>
</event>
<event>
10    4  0.2866397E-005  0.2865206E+03  0.7546771E-02  0.1096032E+00
         21   -1    0    0  503  502  0.00000000000E+00  0.00000000000E+00  0.92180912839E+03  0.92180912839E+03  0.00000000000E+00 0.  1.
          2   -1    0    0  502    0 -0.00000000000E+00 -0.00000000000E+00 -0.13993380837E+03  0.13993380837E+03  0.00000000000E+00 0. -1.
         24    2    1    2    0    0 -0.83444146918E+02 -0.19843342479E+03  0.52734883214E+03  0.57856441980E+03  0.10149506082E+03 0.  0.
         23    2    1    2    0    0  0.93496411802E+02  0.17383113999E+03  0.10307405540E+03  0.24607891410E+03  0.10474601099E+03 0.  0.
        -13    1    3    3    0    0  0.28424098214E+01 -0.12319960878E+03  0.25934302603E+03  0.28713242249E+03  0.00000000000E+00 0.  1.
         14    1    3    3    0    0 -0.86286556739E+02 -0.75233816013E+02  0.26800580611E+03  0.29143199731E+03  0.00000000000E+00 0. -1.
        -13    1    4    4    0    0 -0.10248812283E+02  0.76266617191E+02  0.14323790286E+02  0.78273916595E+02  0.00000000000E+00 0.  1.
         13    1    4    4    0    0  0.10374522409E+03  0.97564522802E+02  0.88750265112E+02  0.16780499751E+03  0.00000000000E+00 0. -1.
         21    1    1    2  503  501 -0.18516373099E+02 -0.25668026867E+02  0.17718897168E+03  0.17999343144E+03  0.00000000000E+00 0.  1.
          1    1    1    2  501    0  0.84641082142E+01  0.50270311663E+02 -0.25736539203E+02  0.57106171407E+02  0.00000000000E+00 0. -1.
<scales pt_clust_5="13000.00000" pt_clust_6="13000.00000" pt_clust_7="13000.00000" pt_clust_8="13000.00000" pt_clust_9="31.64970" pt_clust_10="13000.00000"></scales>
<clustering>
<clus scale="   31.650">  1  9  2 -1</clus>
<clus scale="  101.495">  5  6 -1 -1</clus>
<clus scale="  104.746">  7  8 -1 -1</clus>
<clus scale="   50.380">  7 10 -1 -1</clus>
<clus scale="  258.984">  2  5  1 -1</clus>
<clus scale="   31.650">  1  5  2 -1</clus>
</clustering>
</event>
<event>
10    4  0.2866397E-005  0.2806275E+03  0.7546771E-02  0.1121662E+00
         21   -1    0    0  503  502  0.00000000000E+00  0.00000000000E+00  0.16173028954E+03  0.16173028954E+03  0.00000000000E+00 0. -1.
          2   -1    0    0  502    0 -0.00000000000E+00 -0.00000000000E+00 -0.37928288570E+03  0.37928288570E+03  0.00000000000E+00 0. -1.
         24    2    1    2    0    0  0.54683544383E+02  0.94537932453E+02 -0.79478767125E+02  0.15779954208E+03  0.81584988564E+02 0.  0.
         23    2    1    2    0    0 -0.63594348769E+02  0.21307166210E+02  0.49391902891E+01  0.11401148937E+03  0.92065126844E+02 0.  0.
        -11    1    3    3    0    0  0.15730909380E+02  0.26536035555E+02  0.15614420032E+02  0.34575031538E+02  0.00000000000E+00 0.  1.
         12    1    3    3    0    0  0.38952635002E+02  0.68001896898E+02 -0.95093187157E+02  0.12322451054E+03  0.00000000000E+00 0. -1.
        -11    1    4    4    0    0  0.12380046420E+01  0.31098175051E+02 -0.26886685061E+02  0.41128128824E+02  0.00000000000E+00 0.  1.
         11    1    4    4    0    0 -0.64832353411E+02 -0.97910088410E+01  0.31825875350E+02  0.72883360548E+02  0.00000000000E+00 0. -1.
         21    1    1    2  503  501  0.23679142551E+02  0.16578902326E+02  0.35920604662E+02  0.46106958624E+02  0.00000000000E+00 0.  1.
          1    1    1    2  501    0 -0.14768338165E+02 -0.13242400099E+03 -0.17893362399E+03  0.22309518516E+03  0.00000000000E+00 0. -1.
<scales pt_clust_5="13000.00000" pt_clust_6="13000.00000" pt_clust_7="13000.00000" pt_clust_8="13000.00000" pt_clust_9="28.90609" pt_clust_10="13000.00000"></scales>
<clustering>
<clus scale="   28.906">  1  9  2 -1</clus>
<clus scale="   81.585">  5  6 -1 -1</clus>
<clus scale="   92.065">  7  8 -1 -1</clus>
<clus scale="  129.812">  7 10 -1 -1</clus>
<clus scale="  143.279">  2  5  1 -1</clus>
<clus scale="   28.906">  1  5  2 -1</clus>
</clustering>
</event>
<event>
10    4  0.2866397E-005  0.8733745E+03  0.7546771E-02  0.9986760E-01
          2   -1    0    0  502    0 -0.00000000000E+00  0.00000000000E+00  0.13874849623E+04  0.13874849623E+04  0.00000000000E+00 0. -1.
         21   -1    0    0  503  502  0.00000000000E+00 -0.00000000000E+00 -0.45260432547E+03  0.45260432547E+03  0.00000000000E+00 0. -1.
         24    2    1    2    0    0 -0.52872800019E+02 -0.14738287531E+03  0.14162937506E+03  0.22600382020E+03  0.80632511737E+02 0.  0.
         23    2    1    2    0    0 -0.42968257555E+03 -0.10651078644E+03  0.46488150081E+03  0.64830215466E+03  0.90604694061E+02 0.  0.
        -11    1    3    3    0    0 -0.47240902194E+02 -0.11119430253E+03  0.14556434306E+03  0.18916884977E+03  0.00000000000E+00 0.  1.
         12    1    3    3    0    0 -0.56318978251E+01 -0.36188572786E+02 -0.39349679982E+01  0.36834970430E+02  0.00000000000E+00 0. -1.
        -13    1    4    4    0    0 -0.16435432905E+03 -0.12368032430E+01  0.14068551918E+03  0.21634761489E+03  0.00000000000E+00 0.  1.
         13    1    4    4    0    0 -0.26532824650E+03 -0.10527398320E+03  0.32419598163E+03  0.43195453977E+03  0.00000000000E+00 0. -1.
         21    1    1    2  503  501  0.96418585959E+02  0.11927153335E+03 -0.22831330962E+03  0.27504401418E+03  0.00000000000E+00 0. -1.
          1    1    1    2  501    0  0.38613678961E+03  0.13462212840E+03  0.55668307062E+03  0.69073929877E+03  0.00000000000E+00 0. -1.
<scales pt_clust_5="13000.00000" pt_clust_6="13000.00000" pt_clust_7="13000.00000" pt_clust_8="13000.00000" pt_clust_9="153.36963" pt_clust_10="13000.00000"></scales>
<clustering>
<clus scale="   80.633">  5  6 -1 -1</clus>
<clus scale="   90.605">  7  8 -1 -1</clus>
<clus scale="  153.370">  2  9  1 -1</clus>
<clus scale="  150.111">  1  5  2 -1</clus>
<clus scale="  409.582">  7 10 -1 -1</clus>
<clus scale="  153.370">  2  5  1 -1</clus>
</clustering>
</event>
<event>
10    4  0.2866397E-005  0.2936560E+03  0.7546771E-02  0.1134635E+00
          2   -1    0    0  502    0 -0.00000000000E+00  0.00000000000E+00  0.62438990486E+03  0.62438990486E+03  0.00000000000E+00 0. -1.
         21   -1    0    0  503  502  0.00000000000E+00 -0.00000000000E+00 -0.10139645370E+03  0.10139645370E+03  0.00000000000E+00 0.  1.
         24    2    1    2    0    0 -0.22348085634E+02 -0.19086838664E+02  0.93730711426E+02  0.12663824922E+03  0.79925312381E+02 0.  0.
         23    2    1    2    0    0  0.25153169135E+02 -0.20507284902E+02  0.16443112473E+02  0.99040177867E+02  0.92115960791E+02 0.  0.
        -13    1    3    3    0    0  0.21657597042E+02  0.65170398922E+01  0.32939859059E+01  0.22855495220E+02  0.00000000000E+00 0.  1.
         14    1    3    3    0    0 -0.44005682676E+02 -0.25603878556E+02  0.90436725521E+02  0.10378275400E+03  0.00000000000E+00 0. -1.
        -13    1    4    4    0    0  0.54754704268E+02 -0.99828489549E+01 -0.11685832808E+02  0.56870850189E+02  0.00000000000E+00 0.  1.
         13    1    4    4    0    0 -0.29601535133E+02 -0.10524435947E+02  0.28128945281E+02  0.42169327678E+02  0.00000000000E+00 0. -1.
         21    1    1    2  503  501 -0.23300912262E+02 -0.50802251818E+02 -0.18552529352E+02  0.58889707483E+02  0.00000000000E+00 0.  1.
          1    1    1    2  501    0  0.20495828761E+02  0.90396375384E+02  0.43137215662E+03  0.44121822399E+03  0.00000000000E+00 0. -1.
<scales pt_clust_5="13000.00000" pt_clust_6="13000.00000" pt_clust_7="13000.00000" pt_clust_8="13000.00000" pt_clust_9="55.89098" pt_clust_10="13000.00000"></scales>
<clustering>
<clus scale="   55.891">  2  9  1 -1</clus>
<clus scale="   79.925">  5  6 -1 -1</clus>
<clus scale="   90.827">  1  5  2 -1</clus>
<clus scale="   92.116">  7  8 -1 -1</clus>
<clus scale="   60.233">  7 10 -1 -1</clus>
<clus scale="   55.891">  2  5  1 -1</clus>
</clustering>
</event>
<event>
10    4  0.2866397E-005  0.8453897E+03  0.7546771E-02  0.9956547E-01
          2   -1    0    0  502    0 -0.00000000000E+00  0.00000000000E+00  0.22533783745E+04  0.22533783745E+04  0.00000000000E+00 0. -1.
         21   -1    0    0  503  502  0.00000000000E+00 -0.00000000000E+00 -0.17389130797E+03  0.17389130797E+03  0.00000000000E+00 0. -1.
         24    2    1    2    0    0  0.53231708245E+02 -0.15633481270E+03  0.56915598468E+03  0.59825646272E+03  0.81841748926E+02 0.  0.
         23    2    1    2    0    0 -0.25642831130E+03 -0.22891415080E+03  0.10716654127E+04  0.11289796012E+04  0.89280545911E+02 0.  0.
        -13    1    3    3    0    0 -0.17331025126E+02 -0.57312867060E+02  0.24012507516E+03  0.24747763714E+03  0.00000000000E+00 0.  1.
         14    1    3    3    0    0  0.70562733371E+02 -0.99021945635E+02  0.32903090952E+03  0.35077882558E+03  0.00000000000E+00 0. -1.
        -13    1    4    4    0    0 -0.62126569430E+02 -0.78416109862E+02  0.20451341128E+03  0.22767198402E+03  0.00000000000E+00 0.  1.
         13    1    4    4    0    0 -0.19430174187E+03 -0.15049804094E+03  0.86715200140E+03  0.90130761716E+03  0.00000000000E+00 0. -1.
         21    1    1    2  503  501 -0.37228717123E+01  0.19937479583E+02 -0.51080850369E+02  0.54960132281E+02  0.00000000000E+00 0. -1.
          1    1    1    2  501    0  0.20691947477E+03  0.36531148392E+03  0.48974651958E+03  0.64507348633E+03  0.00000000000E+00 0. -1.
<scales pt_clust_5="13000.00000" pt_clust_6="13000.00000" pt_clust_7="13000.00000" pt_clust_8="13000.00000" pt_clust_9="20.28208" pt_clust_10="13000.00000"></scales>
<clustering>
<clus scale="   20.282">  2  9  1 -1</clus>
<clus scale="   81.842">  5  6 -1 -1</clus>
<clus scale="   89.281">  7  8 -1 -1</clus>
<clus scale="  182.154">  1  5  2 -1</clus>
<clus scale="  393.103">  7 10 -1 -1</clus>
<clus scale="   20.282">  2  5  1 -1</clus>
</clustering>
</event>
<event>
10    4  0.2866397E-005  0.1794387E+03  0.7546771E-02  0.1201083E+00
         21   -1    0    0  501  502  0.00000000000E+00  0.00000000000E+00  0.52996392393E+02  0.52996392393E+02  0.00000000000E+00 0. -1.
          2   -1    0    0  503    0 -0.00000000000E+00 -0.00000000000E+00 -0.72892234498E+03  0.72892234498E+03  0.00000000000E+00 0. -1.
         24    2    1    2    0    0 -0.97098449198E+01  0.31345987676E+02 -0.20231674847E+03  0.22054839935E+03  0.81441253127E+02 0.  0.
         23    2    1    2    0    0  0.81596879721E+01  0.43570436399E+02 -0.31941902409E+03  0.33482711841E+03  0.90087306749E+02 0.  0.
        -11    1    3    3    0    0 -0.17290252251E+02  0.43578143871E+02 -0.20065838528E+03  0.20606259978E+03  0.00000000000E+00 0.  1.
         12    1    3    3    0    0  0.75804073309E+01 -0.12232156195E+02 -0.16583631886E+01  0.14485799562E+02  0.00000000000E+00 0. -1.
        -13    1    4    4    0    0 -0.37445993408E+02  0.53158437868E+01 -0.86217067826E+02  0.94147986713E+02  0.00000000000E+00 0.  1.
         13    1    4    4    0    0  0.45605681380E+02  0.38254592612E+02 -0.23320195626E+03  0.24067913170E+03  0.00000000000E+00 0. -1.
         21    1    1    2  503  502  0.40487630754E+02 -0.74887523674E+01  0.12109399313E+02  0.42918145438E+02  0.00000000000E+00 0. -1.
          1    1    1    2  501    0 -0.38937473807E+02 -0.67427671707E+02 -0.16629957934E+03  0.18362507418E+03  0.00000000000E+00 0. -1.
<scales pt_clust_5="13000.00000" pt_clust_6="13000.00000" pt_clust_7="13000.00000" pt_clust_8="13000.00000" pt_clust_9="41.17438" pt_clust_10="13000.00000"></scales>
<clustering>
<clus scale="   41.174">  1  9  2 -1</clus>
<clus scale="   81.441">  5  6 -1 -1</clus>
<clus scale="   86.471">  2  5  1 -1</clus>
<clus scale="   90.087">  7  8 -1 -1</clus>
<clus scale="   65.001">  7 10 -1 -1</clus>
<clus scale="   41.174">  1  5  2 -1</clus>
</clustering>
</event>
<event>
10    4  0.2866397E-005  0.1426364E+03  0.7546771E-02  0.1229109E+00
          2   -1    0    0  503    0 -0.00000000000E+00  0.00000000000E+00  0.53159817738E+03  0.53159817738E+03  0.00000000000E+00 0. -1.
         21   -1    0    0  501  502  0.00000000000E+00 -0.00000000000E+00 -0.17050967805E+03  0.17050967805E+03  0.00000000000E+00 0. -1.
         24    2    1    2    0    0  0.23612403311E+02 -0.37195422435E+02  0.32011215834E+03  0.33283747636E+03  0.79799415495E+02 0.  0.
         23    2    1    2    0    0 -0.42575431219E+01  0.47169086045E+02  0.11745426474E+03  0.15645031536E+03  0.91859389939E+02 0.  0.
        -11    1    3    3    0    0  0.37313832839E+02  0.12578314030E+02  0.12907526928E+03  0.13494799460E+03  0.00000000000E+00 0.  1.
         12    1    3    3    0    0 -0.13701429528E+02 -0.49773736465E+02  0.19103688906E+03  0.19788948177E+03  0.00000000000E+00 0. -1.
        -11    1    4    4    0    0 -0.30830352306E+02  0.14626247244E+01  0.93396535086E+02  0.98364437987E+02  0.00000000000E+00 0. -1.
         11    1    4    4    0    0  0.26572809184E+02  0.45706461320E+02  0.24057729650E+02  0.58085877374E+02  0.00000000000E+00 0.  1.
         21    1    1    2  503  502  0.32248264054E+02 -0.34746055319E+02 -0.12757026890E+03  0.13609339588E+03  0.00000000000E+00 0. -1.
          1    1    1    2  501    0 -0.51603124243E+02  0.24772391710E+02  0.51092345148E+02  0.76726667824E+02  0.00000000000E+00 0. -1.
<scales pt_clust_5="13000.00000" pt_clust_6="13000.00000" pt_clust_7="13000.00000" pt_clust_8="13000.00000" pt_clust_9="47.40505" pt_clust_10="13000.00000"></scales>
<clustering>
<clus scale="   47.405">  2  9  1 -1</clus>
<clus scale="   79.799">  5  6 -1 -1</clus>
<clus scale="   91.859">  7  8 -1 -1</clus>
<clus scale="   43.011">  7 10 -1 -1</clus>
<clus scale="   95.108">  1  5  2 -1</clus>
<clus scale="   47.405">  2  5  1 -1</clus>
</clustering>
</event>
<event>
10    4  0.2866397E-005  0.3212752E+03  0.7546771E-02  0.1095579E+00
          2   -1    0    0  502    0 -0.00000000000E+00  0.00000000000E+00  0.99497007734E+03  0.99497007734E+03  0.00000000000E+00 0. -1.
         21   -1    0    0  503  502  0.00000000000E+00 -0.00000000000E+00 -0.10158661583E+03  0.10158661583E+03  0.00000000000E+00 0. -1.
         24    2    1    2    0    0 -0.16628244997E+03 -0.45481991780E+02  0.87530934909E+02  0.20965210730E+03  0.81079447368E+02 0.  0.
         23    2    1    2    0    0  0.98086708177E+02 -0.11040677251E+03  0.45988365573E+03  0.49063109572E+03  0.86111773521E+02 0.  0.
        -13    1    3    3    0    0 -0.10712951143E+03 -0.40312053418E+02  0.14269314285E+02  0.11534906675E+03  0.00000000000E+00 0.  1.
         14    1    3    3    0    0 -0.59152938536E+02 -0.51699383618E+01  0.73261620624E+02  0.94303040547E+02  0.00000000000E+00 0. -1.
        -13    1    4    4    0    0 -0.90901756550E+01 -0.43847197604E+02  0.12319227358E+03  0.13107838991E+03  0.00000000000E+00 0.  1.
         13    1    4    4    0    0  0.10717688383E+03 -0.66559574908E+02  0.33669138215E+03  0.35955270580E+03  0.00000000000E+00 0. -1.
         21    1    1    2  503  501  0.26921629265E+01  0.22707743500E+02  0.36387811318E+01  0.23154483026E+02  0.00000000000E+00 0.  1.
          1    1    1    2  501    0  0.65503578862E+02  0.13318102079E+03  0.34233008974E+03  0.37311900713E+03  0.00000000000E+00 0. -1.
<scales pt_clust_5="13000.00000" pt_clust_6="13000.00000" pt_clust_7="13000.00000" pt_clust_8="13000.00000" pt_clust_9="22.86677" pt_clust_10="13000.00000"></scales>
<clustering>
<clus scale="   22.867">  2  9  1 -1</clus>
<clus scale="   81.079">  5  6 -1 -1</clus>
<clus scale="   86.112">  7  8 -1 -1</clus>
<clus scale="  152.039">  7 10 -1 -1</clus>
<clus scale="  185.889">  1  5  2 -1</clus>
<clus scale="   22.867">  2  5  1 -1</clus>
</clustering>
</event>
<event>
10    4  0.2866397E-005  0.3311630E+03  0.7546771E-02  0.1119217E+00
         21   -1    0    0  503  502  0.00000000000E+00  0.00000000000E+00  0.56788069018E+02  0.56788069018E+02  0.00000000000E+00 0.  1.
          2   -1    0    0  502    0 -0.00000000000E+00 -0.00000000000E+00 -0.97347715076E+03  0.97347715076E+03  0.00000000000E+00 0. -1.
         24    2    1    2    0    0 -0.98335017120E+01 -0.16801837174E+01 -0.10341729429E+03  0.13816623509E+03  0.91078268472E+02 0.  0.
         23    2    1    2    0    0 -0.30713220588E+02 -0.80315507940E+02 -0.11070068339E+03  0.16779693536E+03  0.92234958020E+02 0.  0.
        -11    1    3    3    0    0 -0.29786577946E+02  0.36382106131E+02 -0.40999917273E+02  0.62385022951E+02  0.00000000000E+00 0.  1.
         12    1    3    3    0    0  0.19953076234E+02 -0.38062289849E+02 -0.62417377018E+02  0.75781212141E+02  0.00000000000E+00 0. -1.
        -13    1    4    4    0    0 -0.51655031868E+02 -0.34157009802E+02 -0.22156438958E+02  0.65771205122E+02  0.00000000000E+00 0. -1.
         13    1    4    4    0    0  0.20941811280E+02 -0.46158498138E+02 -0.88544244429E+02  0.10202573024E+03  0.00000000000E+00 0.  1.
         21    1    1    2  503  501 -0.11114354806E+02 -0.25797139834E+02 -0.29634694346E+02  0.40831806418E+02  0.00000000000E+00 0.  1.
          1    1    1    2  501    0  0.51661077105E+02  0.10779283149E+03 -0.67293640972E+03  0.68347024291E+03  0.00000000000E+00 0. -1.
<scales pt_clust_5="13000.00000" pt_clust_6="13000.00000" pt_clust_7="13000.00000" pt_clust_8="13000.00000" pt_clust_9="28.08952" pt_clust_10="13000.00000"></scales>
<clustering>
<clus scale="   28.090">  1  9  2 -1</clus>
<clus scale="   91.078">  5  6 -1 -1</clus>
<clus scale="   92.235">  7  8 -1 -1</clus>
<clus scale="   92.678">  2  5  1 -1</clus>
<clus scale="  104.947">  7 10 -1 -1</clus>
<clus scale="   28.090">  1  5  2 -1</clus>
</clustering>
</event>
<event>
10    4  0.2866397E-005  0.1586401E+03  0.7546771E-02  0.1215127E+00
          2   -1    0    0  503    0 -0.00000000000E+00  0.00000000000E+00  0.13397539656E+04  0.13397539656E+04  0.00000000000E+00 0. -1.
         21   -1    0    0  501  502  0.00000000000E+00 -0.00000000000E+00 -0.57827790970E+03  0.57827790970E+03  0.00000000000E+00 0. -1.
         24    2    1    2    0    0  0.16807219310E+02 -0.29427903726E+02  0.76970803087E+03  0.77534232384E+03  0.86929754431E+02 0.  0.
         23    2    1    2    0    0  0.23141909609E+01  0.33672786740E+02  0.19833204930E+03  0.22010756908E+03  0.89289014652E+02 0.  0.
        -13    1    3    3    0    0 -0.19172217046E+01 -0.44667316747E+02  0.19226033393E+03  0.19739017434E+03  0.00000000000E+00 0.  1.
         14    1    3    3    0    0  0.18724441015E+02  0.15239413021E+02  0.57744769694E+03  0.57795214949E+03  0.00000000000E+00 0. -1.
        -13    1    4    4    0    0 -0.29331302405E+02  0.44049062972E+02  0.71368057552E+02  0.88848437737E+02  0.00000000000E+00 0.  1.
         13    1    4    4    0    0  0.31645493366E+02 -0.10376276232E+02  0.12696399175E+03  0.13125913134E+03  0.00000000000E+00 0. -1.
         21    1    1    2  503  502 -0.67924717303E+02 -0.12255929189E+02 -0.56073884519E+03  0.56497082007E+03  0.00000000000E+00 0. -1.
          1    1    1    2  501    0  0.48803307033E+02  0.80110461761E+01  0.35417482094E+03  0.35761116233E+03  0.00000000000E+00 0. -1.
<scales pt_clust_5="13000.00000" pt_clust_6="13000.00000" pt_clust_7="13000.00000" pt_clust_8="13000.00000" pt_clust_9="69.02155" pt_clust_10="13000.00000"></scales>
<clustering>
<clus scale="   69.022">  2  9  1 -1</clus>
<clus scale="   86.930">  5  6 -1 -1</clus>
<clus scale="   89.289">  7  8 -1 -1</clus>
<clus scale="   41.768">  7 10 -1 -1</clus>
<clus scale="   92.622">  1  5  2 -1</clus>
<clus scale="   69.022">  2  5  1 -1</clus>
</clustering>
</event>
<event>
10    4  0.2866397E-005  0.3688321E+03  0.7546771E-02  0.1110493E+00
         21   -1    0    0  503  502  0.00000000000E+00  0.00000000000E+00  0.65977115130E+03  0.65977115130E+03  0.00000000000E+00 0. -1.
          2   -1    0    0  502    0 -0.00000000000E+00 -0.00000000000E+00 -0.36298829176E+03  0.36298829176E+03  0.00000000000E+00 0. -1.
         24    2    1    2    0    0 -0.49589965791E+00  0.27298882108E+02 -0.32718191427E+01  0.83676213982E+02  0.79028660023E+02 0.  0.
         23    2    1    2    0    0 -0.55717148930E+02 -0.28188691725E+03 -0.49453669600E+02  0.30515474040E+03  0.90050626623E+02 0.  0.
        -13    1    3    3    0    0 -0.28736757182E+02 -0.19949446348E+01 -0.24469286316E+02  0.37795859433E+02  0.00000000000E+00 0.  1.
         14    1    3    3    0    0  0.28240857525E+02  0.29293826743E+02  0.21197467173E+02  0.45880354549E+02  0.00000000000E+00 0. -1.
        -13    1    4    4    0    0 -0.22932620580E+02 -0.26009514505E+03 -0.36114886127E+02  0.26358997433E+03  0.00000000000E+00 0.  1.
         13    1    4    4    0    0 -0.32784528350E+02 -0.21791772194E+02 -0.13338783473E+02  0.41564766077E+02  0.00000000000E+00 0. -1.
         21    1    1    2  503  501  0.36125838054E+02  0.32600696585E+03  0.41910919587E+03  0.53220121761E+03  0.00000000000E+00 0. -1.
          1    1    1    2  501    0  0.20087210534E+02 -0.71418930713E+02 -0.69600847591E+02  0.10172727106E+03  0.00000000000E+00 0. -1.
<scales pt_clust_5="13000.00000" pt_clust_6="13000.00000" pt_clust_7="13000.00000" pt_clust_8="13000.00000" pt_clust_9="332.79520" pt_clust_10="13000.00000"></scales>
<clustering>
<clus scale="   79.029">  5  6 -1 -1</clus>
<clus scale="   83.612">  2  5  1 -1</clus>
<clus scale="   90.051">  7  8 -1 -1</clus>
<clus scale="   67.134">  7 10 -1 -1</clus>
<clus scale="  332.795">  1  9  2 -1</clus>
<clus scale="  332.795">  1  5  2 -1</clus>
</clustering>
</event>
<event>
10    4  0.2866397E-005  0.2645322E+03  0.7546771E-02  0.1134271E+00
         21   -1    0    0  503  502  0.00000000000E+00  0.00000000000E+00  0.20508087494E+03  0.20508087494E+03  0.00000000000E+00 0. -1.
          2   -1    0    0  502    0 -0.00000000000E+00 -0.00000000000E+00 -0.67262536836E+03  0.67262536836E+03  0.00000000000E+00 0. -1.
         24    2    1    2    0    0 -0.54462964471E+02 -0.72756712497E+02 -0.33311713135E+03  0.35568860747E+03  0.85367491285E+02 0.  0.
         23    2    1    2    0    0  0.37093011822E+01  0.15464376807E+03 -0.10727431773E+03  0.20872175894E+03  0.90158413327E+02 0.  0.
        -11    1    3    3    0    0  0.15702774472E+02 -0.43400906787E+02 -0.93171220039E+02  0.10397640155E+03  0.00000000000E+00 0.  1.
         12    1    3    3    0    0 -0.70165738943E+02 -0.29355805711E+02 -0.23994591131E+03  0.25171220592E+03  0.00000000000E+00 0. -1.
        -13    1    4    4    0    0  0.46316198032E+02  0.76205986492E+02 -0.62183008416E+02  0.10871646202E+03  0.00000000000E+00 0. -1.
         13    1    4    4    0    0 -0.42606896850E+02  0.78437781579E+02 -0.45091309314E+02  0.10000529693E+03  0.00000000000E+00 0.  1.
         21    1    1    2  503  501  0.31377728959E+02 -0.28211939068E+02  0.13497569211E+03  0.14141751250E+03  0.00000000000E+00 0. -1.
          1    1    1    2  501    0  0.19375934330E+02 -0.53675116506E+02 -0.16212873645E+03  0.17187836439E+03  0.00000000000E+00 0. -1.
<scales pt_clust_5="13000.00000" pt_clust_6="13000.00000" pt_clust_7="13000.00000" pt_clust_8="13000.00000" pt_clust_9="42.19568" pt_clust_10="13000.00000"></scales>
<clustering>
<clus scale="   42.196">  1  9  2 -1</clus>
<clus scale="   85.367">  5  6 -1 -1</clus>
<clus scale="   90.158">  7  8 -1 -1</clus>
<clus scale="   59.794">  7 10 -1 -1</clus>
<clus scale="  125.356">  2  5  1 -1</clus>
<clus scale="   42.196">  1  5  2 -1</clus>
</clustering>
</event>
<event>
10    4  0.2866397E-005  0.3627803E+03  0.7546771E-02  0.1090556E+00
         21   -1    0    0  501  502  0.00000000000E+00  0.00000000000E+00  0.44143502287E+03  0.44143502287E+03  0.00000000000E+00 0.  1.
          2   -1    0    0  503    0 -0.00000000000E+00 -0.00000000000E+00 -0.18595690998E+03  0.18595690998E+03  0.00000000000E+00 0. -1.
         24    2    1    2    0    0  0.11960062040E+03  0.44568276212E+01  0.45739838622E+02  0.15174453059E+03  0.81302509266E+02 0.  0.
         23    2    1    2    0    0 -0.18994585204E+02 -0.74661167599E+02  0.21465328823E+03  0.24626467283E+03  0.92925619284E+02 0.  0.
        -11    1    3    3    0    0  0.11894828847E+03  0.21565244415E+02  0.22635862087E+02  0.12298836266E+03  0.00000000000E+00 0.  1.
         12    1    3    3    0    0  0.65233192836E+00 -0.17108416794E+02  0.23103976535E+02  0.28756167927E+02  0.00000000000E+00 0. -1.
        -11    1    4    4    0    0  0.24296022358E+02  0.86523174999E+01  0.34056735016E+02  0.42720258666E+02  0.00000000000E+00 0. -1.
         11    1    4    4    0    0 -0.43290607563E+02 -0.83313485099E+02  0.18059655322E+03  0.20354441416E+03  0.00000000000E+00 0.  1.
         21    1    1    2  503  502  0.91029024062E+01  0.33304586576E+02  0.79133810237E+02  0.86337814669E+02  0.00000000000E+00 0.  1.
          1    1    1    2  501    0 -0.10970893760E+03  0.36899753402E+02 -0.84048824199E+02  0.14304491476E+03  0.00000000000E+00 0. -1.
<scales pt_clust_5="13000.00000" pt_clust_6="13000.00000" pt_clust_7="13000.00000" pt_clust_8="13000.00000" pt_clust_9="34.52620" pt_clust_10="13000.00000"></scales>
<clustering>
<clus scale="   34.526">  1  9  2 -1</clus>
<clus scale="   81.303">  5  6 -1 -1</clus>
<clus scale="   92.926">  7  8 -1 -1</clus>
<clus scale="  115.946">  7 10 -1 -1</clus>
<clus scale="  147.329">  2  5  1 -1</clus>
<clus scale="   34.526">  1  5  2 -1</clus>
</clustering>
</event>
<event>
10    4  0.2866397E-005  0.7921410E+03  0.7546771E-02  0.9768647E-01
          2   -1    0    0  502    0 -0.00000000000E+00  0.00000000000E+00  0.41888560895E+04  0.41888560895E+04  0.00000000000E+00 0. -1.
         21   -1    0    0  503  502  0.00000000000E+00 -0.00000000000E+00 -0.18299190841E+03  0.18299190841E+03  0.00000000000E+00 0. -1.
         24    2    1    2    0    0 -0.40063858648E+03  0.60966832050E+02  0.95200943940E+03  0.10376946169E+04  0.79119615998E+02 0.  0.
         23    2    1    2    0    0  0.58573112699E+02  0.18067063989E+03  0.29421066050E+03  0.36146528579E+03  0.89579855055E+02 0.  0.
        -11    1    3    3    0    0 -0.78514983163E+02  0.40418436533E+00  0.11950018427E+03  0.14298622307E+03  0.00000000000E+00 0.  1.
         12    1    3    3    0    0 -0.32212360331E+03  0.60562647685E+02  0.83250925512E+03  0.89470839382E+03  0.00000000000E+00 0. -1.
        -11    1    4    4    0    0 -0.19381996507E+02  0.62951696343E+02  0.12318557822E+03  0.13968988704E+03  0.00000000000E+00 0.  1.
         11    1    4    4    0    0  0.77955109205E+02  0.11771894355E+03  0.17102508228E+03  0.22177539875E+03  0.00000000000E+00 0. -1.
         21    1    1    2  503  501  0.15249481188E+02  0.15908619822E+02 -0.90084942908E+02  0.92741187182E+02  0.00000000000E+00 0.  1.
          1    1    1    2  501    0  0.32681599259E+03 -0.25754609177E+03  0.28497290241E+04  0.28799469081E+04  0.00000000000E+00 0. -1.
<scales pt_clust_5="13000.00000" pt_clust_6="13000.00000" pt_clust_7="13000.00000" pt_clust_8="13000.00000" pt_clust_9="22.03703" pt_clust_10="13000.00000"></scales>
<clustering>
<clus scale="   22.037">  2  9  1 -1</clus>
<clus scale="   79.120">  5  6 -1 -1</clus>
<clus scale="   89.580">  7  8 -1 -1</clus>
<clus scale="  407.168">  1  5  2 -1</clus>
<clus scale="  195.124">  7 10 -1 -1</clus>
<clus scale="   22.037">  2  5  1 -1</clus>
</clustering>
</event>
<event>
10    4  0.2866397E-005  0.2901715E+03  0.7546771E-02  0.1112020E+00
          2   -1    0    0  502    0 -0.00000000000E+00  0.00000000000E+00  0.81593520708E+03  0.81593520708E+03  0.00000000000E+00 0. -1.
         21   -1    0    0  503  502  0.00000000000E+00 -0.00000000000E+00 -0.96943203105E+02  0.96943203105E+02  0.00000000000E+00 0. -1.
         24    2    1    2    0    0  0.14907684000E+03  0.95070259970E+02  0.15114889156E+03  0.24603771146E+03  0.80164265652E+02 0.  0.
         23    2    1    2    0    0  0.15572271091E+02 -0.16422867473E+02  0.47111552715E+02  0.10606004390E+03  0.92287747341E+02 0.  0.
        -11    1    3    3    0    0  0.32197416283E+02  0.63069784149E+02  0.38585124986E+02  0.80642936195E+02  0.00000000000E+00 0.  1.
         12    1    3    3    0    0  0.11687942371E+03  0.32000475820E+02  0.11256376657E+03  0.16539477527E+03  0.00000000000E+00 0. -1.
        -11    1    4    4    0    0 -0.18002952485E+02  0.31492807990E+02  0.14405840620E+02  0.39031160593E+02  0.00000000000E+00 0. -1.
         11    1    4    4    0    0  0.33575223577E+02 -0.47915675463E+02  0.32705712095E+02  0.67028883303E+02  0.00000000000E+00 0.  1.
         21    1    1    2  503  501 -0.68834192151E+02 -0.43683467648E+01  0.90458072473E+02  0.11375364319E+03  0.00000000000E+00 0. -1.
          1    1    1    2  501    0 -0.95814918936E+02 -0.74279045732E+02  0.43027348723E+03  0.44702701164E+03  0.00000000000E+00 0. -1.
<scales pt_clust_5="13000.00000" pt_clust_6="13000.00000" pt_clust_7="13000.00000" pt_clust_8="13000.00000" pt_clust_9="68.97270" pt_clust_10="13000.00000"></scales>
<clustering>
<clus scale="   68.973">  2  9  1 -1</clus>
<clus scale="   80.164">  5  6 -1 -1</clus>
<clus scale="   92.288">  7  8 -1 -1</clus>
<clus scale="  126.897">  7 10 -1 -1</clus>
<clus scale="  165.175">  1  5  2 -1</clus>
<clus scale="   68.973">  2  5  1 -1</clus>
</clustering>
</event>
<event>
10    4  0.2866397E-005  0.1320789E+03  0.7546771E-02  0.1244266E+00
         21   -1    0    0  503  502  0.00000000000E+00  0.00000000000E+00  0.18129263135E+03  0.18129263135E+03  0.00000000000E+00 0. -1.
          2   -1    0    0  502    0 -0.00000000000E+00 -0.00000000000E+00 -0.33887988878E+03  0.33887988878E+03  0.00000000000E+00 0. -1.
         24    2    1    2    0    0  0.56565740661E+01  0.19734772042E+02 -0.10276742422E+03  0.13146136703E+03  0.79369323312E+02 0.  0.
         23    2    1    2    0    0 -0.27233808207E+02 -0.36319638369E+02 -0.94018845180E+02  0.13764663569E+03  0.89700928792E+02 0.  0.
        -11    1    3    3    0    0 -0.30798543766E+02  0.75448646143E+01 -0.81677471670E+02  0.87616691666E+02  0.00000000000E+00 0.  1.
         12    1    3    3    0    0  0.36455117832E+02  0.12189907428E+02 -0.21089952550E+02  0.43844675364E+02  0.00000000000E+00 0. -1.
        -11    1    4    4    0    0  0.17260090034E+02 -0.32517965434E+02 -0.84239005137E+02  0.91932250981E+02  0.00000000000E+00 0.  1.
         11    1    4    4    0    0 -0.44493898241E+02 -0.38016729349E+01 -0.97798400427E+01  0.45714384706E+02  0.00000000000E+00 0. -1.
         21    1    1    2  503  501  0.18964348346E+02  0.41424245637E+02  0.13999421738E+03  0.14722090726E+03  0.00000000000E+00 0. -1.
          1    1    1    2  501    0  0.26128857951E+01 -0.24839379310E+02 -0.10079520541E+03  0.10384361015E+03  0.00000000000E+00 0. -1.
<scales pt_clust_5="13000.00000" pt_clust_6="13000.00000" pt_clust_7="13000.00000" pt_clust_8="13000.00000" pt_clust_9="45.55891" pt_clust_10="13000.00000"></scales>
<clustering>
<clus scale="   45.559">  1  9  2 -1</clus>
<clus scale="   79.369">  5  6 -1 -1</clus>
<clus scale="   87.897">  2  5  1 -1</clus>
<clus scale="   89.701">  7  8 -1 -1</clus>
<clus scale="   11.568">  7 10 -1 -1</clus>
<clus scale="   45.559">  1  5  2 -1</clus>
</clustering>
</event>
<event>
10    4  0.2866397E-005  0.6014150E+03  0.7546771E-02  0.9973069E-01
         21   -1    0    0  501  502  0.00000000000E+00  0.00000000000E+00  0.24169993794E+03  0.24169993794E+03  0.00000000000E+00 0. -1.
          2   -1    0    0  503    0 -0.00000000000E+00 -0.00000000000E+00 -0.13463604894E+04  0.13463604894E+04  0.00000000000E+00 0. -1.
         24    2    1    2    0    0  0.31980364651E+03 -0.35796207244E+03 -0.69523538848E+03  0.84875851153E+03  0.81409752998E+02 0.  0.
         23    2    1    2    0    0 -0.88709277631E+02 -0.33700092032E+02 -0.17206718503E+02  0.13307131825E+03  0.91688998456E+02 0.  0.
        -11    1    3    3    0    0  0.74331615512E+02 -0.63742664494E+02 -0.93559751345E+02  0.13543169279E+03  0.00000000000E+00 0.  1.
         12    1    3    3    0    0  0.24547203099E+03 -0.29421940795E+03 -0.60167563713E+03  0.71332681874E+03  0.00000000000E+00 0. -1.
        -13    1    4    4    0    0 -0.72804056635E+02  0.83692993506E+01  0.18571993551E+02  0.75600230017E+02  0.00000000000E+00 0. -1.
         13    1    4    4    0    0 -0.15905220995E+02 -0.42069391383E+02 -0.35778712054E+02  0.57471088231E+02  0.00000000000E+00 0.  1.
         21    1    1    2  503  502 -0.15257163691E+02  0.14225773244E+02 -0.28459749628E+00  0.20862278495E+02  0.00000000000E+00 0.  1.
          1    1    1    2  501    0 -0.21583720519E+03  0.37743639123E+03 -0.39193384703E+03  0.58536831911E+03  0.00000000000E+00 0. -1.
<scales pt_clust_5="13000.00000" pt_clust_6="13000.00000" pt_clust_7="13000.00000" pt_clust_8="13000.00000" pt_clust_9="20.86034" pt_clust_10="13000.00000"></scales>
<clustering>
<clus scale="   20.860">  1  9  2 -1</clus>
<clus scale="   81.410">  5  6 -1 -1</clus>
<clus scale="   91.689">  7  8 -1 -1</clus>
<clus scale="  443.126">  7 10 -1 -1</clus>
<clus scale="  480.074">  2  5  1 -1</clus>
<clus scale="   20.860">  1  5  2 -1</clus>
</clustering>
</event>
<event>
10    4  0.2866397E-005  0.2499016E+03  0.7546771E-02  0.1146728E+00
         21   -1    0    0  501  502  0.00000000000E+00  0.00000000000E+00  0.45748373639E+02  0.45748373639E+02  0.00000000000E+00 0. -1.
          2   -1    0    0  503    0 -0.00000000000E+00 -0.00000000000E+00 -0.10626038057E+04  0.10626038057E+04  0.00000000000E+00 0. -1.
         24    2    1    2    0    0 -0.71357874435E+02 -0.28220394253E+02 -0.58930566871E+03  0.59993769098E+03  0.82193217400E+02 0.  0.
         23    2    1    2    0    0  0.23820980564E+02 -0.33725375449E+02 -0.42579118342E+02  0.10979470849E+03  0.92396193809E+02 0.  0.
        -13    1    3    3    0    0 -0.21001063093E+02 -0.21876196340E+01 -0.24706699239E+02  0.32500020277E+02  0.00000000000E+00 0.  1.
         14    1    3    3    0    0 -0.50356811342E+02 -0.26032774618E+02 -0.56459896948E+03  0.56743767071E+03  0.00000000000E+00 0. -1.
        -11    1    4    4    0    0  0.56325806777E+02 -0.39336393521E+01 -0.17723291700E+02  0.59179262384E+02  0.00000000000E+00 0.  1.
         11    1    4    4    0    0 -0.32504826213E+02 -0.29791736097E+02 -0.24855826642E+02  0.50615446110E+02  0.00000000000E+00 0. -1.
         21    1    1    2  503  502  0.30010340812E+02 -0.12994639870E+01 -0.60126484589E+02  0.67212374689E+02  0.00000000000E+00 0. -1.
          1    1    1    2  501    0  0.17526553059E+02  0.63245233689E+02 -0.32484416037E+03  0.33140740513E+03  0.00000000000E+00 0. -1.
<scales pt_clust_5="13000.00000" pt_clust_6="13000.00000" pt_clust_7="13000.00000" pt_clust_8="13000.00000" pt_clust_9="30.03846" pt_clust_10="13000.00000"></scales>
<clustering>
<clus scale="   30.038">  1  9  2 -1</clus>
<clus scale="   82.193">  5  6 -1 -1</clus>
<clus scale="   92.396">  7  8 -1 -1</clus>
<clus scale="   66.194">  7 10 -1 -1</clus>
<clus scale="  110.128">  2  5  1 -1</clus>
<clus scale="   30.038">  1  5  2 -1</clus>
</clustering>
</event>
<event>
10    4  0.2866397E-005  0.1856678E+03  0.7546771E-02  0.1196195E+00
          2   -1    0    0  502    0 -0.00000000000E+00  0.00000000000E+00  0.33777159035E+03  0.33777159035E+03  0.00000000000E+00 0. -1.
         21   -1    0    0  503  502  0.00000000000E+00 -0.00000000000E+00 -0.17169834459E+03  0.17169834459E+03  0.00000000000E+00 0.  1.
         24    2    1    2    0    0 -0.13593063009E+02 -0.29095285048E+02  0.22137513450E+03  0.23756115886E+03  0.79981541932E+02 0.  0.
         23    2    1    2    0    0  0.82023578270E+02  0.22385039443E+01 -0.10598543038E+03  0.16310011036E+03  0.92929307839E+02 0.  0.
        -13    1    3    3    0    0  0.17627140769E+02 -0.35983479895E+02  0.18429754630E+03  0.18860305535E+03  0.00000000000E+00 0.  1.
         14    1    3    3    0    0 -0.31220203778E+02  0.68881948470E+01  0.37077588209E+02  0.48958103513E+02  0.00000000000E+00 0. -1.
        -13    1    4    4    0    0  0.47854169640E+01 -0.35688997261E+02 -0.18871290780E+02  0.40653786499E+02  0.00000000000E+00 0. -1.
         13    1    4    4    0    0  0.77238161306E+02  0.37927501205E+02 -0.87114139596E+02  0.12244632386E+03  0.00000000000E+00 0.  1.
         21    1    1    2  503  501 -0.58715841774E+02 -0.38929695297E+01  0.15028182546E+02  0.60733446779E+02  0.00000000000E+00 0.  1.
          1    1    1    2  501    0 -0.97146734870E+01  0.30749750633E+02  0.35655359084E+02  0.48075218943E+02  0.00000000000E+00 0. -1.
<scales pt_clust_5="13000.00000" pt_clust_6="13000.00000" pt_clust_7="13000.00000" pt_clust_8="13000.00000" pt_clust_9="58.84476" pt_clust_10="13000.00000"></scales>
<clustering>
<clus scale="   58.845">  2  9  1 -1</clus>
<clus scale="   79.982">  5  6 -1 -1</clus>
<clus scale="   86.820">  1  5  2 -1</clus>
<clus scale="   92.929">  7  8 -1 -1</clus>
<clus scale="   26.364">  7 10 -1 -1</clus>
<clus scale="   58.845">  2  5  1 -1</clus>
</clustering>
</event>
<event>
10    4  0.2866397E-005  0.2879950E+03  0.7546771E-02  0.1130686E+00
          2   -1    0    0  502    0 -0.00000000000E+00  0.00000000000E+00  0.72088615974E+03  0.72088615974E+03  0.00000000000E+00 0. -1.
         21   -1    0    0  503  502  0.00000000000E+00 -0.00000000000E+00 -0.13185873572E+03  0.13185873572E+03  0.00000000000E+00 0. -1.
         24    2    1    2    0    0 -0.26761648146E+02 -0.66015753777E+02  0.31308788912E+03  0.33094767093E+03  0.80175239449E+02 0.  0.
         23    2    1    2    0    0 -0.46233574566E+02 -0.79925833463E+02  0.13683602386E+03  0.18943780998E+03  0.92934945804E+02 0.  0.
        -11    1    3    3    0    0 -0.16729602530E+02 -0.52103233481E+02  0.78263303473E+02  0.95497493216E+02  0.00000000000E+00 0.  1.
         12    1    3    3    0    0 -0.10032045616E+02 -0.13912520296E+02  0.23482458565E+03  0.23545017771E+03  0.00000000000E+00 0. -1.
        -13    1    4    4    0    0 -0.64360423458E+02 -0.69628980786E+02  0.65817565698E+02  0.11542274918E+03  0.00000000000E+00 0. -1.
         13    1    4    4    0    0  0.18126848892E+02 -0.10296852677E+02  0.71018458162E+02  0.74015060802E+02  0.00000000000E+00 0.  1.
         21    1    1    2  503  501 -0.17841280894E+02  0.21313390636E+02 -0.68394823722E+02  0.73826985827E+02  0.00000000000E+00 0. -1.
          1    1    1    2  501    0  0.90836503606E+02  0.12462819660E+03  0.20749833476E+03  0.25853242873E+03  0.00000000000E+00 0. -1.
<scales pt_clust_5="13000.00000" pt_clust_6="13000.00000" pt_clust_7="13000.00000" pt_clust_8="13000.00000" pt_clust_9="27.79518" pt_clust_10="13000.00000"></scales>
<clustering>
<clus scale="   27.795">  2  9  1 -1</clus>
<clus scale="   80.175">  5  6 -1 -1</clus>
<clus scale="   92.935">  7  8 -1 -1</clus>
<clus scale="  106.046">  1  5  2 -1</clus>
<clus scale="  115.995">  7 10 -1 -1</clus>
<clus scale="   27.795">  2  5  1 -1</clus>
</clustering>
</event>
<event>
10    4  0.2866397E-005  0.1716254E+03  0.7546771E-02  0.1199237E+00
          2   -1    0    0  502    0 -0.00000000000E+00  0.00000000000E+00  0.74117313533E+03  0.74117313533E+03  0.00000000000E+00 0. -1.
         21   -1    0    0  503  502  0.00000000000E+00 -0.00000000000E+00 -0.37994797912E+02  0.37994797912E+02  0.00000000000E+00 0.  1.
         24    2    1    2    0    0  0.59983112447E+01 -0.72522039625E+02  0.15712724234E+03  0.19018821945E+03  0.78658518697E+02 0.  0.
         23    2    1    2    0    0 -0.22542136043E+01  0.47424298300E+01  0.18729175122E+03  0.20874970092E+03  0.92036218077E+02 0.  0.
        -11    1    3    3    0    0  0.10661088096E+02 -0.89150742426E+02  0.13471628362E+03  0.16189499914E+03  0.00000000000E+00 0.  1.
         12    1    3    3    0    0 -0.46627768512E+01  0.16628702801E+02  0.22410958721E+02  0.28293220311E+02  0.00000000000E+00 0. -1.
        -11    1    4    4    0    0  0.15574004218E+02 -0.32796273099E+02  0.14492606550E+03  0.14940451665E+03  0.00000000000E+00 0. -1.
         11    1    4    4    0    0 -0.17828217823E+02  0.37538702929E+02  0.42365685726E+02  0.59345184264E+02  0.00000000000E+00 0.  1.
         21    1    1    2  503  501 -0.21191786735E+02  0.11653741502E+02  0.93779195406E+01  0.25939292414E+02  0.00000000000E+00 0.  1.
          1    1    1    2  501    0  0.17447689095E+02  0.56125868293E+02  0.34938142432E+03  0.35429072046E+03  0.00000000000E+00 0. -1.
<scales pt_clust_5="13000.00000" pt_clust_6="13000.00000" pt_clust_7="13000.00000" pt_clust_8="13000.00000" pt_clust_9="24.18474" pt_clust_10="13000.00000"></scales>
<clustering>
<clus scale="   24.185">  2  9  1 -1</clus>
<clus scale="   78.659">  5  6 -1 -1</clus>
<clus scale="   92.036">  7  8 -1 -1</clus>
<clus scale="   59.207">  7 10 -1 -1</clus>
<clus scale="  102.868">  1  5  2 -1</clus>
<clus scale="   24.185">  2  5  1 -1</clus>
</clustering>
</event>
<event>
10    4  0.2866397E-005  0.3221871E+03  0.7546771E-02  0.1098959E+00
         21   -1    0    0  501  502  0.00000000000E+00  0.00000000000E+00  0.12352087188E+03  0.12352087188E+03  0.00000000000E+00 0. -1.
          2   -1    0    0  503    0 -0.00000000000E+00 -0.00000000000E+00 -0.10314241948E+04  0.10314241948E+04  0.00000000000E+00 0. -1.
         24    2    1    2    0    0  0.72182290861E+01  0.15363962253E+03 -0.70559670296E+03  0.72656539416E+03  0.79833127949E+02 0.  0.
         23    2    1    2    0    0 -0.32728200148E+02  0.65738404172E+02 -0.13257272213E+03  0.17676346776E+03  0.90978700880E+02 0.  0.
        -13    1    3    3    0    0  0.34051253595E+02  0.34518555741E+02 -0.26308651377E+03  0.26751734952E+03  0.00000000000E+00 0.  1.
         14    1    3    3    0    0 -0.26833024509E+02  0.11912106679E+03 -0.44251018919E+03  0.45904804465E+03  0.00000000000E+00 0. -1.
        -11    1    4    4    0    0 -0.24304023938E+02 -0.18317150856E+02 -0.50634515245E+02  0.59076710548E+02  0.00000000000E+00 0.  1.
         11    1    4    4    0    0 -0.84241762101E+01  0.84055555028E+02 -0.81938206885E+02  0.11768675721E+03  0.00000000000E+00 0. -1.
         21    1    1    2  503  502  0.44831422913E+02 -0.53876950304E+02 -0.44675796883E+02  0.83117441501E+02  0.00000000000E+00 0. -1.
          1    1    1    2  501    0 -0.19321451851E+02 -0.16550107640E+03 -0.25058100920E+02  0.16849876324E+03  0.00000000000E+00 0. -1.
<scales pt_clust_5="13000.00000" pt_clust_6="13000.00000" pt_clust_7="13000.00000" pt_clust_8="13000.00000" pt_clust_9="70.08982" pt_clust_10="13000.00000"></scales>
<clustering>
<clus scale="   70.090">  1  9  2 -1</clus>
<clus scale="   79.833">  5  6 -1 -1</clus>
<clus scale="   90.979">  7  8 -1 -1</clus>
<clus scale="  168.763">  2  5  1 -1</clus>
<clus scale="  128.418">  7 10 -1 -1</clus>
<clus scale="   70.090">  1  5  2 -1</clus>
</clustering>
</event>
<event>
10    4  0.2866397E-005  0.1672417E+03  0.7546771E-02  0.1206809E+00
         21   -1    0    0  501  502  0.00000000000E+00  0.00000000000E+00  0.46395435291E+03  0.46395435291E+03  0.00000000000E+00 0. -1.
          4   -1    0    0  503    0 -0.00000000000E+00 -0.00000000000E+00 -0.32470244641E+03  0.32470244641E+03  0.00000000000E+00 0. -1.
         24    2    1    2    0    0  0.46262502185E+01  0.12142865796E+02  0.41801103842E+01  0.79347483237E+02  0.78164559695E+02 0.  0.
         23    2    1    2    0    0 -0.25804146158E+02 -0.72866763091E+02 -0.25078674195E+03  0.27732255644E+03  0.89657075853E+02 0.  0.
        -13    1    3    3    0    0 -0.27530909266E+02 -0.64314201388E+01 -0.20355933247E+02  0.34837883810E+02  0.00000000000E+00 0.  1.
         14    1    3    3    0    0  0.32157159484E+02  0.18574285935E+02  0.24536043631E+02  0.44509599427E+02  0.00000000000E+00 0. -1.
        -13    1    4    4    0    0 -0.56772646666E+02 -0.62248603173E+02 -0.19840384764E+03  0.21555071043E+03  0.00000000000E+00 0. -1.
         13    1    4    4    0    0  0.30968500509E+02 -0.10618159918E+02 -0.52382894307E+02  0.61771846012E+02  0.00000000000E+00 0.  1.
         21    1    1    2  503  502 -0.12248180093E+02  0.67825324029E+02  0.39135302665E+03  0.39737574658E+03  0.00000000000E+00 0. -1.
          3    1    1    2  501    0  0.33426076033E+02 -0.71014267344E+01 -0.54944885903E+01  0.34611013066E+02  0.00000000000E+00 0. -1.
<scales pt_clust_5="13000.00000" pt_clust_6="13000.00000" pt_clust_7="13000.00000" pt_clust_8="13000.00000" pt_clust_9="68.92237" pt_clust_10="13000.00000"></scales>
<clustering>
<clus scale="   68.922">  1  9  2 -1</clus>
<clus scale="   78.165">  5  6 -1 -1</clus>
<clus scale="   89.657">  7  8 -1 -1</clus>
<clus scale="   31.667">  7 10 -1 -1</clus>
<clus scale="   94.393">  2  5  1 -1</clus>
<clus scale="   68.922">  1  5  2 -1</clus>
</clustering>
</event>
<event>
10    4  0.2866397E-005  0.2411890E+03  0.7546771E-02  0.1159262E+00
         21   -1    0    0  503  502  0.00000000000E+00  0.00000000000E+00  0.34971658381E+03  0.34971658381E+03  0.00000000000E+00 0.  1.
         -1   -1    0    0    0  501 -0.00000000000E+00 -0.00000000000E+00 -0.20888404154E+03  0.20888404154E+03  0.00000000000E+00 0.  1.
         24    2    1    2    0    0 -0.31137990212E+02  0.36971085933E+02 -0.12158615031E+03  0.15246433770E+03  0.78267149514E+02 0.  0.
         23    2    1    2    0    0 -0.39702794692E+02  0.75279556401E+02  0.89838979788E+02  0.15453925723E+03  0.92563579331E+02 0.  0.
        -11    1    3    3    0    0 -0.39660308571E+02  0.43796273778E+02 -0.12715172828E+03  0.14020918542E+03  0.00000000000E+00 0.  1.
         12    1    3    3    0    0  0.85223183594E+01 -0.68251878444E+01  0.55655779632E+01  0.12255152280E+02  0.00000000000E+00 0. -1.
        -13    1    4    4    0    0  0.24358133806E+02  0.66001733157E+01  0.42345602406E+02  0.49295344744E+02  0.00000000000E+00 0. -1.
         13    1    4    4    0    0 -0.64060928497E+02  0.68679383085E+02  0.47493377382E+02  0.10524391249E+03  0.00000000000E+00 0.  1.
         21    1    1    2  503  501  0.78016173710E+01 -0.22540883061E+02  0.13285412026E+03  0.13497842018E+03  0.00000000000E+00 0.  1.
         -2    1    1    2    0  502  0.63039167533E+02 -0.89709759273E+02  0.39725592533E+02  0.11661861024E+03  0.00000000000E+00 0.  1.
<scales pt_clust_5="13000.00000" pt_clust_6="13000.00000" pt_clust_7="13000.00000" pt_clust_8="13000.00000" pt_clust_9="23.85281" pt_clust_10="13000.00000"></scales>
<clustering>
<clus scale="   23.853">  1  9  2 -1</clus>
<clus scale="   78.267">  5  6 -1 -1</clus>
<clus scale="   91.165">  2  5  1 -1</clus>
<clus scale="   92.564">  7  8 -1 -1</clus>
<clus scale="   89.943">  7 10 -1 -1</clus>
<clus scale="   23.853">  1  5  2 -1</clus>
</clustering>
</event>
<event>
10    4  0.5574281E-005  0.1474890E+03  0.7546771E-02  0.1226764E+00
         21   -1    0    0  501  502  0.00000000000E+00  0.00000000000E+00  0.21578071853E+03  0.21578071853E+03  0.00000000000E+00 0. -1.
          2   -1    0    0  503    0 -0.00000000000E+00 -0.00000000000E+00 -0.78708355374E+03  0.78708355374E+03  0.00000000000E+00 0. -1.
         24    2    1    2    0    0  0.72400861291E+02 -0.43206177618E+02 -0.14017326237E+03  0.18090956469E+03  0.77272689949E+02 0.  0.
         23    2    1    2    0    0 -0.52675673503E+02  0.14462830378E+02 -0.50740836740E+03  0.51765469948E+03  0.86713531524E+02 0.  0.
        -13    1    3    3    0    0  0.23540463968E+02 -0.34442978282E+02 -0.11925403333E+02  0.43389946318E+02  0.00000000000E+00 0.  1.
         14    1    3    3    0    0  0.48860397322E+02 -0.87631993357E+01 -0.12824785903E+03  0.13751961837E+03  0.00000000000E+00 0. -1.
        -11    1    4    4    0    0 -0.72225620099E+02  0.27837105996E+02 -0.42110016938E+03  0.42815510895E+03  0.00000000000E+00 0. -1.
         11    1    4    4    0    0  0.19549946596E+02 -0.13374275618E+02 -0.86308198018E+02  0.89499590532E+02  0.00000000000E+00 0.  1.
         21    1    1    2  503  502 -0.54547195013E+02  0.15166604797E+02  0.18282387149E+03  0.19138962974E+03  0.00000000000E+00 0. -1.
          1    1    1    2  501    0  0.34822007226E+02  0.13576742443E+02 -0.10654507694E+03  0.11291037837E+03  0.00000000000E+00 0. -1.
<scales pt_clust_5="13000.00000" pt_clust_6="13000.00000" pt_clust_7="13000.00000" pt_clust_8="13000.00000" pt_clust_9="56.61645" pt_clust_10="13000.00000"></scales>
<clustering>
<clus scale="   56.616">  1  9  2 -1</clus>
<clus scale="   77.273">  5  6 -1 -1</clus>
<clus scale="   86.714">  7  8 -1 -1</clus>
<clus scale="   32.564">  7 10 -1 -1</clus>
<clus scale="   90.308">  2  5  1 -1</clus>
<clus scale="   56.616">  1  5  2 -1</clus>
</clustering>
</event>
<event>
10    4  0.2866397E-005  0.2656864E+03  0.7546771E-02  0.1139803E+00
         21   -1    0    0  503  502  0.00000000000E+00  0.00000000000E+00  0.15903975365E+03  0.15903975365E+03  0.00000000000E+00 0. -1.
          2   -1    0    0  502    0 -0.00000000000E+00 -0.00000000000E+00 -0.13491248748E+04  0.13491248748E+04  0.00000000000E+00 0. -1.
         24    2    1    2    0    0  0.72824196286E+02 -0.12512532037E+02 -0.93739785327E+03  0.94367496119E+03  0.79672894029E+02 0.  0.
         23    2    1    2    0    0 -0.19812149663E+02  0.91949224436E+02 -0.27547314844E+03  0.30350903859E+03  0.85936603640E+02 0.  0.
        -11    1    3    3    0    0  0.17295022138E+02 -0.38513101130E+02 -0.24918164936E+03  0.25273280580E+03  0.00000000000E+00 0.  1.
         12    1    3    3    0    0  0.55529174148E+02  0.26000569092E+02 -0.68821620391E+03  0.69094215539E+03  0.00000000000E+00 0. -1.
        -13    1    4    4    0    0 -0.22550520528E+02  0.49145646901E+01 -0.11987487284E+02  0.26007283087E+02  0.00000000000E+00 0.  1.
         13    1    4    4    0    0  0.27383708647E+01  0.87034659746E+02 -0.26348566116E+03  0.27750175550E+03  0.00000000000E+00 0. -1.
         21    1    1    2  503  501 -0.58875435442E+01  0.27199215392E+02  0.11122102654E+03  0.11464980258E+03  0.00000000000E+00 0. -1.
          1    1    1    2  501    0 -0.47124503078E+02 -0.10663590779E+03 -0.88435146012E+02  0.14633082611E+03  0.00000000000E+00 0. -1.
<scales pt_clust_5="13000.00000" pt_clust_6="13000.00000" pt_clust_7="13000.00000" pt_clust_8="13000.00000" pt_clust_9="27.82913" pt_clust_10="13000.00000"></scales>
<clustering>
<clus scale="   27.829">  1  9  2 -1</clus>
<clus scale="   79.673">  5  6 -1 -1</clus>
<clus scale="   85.937">  7  8 -1 -1</clus>
<clus scale="  102.973">  7 10 -1 -1</clus>
<clus scale="  108.197">  2  5  1 -1</clus>
<clus scale="   27.829">  1  5  2 -1</clus>
</clustering>
</event>
<event>
10    4  0.2866397E-005  0.3813324E+03  0.7546771E-02  0.1084620E+00
          2   -1    0    0  503    0 -0.00000000000E+00  0.00000000000E+00  0.12412700252E+04  0.12412700252E+04  0.00000000000E+00 0. -1.
         21   -1    0    0  501  502  0.00000000000E+00 -0.00000000000E+00 -0.73738620781E+02  0.73738620781E+02  0.00000000000E+00 0.  1.
         24    2    1    2    0    0  0.92796919240E+02  0.71444401494E+02  0.22710783604E+03  0.26795897836E+03  0.80675114929E+02 0.  0.
         23    2    1    2    0    0 -0.86306135681E+01  0.11600017299E+03  0.42875583281E+03  0.45422909508E+03  0.94667729571E+02 0.  0.
        -11    1    3    3    0    0  0.89334948493E+02  0.41585527438E+02  0.21313352968E+03  0.23481054191E+03  0.00000000000E+00 0.  1.
         12    1    3    3    0    0  0.34619707472E+01  0.29858874056E+02  0.13974306356E+02  0.33148436456E+02  0.00000000000E+00 0. -1.
        -11    1    4    4    0    0 -0.18749839397E+02 -0.95182750523E+01  0.99874822636E+02  0.10206436319E+03  0.00000000000E+00 0.  1.
         11    1    4    4    0    0  0.10119225829E+02  0.12551844804E+03  0.32888101018E+03  0.35216473189E+03  0.00000000000E+00 0. -1.
         21    1    1    2  503  502  0.44761035770E+01  0.28869805082E+02 -0.11449636385E+01  0.29237169672E+02  0.00000000000E+00 0.  1.
          1    1    1    2  501    0 -0.88642409249E+02 -0.21631437957E+03  0.51281269925E+03  0.56358340291E+03  0.00000000000E+00 0. -1.
<scales pt_clust_5="13000.00000" pt_clust_6="13000.00000" pt_clust_7="13000.00000" pt_clust_8="13000.00000" pt_clust_9="29.21474" pt_clust_10="13000.00000"></scales>
<clustering>
<clus scale="   29.215">  2  9  1 -1</clus>
<clus scale="   80.675">  5  6 -1 -1</clus>
<clus scale="   94.668">  7  8 -1 -1</clus>
<clus scale="  148.516">  1  5  2 -1</clus>
<clus scale="  167.182">  7 10 -1 -1</clus>
<clus scale="   29.215">  2  5  1 -1</clus>
</clustering>
</event>
<event>
10    4  0.2866397E-005  0.1996770E+03  0.7546771E-02  0.1185573E+00
         21   -1    0    0  503  502  0.00000000000E+00  0.00000000000E+00  0.10606332300E+03  0.10606332300E+03  0.00000000000E+00 0. -1.
          2   -1    0    0  502    0 -0.00000000000E+00 -0.00000000000E+00 -0.39369043092E+03  0.39369043092E+03  0.00000000000E+00 0. -1.
         24    2    1    2    0    0  0.35160387735E+02 -0.89828234497E+01 -0.94910834516E+02  0.12958608136E+03  0.80421029534E+02 0.  0.
         23    2    1    2    0    0 -0.10480722750E+02 -0.91733923551E+02 -0.96573787470E+02  0.16392888791E+03  0.94980132576E+02 0.  0.
        -13    1    3    3    0    0 -0.15652368843E+02 -0.22860320626E+02 -0.60846725248E+02  0.66857422049E+02  0.00000000000E+00 0.  1.
         14    1    3    3    0    0  0.50812756578E+02  0.13877497177E+02 -0.34064109268E+02  0.62728659313E+02  0.00000000000E+00 0. -1.
        -13    1    4    4    0    0  0.37930237582E+02 -0.24797376922E+02 -0.55566275726E+02  0.71702327879E+02  0.00000000000E+00 0.  1.
         13    1    4    4    0    0 -0.48410960332E+02 -0.66936546629E+02 -0.41007511744E+02  0.92226560026E+02  0.00000000000E+00 0. -1.
         21    1    1    2  503  501 -0.71749617114E+02  0.81007583448E+02 -0.13419873056E+02  0.10904278575E+03  0.00000000000E+00 0. -1.
          1    1    1    2  501    0  0.47069952129E+02  0.19709163553E+02 -0.82722612881E+02  0.97195998905E+02  0.00000000000E+00 0. -1.
<scales pt_clust_5="13000.00000" pt_clust_6="13000.00000" pt_clust_7="13000.00000" pt_clust_8="13000.00000" pt_clust_9="101.77539" pt_clust_10="13000.00000"></scales>
<clustering>
<clus scale="   80.421">  5  6 -1 -1</clus>
<clus scale="   88.230">  2  5  1 -1</clus>
<clus scale="   94.980">  7  8 -1 -1</clus>
<clus scale="   60.691">  7 10 -1 -1</clus>
<clus scale="  101.775">  1  9  2 -1</clus>
<clus scale="  101.775">  1  5  2 -1</clus>
</clustering>
</event>
<event>
10    4  0.2866397E-005  0.4809925E+03  0.7546771E-02  0.1048485E+00
         21   -1    0    0  503  502  0.00000000000E+00  0.00000000000E+00  0.15831629870E+03  0.15831629870E+03  0.00000000000E+00 0. -1.
          2   -1    0    0  502    0 -0.00000000000E+00 -0.00000000000E+00 -0.19546894368E+04  0.19546894368E+04  0.00000000000E+00 0. -1.
         24    2    1    2    0    0 -0.10122712632E+03 -0.18270214346E+03 -0.55672972256E+03  0.59992617323E+03  0.79601664670E+02 0.  0.
         23    2    1    2    0    0 -0.14354727557E+03 -0.62572177446E+02 -0.62375152903E+03  0.65044916385E+03  0.97452794048E+02 0.  0.
        -13    1    3    3    0    0 -0.11567850391E+02 -0.64107368921E+02 -0.97746505653E+02  0.11746467248E+03  0.00000000000E+00 0.  1.
         14    1    3    3    0    0 -0.89659275933E+02 -0.11859477454E+03 -0.45898321691E+03  0.48246150075E+03  0.00000000000E+00 0. -1.
        -13    1    4    4    0    0 -0.11423435945E+03 -0.15081394284E+02 -0.52027815680E+03  0.53288488229E+03  0.00000000000E+00 0. -1.
         13    1    4    4    0    0 -0.29312916115E+02 -0.47490783162E+02 -0.10347337223E+03  0.11756428155E+03  0.00000000000E+00 0.  1.
         21    1    1    2  503  501  0.42930598321E+02  0.55463230777E+02  0.84270272365E+02  0.10963888473E+03  0.00000000000E+00 0. -1.
          1    1    1    2  501    0  0.20184380357E+03  0.18981109013E+03 -0.70016215884E+03  0.75299151366E+03  0.00000000000E+00 0. -1.
<scales pt_clust_5="13000.00000" pt_clust_6="13000.00000" pt_clust_7="13000.00000" pt_clust_8="13000.00000" pt_clust_9="70.13705" pt_clust_10="13000.00000"></scales>
<clustering>
<clus scale="   70.137">  1  9  2 -1</clus>
<clus scale="   79.602">  5  6 -1 -1</clus>
<clus scale="   97.453">  7  8 -1 -1</clus>
<clus scale="  200.948">  2  5  1 -1</clus>
<clus scale="  202.997">  7 10 -1 -1</clus>
<clus scale="   70.137">  1  5  2 -1</clus>
</clustering>
</event>
<event>
10    4  0.2866397E-005  0.2539145E+03  0.7546771E-02  0.1152545E+00
         21   -1    0    0  501  502  0.00000000000E+00  0.00000000000E+00  0.30232864459E+03  0.30232864459E+03  0.00000000000E+00 0. -1.
          2   -1    0    0  503    0 -0.00000000000E+00 -0.00000000000E+00 -0.56662334685E+03  0.56662334685E+03  0.00000000000E+00 0. -1.
         24    2    1    2    0    0  0.47877532436E+02  0.11182481667E+02 -0.32959236120E+03  0.34204721019E+03  0.77122392544E+02 0.  0.
         23    2    1    2    0    0 -0.39836801619E+02 -0.30519855509E+02 -0.33250701489E+02  0.11879527697E+03  0.10241228606E+03 0.  0.
        -13    1    3    3    0    0 -0.75381781608E+01 -0.23676024715E+02 -0.68336684369E+02  0.72713689955E+02  0.00000000000E+00 0.  1.
         14    1    3    3    0    0  0.55415710597E+02  0.34858506381E+02 -0.26125567683E+03  0.26933352024E+03  0.00000000000E+00 0. -1.
        -13    1    4    4    0    0  0.29105008297E+01  0.33351948528E+02  0.33928244439E+01  0.33650181922E+02  0.00000000000E+00 0. -1.
         13    1    4    4    0    0 -0.42747302449E+02 -0.63871804038E+02 -0.36643525932E+02  0.85145095046E+02  0.00000000000E+00 0.  1.
         21    1    1    2  503  502 -0.19318630372E+01  0.16831538981E+03  0.17306431332E+03  0.24142298790E+03  0.00000000000E+00 0. -1.
          1    1    1    2  501    0 -0.61088677801E+01 -0.14897801597E+03 -0.74515952895E+02  0.16668651638E+03  0.00000000000E+00 0. -1.
<scales pt_clust_5="13000.00000" pt_clust_6="13000.00000" pt_clust_7="13000.00000" pt_clust_8="13000.00000" pt_clust_9="170.04964" pt_clust_10="13000.00000"></scales>
<clustering>
<clus scale="   77.122">  5  6 -1 -1</clus>
<clus scale="   91.461">  2  5  1 -1</clus>
<clus scale="  102.412">  7  8 -1 -1</clus>
<clus scale="  144.378">  7 10 -1 -1</clus>
<clus scale="  170.050">  1  9  2 -1</clus>
<clus scale="  170.050">  1  5  2 -1</clus>
</clustering>
</event>
<event>
10    4  0.2866397E-005  0.2598320E+03  0.7546771E-02  0.1145624E+00
         21   -1    0    0  501  502  0.00000000000E+00  0.00000000000E+00  0.26418838079E+03  0.26418838079E+03  0.00000000000E+00 0. -1.
          2   -1    0    0  503    0 -0.00000000000E+00 -0.00000000000E+00 -0.49790130140E+03  0.49790130140E+03  0.00000000000E+00 0. -1.
         24    2    1    2    0    0  0.38478993874E+02 -0.56349332660E+02 -0.15908403440E+03  0.19046842512E+03  0.79464524819E+02 0.  0.
         23    2    1    2    0    0  0.65470461950E+02 -0.35338709043E+02 -0.58507487327E+02  0.13336534285E+03  0.93957345932E+02 0.  0.
        -13    1    3    3    0    0  0.31361058209E+02  0.59688583353E+01 -0.97390857513E+02  0.10248962079E+03  0.00000000000E+00 0.  1.
         14    1    3    3    0    0  0.71179356649E+01 -0.62318190995E+02 -0.61693176891E+02  0.87978804334E+02  0.00000000000E+00 0. -1.
        -11    1    4    4    0    0  0.47276138728E+02 -0.50095057080E+02  0.15527492029E+01  0.68898178981E+02  0.00000000000E+00 0.  1.
         11    1    4    4    0    0  0.18194323223E+02  0.14756348037E+02 -0.60060236530E+02  0.64467163866E+02  0.00000000000E+00 0. -1.
         21    1    1    2  503  502 -0.21740308640E+02  0.18898555410E+02  0.19668937363E+03  0.19878759045E+03  0.00000000000E+00 0. -1.
          1    1    1    2  501    0 -0.82209147184E+02  0.72789486293E+02 -0.21281077251E+03  0.23946832377E+03  0.00000000000E+00 0. -1.
<scales pt_clust_5="13000.00000" pt_clust_6="13000.00000" pt_clust_7="13000.00000" pt_clust_8="13000.00000" pt_clust_9="28.80619" pt_clust_10="13000.00000"></scales>
<clustering>
<clus scale="   28.806">  1  9  2 -1</clus>
<clus scale="   79.465">  5  6 -1 -1</clus>
<clus scale="   93.957">  7  8 -1 -1</clus>
<clus scale="  100.592">  2  5  1 -1</clus>
<clus scale="   72.295">  7 10 -1 -1</clus>
<clus scale="   28.806">  1  5  2 -1</clus>
</clustering>
</event>
<event>
10    4  0.2866397E-005  0.5678900E+03  0.7546771E-02  0.1050711E+00
          2   -1    0    0  502    0 -0.00000000000E+00  0.00000000000E+00  0.11976480812E+04  0.11976480812E+04  0.00000000000E+00 0. -1.
         21   -1    0    0  503  502  0.00000000000E+00 -0.00000000000E+00 -0.10739536469E+03  0.10739536469E+03  0.00000000000E+00 0. -1.
         24    2    1    2    0    0  0.16720856770E+02 -0.75230101692E+02  0.19206451209E+03  0.22315979857E+03  0.83500680486E+02 0.  0.
         23    2    1    2    0    0  0.24831462650E+03  0.86235259530E+01  0.65717819028E+03  0.70795324142E+03  0.87063765877E+02 0.  0.
        -13    1    3    3    0    0  0.10805574252E+02 -0.46730371205E+02  0.18769520072E+03  0.19372655058E+03  0.00000000000E+00 0.  1.
         14    1    3    3    0    0  0.59152825177E+01 -0.28499730487E+02  0.43693113685E+01  0.29433247985E+02  0.00000000000E+00 0. -1.
        -13    1    4    4    0    0  0.79800377403E+02 -0.33714106345E+02  0.17164705323E+03  0.19226921772E+03  0.00000000000E+00 0.  1.
         13    1    4    4    0    0  0.16851424909E+03  0.42337632298E+02  0.48553113705E+03  0.51568402371E+03  0.00000000000E+00 0. -1.
         21    1    1    2  503  501 -0.16749789529E+02 -0.12359413663E+02  0.29795494390E+01  0.21028273116E+02  0.00000000000E+00 0.  1.
          1    1    1    2  501    0 -0.24828569374E+03  0.78965989403E+02  0.23803046473E+03  0.35290213280E+03  0.00000000000E+00 0. -1.
<scales pt_clust_5="13000.00000" pt_clust_6="13000.00000" pt_clust_7="13000.00000" pt_clust_8="13000.00000" pt_clust_9="20.81611" pt_clust_10="13000.00000"></scales>
<clustering>
<clus scale="   20.816">  2  9  1 -1</clus>
<clus scale="   83.501">  5  6 -1 -1</clus>
<clus scale="   87.064">  7  8 -1 -1</clus>
<clus scale="  114.576">  1  5  2 -1</clus>
<clus scale="  257.765">  7 10 -1 -1</clus>
<clus scale="   20.816">  2  5  1 -1</clus>
</clustering>
</event>
<event>
10    4  0.2866397E-005  0.1808853E+03  0.7546771E-02  0.1181859E+00
          2   -1    0    0  503    0 -0.00000000000E+00  0.00000000000E+00  0.75322291587E+03  0.75322291587E+03  0.00000000000E+00 0. -1.
         21   -1    0    0  501  502  0.00000000000E+00 -0.00000000000E+00 -0.84170468371E+02  0.84170468371E+02  0.00000000000E+00 0. -1.
         24    2    1    2    0    0  0.75661138465E+02 -0.36991118027E+02  0.23112376497E+03  0.25764631495E+03  0.76619045847E+02 0.  0.
         23    2    1    2    0    0 -0.18216849645E+02  0.41961934370E+02  0.27600407954E+03  0.29250110391E+03  0.85357989191E+02 0.  0.
        -11    1    3    3    0    0  0.33107036570E+02  0.22971584155E+02  0.78877493348E+02  0.88574423543E+02  0.00000000000E+00 0.  1.
         12    1    3    3    0    0  0.42554101896E+02 -0.59962702182E+02  0.15224627162E+03  0.16907189141E+03  0.00000000000E+00 0. -1.
        -13    1    4    4    0    0 -0.14215961155E+02 -0.23956379260E+02  0.11815117520E+03  0.12139069923E+03  0.00000000000E+00 0.  1.
         13    1    4    4    0    0 -0.40008884895E+01  0.65918313631E+02  0.15785290434E+03  0.17111040468E+03  0.00000000000E+00 0. -1.
         21    1    1    2  503  502  0.39049936267E+02 -0.30983651924E+02 -0.38699932783E+02  0.63107598643E+02  0.00000000000E+00 0. -1.
          1    1    1    2  501    0 -0.96494225087E+02  0.26012835581E+02  0.20062453577E+03  0.22413836674E+03  0.00000000000E+00 0. -1.
<scales pt_clust_5="13000.00000" pt_clust_6="13000.00000" pt_clust_7="13000.00000" pt_clust_8="13000.00000" pt_clust_9="49.84861" pt_clust_10="13000.00000"></scales>
<clustering>
<clus scale="   49.849">  2  9  1 -1</clus>
<clus scale="   76.619">  5  6 -1 -1</clus>
<clus scale="   85.358">  7  8 -1 -1</clus>
<clus scale="   84.054">  7 10 -1 -1</clus>
<clus scale="  128.948">  1  5  2 -1</clus>
<clus scale="   49.849">  2  5  1 -1</clus>
</clustering>
</event>
<event>
10    4  0.2866397E-005  0.1985366E+03  0.7546771E-02  0.1161390E+00
         21   -1    0    0  501  502  0.00000000000E+00  0.00000000000E+00  0.21550543614E+03  0.21550543614E+03  0.00000000000E+00 0.  1.
          2   -1    0    0  503    0 -0.00000000000E+00 -0.00000000000E+00 -0.32911078909E+03  0.32911078909E+03  0.00000000000E+00 0. -1.
         24    2    1    2    0    0 -0.90939503685E+01 -0.15027008552E+03 -0.18197892980E+03  0.24953017352E+03  0.80530603305E+02 0.  0.
         23    2    1    2    0    0 -0.54583495845E+02  0.10690824931E+03 -0.12338038575E+02  0.15023589217E+03  0.89497845291E+02 0.  0.
        -13    1    3    3    0    0 -0.24689613556E+02 -0.23526171917E+02 -0.10416567164E+02  0.35658977188E+02  0.00000000000E+00 0.  1.
         14    1    3    3    0    0  0.15595663188E+02 -0.12674391360E+03 -0.17156236264E+03  0.21387119633E+03  0.00000000000E+00 0. -1.
        -11    1    4    4    0    0 -0.71137149787E+02  0.50054698357E+02  0.86507914577E+01  0.87411687435E+02  0.00000000000E+00 0. -1.
         11    1    4    4    0    0  0.16553653942E+02  0.56853550950E+02 -0.20988830033E+02  0.62824204735E+02  0.00000000000E+00 0.  1.
         21    1    1    2  503  502  0.41051590449E+02  0.56733462517E+02  0.92522994170E+02  0.11603630164E+03  0.00000000000E+00 0.  1.
          1    1    1    2  501    0  0.22625855765E+02 -0.13371626309E+02 -0.11811378747E+02  0.28813857901E+02  0.00000000000E+00 0. -1.
<scales pt_clust_5="13000.00000" pt_clust_6="13000.00000" pt_clust_7="13000.00000" pt_clust_8="13000.00000" pt_clust_9="70.02799" pt_clust_10="13000.00000"></scales>
<clustering>
<clus scale="   70.028">  1  9  2 -1</clus>
<clus scale="   80.531">  5  6 -1 -1</clus>
<clus scale="   89.498">  7  8 -1 -1</clus>
<clus scale="   27.302">  7 10 -1 -1</clus>
<clus scale="  155.553">  2  5  1 -1</clus>
<clus scale="   70.028">  1  5  2 -1</clus>
</clustering>
</event>
<event>
10    4  0.2866397E-005  0.2515584E+03  0.7546771E-02  0.1149347E+00
          2   -1    0    0  502    0 -0.00000000000E+00  0.00000000000E+00  0.84920735524E+03  0.84920735524E+03  0.00000000000E+00 0. -1.
         21   -1    0    0  503  502  0.00000000000E+00 -0.00000000000E+00 -0.22754565014E+03  0.22754565014E+03  0.00000000000E+00 0.  1.
         24    2    1    2    0    0  0.60942585213E+02  0.14915589255E+02  0.57909368187E+03  0.58780794821E+03  0.78944398794E+02 0.  0.
         23    2    1    2    0    0 -0.60648643253E+02 -0.96265092768E+02  0.40347614689E+02  0.15214425457E+03  0.92599774147E+02 0.  0.
        -11    1    3    3    0    0  0.61658011384E+02 -0.20621515857E+02  0.35297976908E+03  0.35891736468E+03  0.00000000000E+00 0.  1.
         12    1    3    3    0    0 -0.71542617146E+00  0.35537105112E+02  0.22611391279E+03  0.22889058354E+03  0.00000000000E+00 0. -1.
        -13    1    4    4    0    0 -0.61681820097E+02 -0.17248351096E+02  0.34884779147E+02  0.72932162741E+02  0.00000000000E+00 0. -1.
         13    1    4    4    0    0  0.10331768437E+01 -0.79016741673E+02  0.54628355414E+01  0.79212091824E+02  0.00000000000E+00 0.  1.
         21    1    1    2  503  501  0.10304831494E+02  0.19331310572E+02 -0.16068302172E+03  0.16216942557E+03  0.00000000000E+00 0.  1.
          1    1    1    2  501    0 -0.10598773454E+02  0.62018192942E+02  0.16290343026E+03  0.17463137703E+03  0.00000000000E+00 0. -1.
<scales pt_clust_5="13000.00000" pt_clust_6="13000.00000" pt_clust_7="13000.00000" pt_clust_8="13000.00000" pt_clust_9="21.90637" pt_clust_10="13000.00000"></scales>
<clustering>
<clus scale="   21.906">  2  9  1 -1</clus>
<clus scale="   78.944">  5  6 -1 -1</clus>
<clus scale="   92.600">  7  8 -1 -1</clus>
<clus scale="   64.464">  7 10 -1 -1</clus>
<clus scale="  101.447">  1  5  2 -1</clus>
<clus scale="   21.906">  2  5  1 -1</clus>
</clustering>
</event>
<event>
10    4  0.2866397E-005  0.5512306E+03  0.7546771E-02  0.1047074E+00
         21   -1    0    0  501  502  0.00000000000E+00  0.00000000000E+00  0.12860274885E+04  0.12860274885E+04  0.00000000000E+00 0. -1.
          2   -1    0    0  503    0 -0.00000000000E+00 -0.00000000000E+00 -0.38859327466E+03  0.38859327466E+03  0.00000000000E+00 0. -1.
         24    2    1    2    0    0 -0.55007594088E+02 -0.12844243533E+03 -0.24904551677E+02  0.16330651472E+03  0.80780483118E+02 0.  0.
         23    2    1    2    0    0  0.10083804751E+03 -0.19667115777E+03 -0.19133254004E+03  0.30606804662E+03  0.90673326619E+02 0.  0.
        -13    1    3    3    0    0 -0.23199864466E+02 -0.56202978472E+01 -0.27488029655E+02  0.36406225202E+02  0.00000000000E+00 0.  1.
         14    1    3    3    0    0 -0.31807729623E+02 -0.12282213749E+03  0.25834779778E+01  0.12690028952E+03  0.00000000000E+00 0. -1.
        -13    1    4    4    0    0  0.42517060915E+01 -0.95358481555E+02 -0.10360459103E+03  0.14087309286E+03  0.00000000000E+00 0.  1.
         13    1    4    4    0    0  0.96586341421E+02 -0.10131267622E+03 -0.87727949004E+02  0.16519495376E+03  0.00000000000E+00 0. -1.
         21    1    1    2  503  502 -0.16545163297E+02  0.14900417978E+03  0.95407444422E+03  0.96578156595E+03  0.00000000000E+00 0. -1.
          1    1    1    2  501    0 -0.29285290128E+02  0.17610941332E+03  0.15959686133E+03  0.23946463585E+03  0.00000000000E+00 0. -1.
<scales pt_clust_5="13000.00000" pt_clust_6="13000.00000" pt_clust_7="13000.00000" pt_clust_8="13000.00000" pt_clust_9="149.91994" pt_clust_10="13000.00000"></scales>
<clustering>
<clus scale="   80.780">  5  6 -1 -1</clus>
<clus scale="   90.673">  7  8 -1 -1</clus>
<clus scale="  149.920">  1  9  2 -1</clus>
<clus scale="  139.013">  2  5  1 -1</clus>
<clus scale="  242.593">  7 10 -1 -1</clus>
<clus scale="  149.920">  1  5  2 -1</clus>
</clustering>
</event>
<event>
10    4  0.2866397E-005  0.1649402E+03  0.7546771E-02  0.1214672E+00
          2   -1    0    0  502    0 -0.00000000000E+00  0.00000000000E+00  0.57664740420E+03  0.57664740420E+03  0.00000000000E+00 0. -1.
         21   -1    0    0  503  502  0.00000000000E+00 -0.00000000000E+00 -0.11821918017E+03  0.11821918017E+03  0.00000000000E+00 0.  1.
         24    2    1    2    0    0  0.31195852271E+02 -0.25048163517E+02 -0.65128497668E+02  0.11147703645E+03  0.81146883814E+02 0.  0.
         23    2    1    2    0    0 -0.38442841183E+02  0.20987261870E+01  0.20560826209E+03  0.22831109937E+03  0.91481932438E+02 0.  0.
        -13    1    3    3    0    0  0.35965147268E+02 -0.49716540164E+02 -0.60025788896E+02  0.85838927745E+02  0.00000000000E+00 0.  1.
         14    1    3    3    0    0 -0.47692949968E+01  0.24668376647E+02 -0.51027087721E+01  0.25638108705E+02  0.00000000000E+00 0. -1.
        -13    1    4    4    0    0 -0.66873651879E+02  0.10545528029E+02  0.12095365189E+03  0.13861125272E+03  0.00000000000E+00 0.  1.
         13    1    4    4    0    0  0.28430810696E+02 -0.84468018419E+01  0.84654610208E+02  0.89699846642E+02  0.00000000000E+00 0. -1.
         21    1    1    2  503  501 -0.29732440190E+02  0.84352363920E+01 -0.35733741991E+01  0.31111737589E+02  0.00000000000E+00 0.  1.
          1    1    1    2  501    0  0.36979429102E+02  0.14514200938E+02  0.32152183380E+03  0.32396671097E+03  0.00000000000E+00 0. -1.
<scales pt_clust_5="13000.00000" pt_clust_6="13000.00000" pt_clust_7="13000.00000" pt_clust_8="13000.00000" pt_clust_9="30.90584" pt_clust_10="13000.00000"></scales>
<clustering>
<clus scale="   30.906">  2  9  1 -1</clus>
<clus scale="   81.147">  5  6 -1 -1</clus>
<clus scale="   83.208">  1  5  2 -1</clus>
<clus scale="   91.482">  7  8 -1 -1</clus>
<clus scale="   39.877">  7 10 -1 -1</clus>
<clus scale="   30.906">  2  5  1 -1</clus>
</clustering>
</event>
<event>
10    4  0.2866397E-005  0.1680045E+03  0.7546771E-02  0.1212751E+00
          2   -1    0    0  503    0 -0.00000000000E+00  0.00000000000E+00  0.90837606322E+03  0.90837606322E+03  0.00000000000E+00 0. -1.
         21   -1    0    0  501  502  0.00000000000E+00 -0.00000000000E+00 -0.23065527534E+02  0.23065527534E+02  0.00000000000E+00 0. -1.
         24    2    1    2    0    0  0.11712876646E+02 -0.49997021424E+00  0.35934557792E+03  0.36841511317E+03  0.80392846669E+02 0.  0.
         23    2    1    2    0    0  0.10406654779E+02 -0.43021028353E+02  0.25210454760E+03  0.27079778885E+03  0.88406064160E+02 0.  0.
        -11    1    3    3    0    0 -0.26128003235E+02  0.22702108164E+02  0.11598358869E+03  0.12103822170E+03  0.00000000000E+00 0.  1.
         12    1    3    3    0    0  0.37840879881E+02 -0.23202078378E+02  0.24336198923E+03  0.24737689147E+03  0.00000000000E+00 0. -1.
        -13    1    4    4    0    0  0.43920519271E+02 -0.41007139126E+02  0.11631292129E+03  0.13091712314E+03  0.00000000000E+00 0. -1.
         13    1    4    4    0    0 -0.33513864491E+02 -0.20138892270E+01  0.13579162631E+03  0.13988066571E+03  0.00000000000E+00 0.  1.
         21    1    1    2  503  502  0.16523415661E+02 -0.13359258601E+02  0.19860176063E+02  0.29084697845E+02  0.00000000000E+00 0. -1.
          1    1    1    2  501    0 -0.38642947087E+02  0.56880257168E+02  0.25400023411E+03  0.26314399089E+03  0.00000000000E+00 0. -1.
<scales pt_clust_5="13000.00000" pt_clust_6="13000.00000" pt_clust_7="13000.00000" pt_clust_8="13000.00000" pt_clust_9="21.24837" pt_clust_10="13000.00000"></scales>
<clustering>
<clus scale="   21.248">  2  9  1 -1</clus>
<clus scale="   80.393">  5  6 -1 -1</clus>
<clus scale="   82.013">  1  5  2 -1</clus>
<clus scale="   88.406">  7  8 -1 -1</clus>
<clus scale="   58.882">  7 10 -1 -1</clus>
<clus scale="   21.248">  2  5  1 -1</clus>
</clustering>
</event>
<event>
10    4  0.2866397E-005  0.3638655E+03  0.7546771E-02  0.1059281E+00
         21   -1    0    0  503  502  0.00000000000E+00  0.00000000000E+00  0.83223770762E+02  0.83223770762E+02  0.00000000000E+00 0.  1.
          2   -1    0    0  502    0 -0.00000000000E+00 -0.00000000000E+00 -0.17326424670E+04  0.17326424670E+04  0.00000000000E+00 0. -1.
         24    2    1    2    0    0  0.31230734689E+03 -0.99981252119E+02 -0.81520627985E+03  0.88244762225E+03  0.81365825826E+02 0.  0.
         23    2    1    2    0    0 -0.17205310371E+03  0.89375825248E+02 -0.56143365153E+03  0.60090711752E+03  0.91056631741E+02 0.  0.
        -13    1    3    3    0    0  0.16596820433E+03 -0.82173541961E+02 -0.52945781742E+03  0.56091310938E+03  0.00000000000E+00 0.  1.
         14    1    3    3    0    0  0.14633914256E+03 -0.17807710158E+02 -0.28574846243E+03  0.32153451287E+03  0.00000000000E+00 0. -1.
        -11    1    4    4    0    0 -0.11761356638E+03  0.10128544386E+02 -0.30710936586E+03  0.32901626253E+03  0.00000000000E+00 0.  1.
         11    1    4    4    0    0 -0.54439537328E+02  0.79247280862E+02 -0.25432428567E+03  0.27189085500E+03  0.00000000000E+00 0. -1.
         21    1    1    2  503  501 -0.56861358670E+01 -0.44021555971E+02 -0.53778453728E+02  0.69730564436E+02  0.00000000000E+00 0. -1.
          1    1    1    2  501    0 -0.13456810731E+03  0.54626982842E+02 -0.21900031108E+03  0.26278093351E+03  0.00000000000E+00 0. -1.
<scales pt_clust_5="13000.00000" pt_clust_6="13000.00000" pt_clust_7="13000.00000" pt_clust_8="13000.00000" pt_clust_9="44.38727" pt_clust_10="13000.00000"></scales>
<clustering>
<clus scale="   44.387">  1  9  2 -1</clus>
<clus scale="   81.366">  5  6 -1 -1</clus>
<clus scale="   91.057">  7  8 -1 -1</clus>
<clus scale="  142.497">  7 10 -1 -1</clus>
<clus scale="  341.895">  2  5  1 -1</clus>
<clus scale="   44.387">  1  5  2 -1</clus>
</clustering>
</event>
<event>
10    4  0.2866397E-005  0.2459964E+03  0.7546771E-02  0.1125629E+00
         21   -1    0    0  503  502  0.00000000000E+00  0.00000000000E+00  0.96287960441E+02  0.96287960441E+02  0.00000000000E+00 0. -1.
          2   -1    0    0  502    0 -0.00000000000E+00 -0.00000000000E+00 -0.14826016003E+04  0.14826016003E+04  0.00000000000E+00 0. -1.
         24    2    1    2    0    0  0.14346142174E+03  0.55005302565E+02 -0.30018550061E+03  0.34657293257E+03  0.79966868006E+02 0.  0.
         23    2    1    2    0    0 -0.28237436292E+02 -0.73974250255E+01 -0.34259695958E+03  0.35503784300E+03  0.88471003975E+02 0.  0.
        -11    1    3    3    0    0  0.65546463731E+02  0.55062737653E+02 -0.21347232728E+03  0.22999712715E+03  0.00000000000E+00 0.  1.
         12    1    3    3    0    0  0.77914958008E+02 -0.57435087843E-01 -0.86713173335E+02  0.11657580542E+03  0.00000000000E+00 0. -1.
        -11    1    4    4    0    0  0.35373844978E+00 -0.45478514584E+02 -0.17387769688E+03  0.17972722079E+03  0.00000000000E+00 0.  1.
         11    1    4    4    0    0 -0.28591174742E+02  0.38081089558E+02 -0.16871926269E+03  0.17531062221E+03  0.00000000000E+00 0. -1.
         21    1    1    2  503  501  0.45307219615E+02 -0.29080553720E+02  0.46347890711E+02  0.71039071836E+02  0.00000000000E+00 0. -1.
          1    1    1    2  501    0 -0.16053120506E+03 -0.18527323819E+02 -0.78987907043E+03  0.80623971338E+03  0.00000000000E+00 0. -1.
<scales pt_clust_5="13000.00000" pt_clust_6="13000.00000" pt_clust_7="13000.00000" pt_clust_8="13000.00000" pt_clust_9="53.83700" pt_clust_10="13000.00000"></scales>
<clustering>
<clus scale="   53.837">  1  9  2 -1</clus>
<clus scale="   79.967">  5  6 -1 -1</clus>
<clus scale="   88.471">  7  8 -1 -1</clus>
<clus scale="  152.709">  7 10 -1 -1</clus>
<clus scale="  192.746">  2  5  1 -1</clus>
<clus scale="   53.837">  1  5  2 -1</clus>
</clustering>
</event>
<event>
10    4  0.2866397E-005  0.1437937E+04  0.7546771E-02  0.9693653E-01
         21   -1    0    0  503  502  0.00000000000E+00  0.00000000000E+00  0.57771358236E+03  0.57771358236E+03  0.00000000000E+00 0. -1.
          2   -1    0    0  502    0 -0.00000000000E+00 -0.00000000000E+00 -0.22597825915E+04  0.22597825915E+04  0.00000000000E+00 0. -1.
         24    2    1    2    0    0  0.91477640202E+01  0.18653401027E+01  0.43976846947E+02  0.96173728614E+02  0.85019185646E+02 0.  0.
         23    2    1    2    0    0  0.40684608426E+02  0.53795253693E+03 -0.20811807803E+03  0.58554235256E+03  0.92187541916E+02 0.  0.
        -11    1    3    3    0    0 -0.70969197148E+01  0.41573125351E+02  0.16857075420E+02  0.45418630677E+02  0.00000000000E+00 0.  1.
         12    1    3    3    0    0  0.16244683735E+02 -0.39707785248E+02  0.27119771527E+02  0.50755097937E+02  0.00000000000E+00 0. -1.
        -11    1    4    4    0    0 -0.22324250262E+02  0.49163244031E+02 -0.13367226761E+02  0.55624450242E+02  0.00000000000E+00 0.  1.
         11    1    4    4    0    0  0.63008858688E+02  0.48878929290E+03 -0.19475085126E+03  0.52991790232E+03  0.00000000000E+00 0. -1.
         21    1    1    2  503  501  0.44527595219E+02  0.15471727793E+02  0.27368530324E+03  0.27771518918E+03  0.00000000000E+00 0. -1.
          1    1    1    2  501    0 -0.94359967665E+02 -0.55528960483E+03 -0.17916130813E+04  0.18780649035E+04  0.00000000000E+00 0. -1.
<scales pt_clust_5="13000.00000" pt_clust_6="13000.00000" pt_clust_7="13000.00000" pt_clust_8="13000.00000" pt_clust_9="47.13896" pt_clust_10="13000.00000"></scales>
<clustering>
<clus scale="   47.139">  1  9  2 -1</clus>
<clus scale="   85.019">  5  6 -1 -1</clus>
<clus scale="   87.393">  2  5  1 -1</clus>
<clus scale="   92.188">  7  8 -1 -1</clus>
<clus scale="  553.364">  7 10 -1 -1</clus>
<clus scale="   47.139">  1  5  2 -1</clus>
</clustering>
</event>
<event>
10    4  0.2866397E-005  0.3525543E+03  0.7546771E-02  0.1104170E+00
         -1   -1    0    0    0  501 -0.00000000000E+00  0.00000000000E+00  0.40687661618E+03  0.40687661618E+03  0.00000000000E+00 0.  1.
         21   -1    0    0  501  502  0.00000000000E+00 -0.00000000000E+00 -0.33441182520E+03  0.33441182520E+03  0.00000000000E+00 0.  1.
         24    2    1    2    0    0  0.22886839739E+02 -0.64861202632E+02  0.11545871807E+03  0.15681686252E+03  0.80808599496E+02 0.  0.
         23    2    1    2    0    0  0.46998405766E+01 -0.10222342657E+02 -0.90905370901E+02  0.12818240346E+03  0.89668039499E+02 0.  0.
        -13    1    3    3    0    0 -0.74048451622E+01 -0.73762113654E+02  0.87114535390E+02  0.11438803879E+03  0.00000000000E+00 0.  1.
         14    1    3    3    0    0  0.30291684901E+02  0.89009110224E+01  0.28344182676E+02  0.42428823726E+02  0.00000000000E+00 0. -1.
        -13    1    4    4    0    0  0.22982100959E+02 -0.43731056722E+02 -0.35226463039E+02  0.60675250183E+02  0.00000000000E+00 0. -1.
         13    1    4    4    0    0 -0.18282260383E+02  0.33508714065E+02 -0.55678907863E+02  0.67507153279E+02  0.00000000000E+00 0.  1.
         21    1    1    2  503  502 -0.38247587770E+02 -0.87224214582E+02 -0.16369798668E+03  0.18938841681E+03  0.00000000000E+00 0.  1.
         -2    1    1    2    0  503  0.10660907454E+02  0.16230775987E+03  0.21160943050E+03  0.26690075859E+03  0.00000000000E+00 0.  1.
<scales pt_clust_5="13000.00000" pt_clust_6="13000.00000" pt_clust_7="13000.00000" pt_clust_8="13000.00000" pt_clust_9="95.24149" pt_clust_10="13000.00000"></scales>
<clustering>
<clus scale="   80.809">  5  6 -1 -1</clus>
<clus scale="   89.668">  7  8 -1 -1</clus>
<clus scale="   95.241">  2  9  1 -1</clus>
<clus scale="  112.558">  1  5  2 -1</clus>
<clus scale="   88.457">  7 10 -1 -1</clus>
<clus scale="   95.241">  2  5  1 -1</clus>
</clustering>
</event>
<event>
10    4  0.2866397E-005  0.3928588E+03  0.7546771E-02  0.1093337E+00
         21   -1    0    0  501  502  0.00000000000E+00  0.00000000000E+00  0.52115590000E+02  0.52115590000E+02  0.00000000000E+00 0. -1.
          2   -1    0    0  503    0 -0.00000000000E+00 -0.00000000000E+00 -0.15844339198E+04  0.15844339198E+04  0.00000000000E+00 0. -1.
         24    2    1    2    0    0  0.15365328912E+00  0.79267194718E+02 -0.25556669325E+03  0.27825479584E+03  0.76341895076E+02 0.  0.
         23    2    1    2    0    0 -0.11302991464E+03 -0.14761772421E+03 -0.46331567309E+03  0.50751378780E+03  0.91334975581E+02 0.  0.
        -11    1    3    3    0    0 -0.15891956117E+02  0.43524116358E+02 -0.22162843680E+03  0.22642011167E+03  0.00000000000E+00 0.  1.
         12    1    3    3    0    0  0.16045609406E+02  0.35743078360E+02 -0.33938256454E+02  0.51834684170E+02  0.00000000000E+00 0. -1.
        -11    1    4    4    0    0 -0.67923297505E+02 -0.64870269978E+02 -0.33743786786E+03  0.35026567194E+03  0.00000000000E+00 0.  1.
         11    1    4    4    0    0 -0.45106617131E+02 -0.82747454229E+02 -0.12587780523E+03  0.15724811586E+03  0.00000000000E+00 0. -1.
         21    1    1    2  503  502 -0.19121214421E+02 -0.11856377566E+02  0.31534523169E+00  0.22500977146E+02  0.00000000000E+00 0. -1.
          1    1    1    2  501    0  0.13199747577E+03  0.80206907055E+02 -0.81375130872E+03  0.82827994905E+03  0.00000000000E+00 0. -1.
<scales pt_clust_5="13000.00000" pt_clust_6="13000.00000" pt_clust_7="13000.00000" pt_clust_8="13000.00000" pt_clust_9="22.49877" pt_clust_10="13000.00000"></scales>
<clustering>
<clus scale="   22.499">  1  9  2 -1</clus>
<clus scale="   76.342">  5  6 -1 -1</clus>
<clus scale="   91.335">  7  8 -1 -1</clus>
<clus scale="  107.821">  2  5  1 -1</clus>
<clus scale="  175.731">  7 10 -1 -1</clus>
<clus scale="   22.499">  1  5  2 -1</clus>
</clustering>
</event>
<event>
10    4  0.2866397E-005  0.2477652E+03  0.7546771E-02  0.1120462E+00
         21   -1    0    0  503  502  0.00000000000E+00  0.00000000000E+00  0.35084761140E+03  0.35084761140E+03  0.00000000000E+00 0. -1.
          2   -1    0    0  502    0 -0.00000000000E+00 -0.00000000000E+00 -0.60595964231E+03  0.60595964231E+03  0.00000000000E+00 0. -1.
         24    2    1    2    0    0 -0.22014231687E+03 -0.13470528274E+03 -0.97200189688E+02  0.28700664893E+03  0.79478215745E+02 0.  0.
         23    2    1    2    0    0  0.53807670068E+02  0.78962857166E+02 -0.16113246486E+03  0.20854710979E+03  0.91639661732E+02 0.  0.
        -13    1    3    3    0    0 -0.47357454944E+02 -0.11660476897E+01 -0.38056325713E+02  0.60764892272E+02  0.00000000000E+00 0.  1.
         14    1    3    3    0    0 -0.17278486192E+03 -0.13353923505E+03 -0.59143863975E+02  0.22624175665E+03  0.00000000000E+00 0. -1.
        -11    1    4    4    0    0  0.14285319980E+02  0.78869872154E+02 -0.60473144676E+02  0.10040681415E+03  0.00000000000E+00 0. -1.
         11    1    4    4    0    0  0.39522350088E+02  0.92985011813E-01 -0.10065932018E+03  0.10814029564E+03  0.00000000000E+00 0.  1.
         21    1    1    2  503  501  0.82029631346E+02  0.20370252122E+02  0.21476510545E+03  0.23079830613E+03  0.00000000000E+00 0. -1.
          1    1    1    2  501    0  0.84305015452E+02  0.35372173455E+02 -0.21154448182E+03  0.23045518886E+03  0.00000000000E+00 0. -1.
<scales pt_clust_5="13000.00000" pt_clust_6="13000.00000" pt_clust_7="13000.00000" pt_clust_8="13000.00000" pt_clust_9="84.52105" pt_clust_10="13000.00000"></scales>
<clustering>
<clus scale="   79.478">  5  6 -1 -1</clus>
<clus scale="   84.521">  1  9  2 -1</clus>
<clus scale="   91.640">  7  8 -1 -1</clus>
<clus scale="   97.596">  7 10 -1 -1</clus>
<clus scale="  214.516">  2  5  1 -1</clus>
<clus scale="   84.521">  1  5  2 -1</clus>
</clustering>
</event>
<event>
10    4  0.2866397E-005  0.1927907E+03  0.7546771E-02  0.1168767E+00
          2   -1    0    0  503    0 -0.00000000000E+00  0.00000000000E+00  0.40138305390E+03  0.40138305390E+03  0.00000000000E+00 0. -1.
         21   -1    0    0  501  502  0.00000000000E+00 -0.00000000000E+00 -0.12727981241E+03  0.12727981241E+03  0.00000000000E+00 0. -1.
         24    2    1    2    0    0  0.15415965061E-01 -0.11481986304E+03  0.97915137272E+02  0.17163471737E+03  0.81777141752E+02 0.  0.
         23    2    1    2    0    0 -0.24618835342E+02  0.49088134768E+02  0.10909651596E+03  0.15173744316E+03  0.90035936341E+02 0.  0.
        -11    1    3    3    0    0  0.14749211572E+02 -0.14680859887E+02 -0.10504920581E+02  0.23311375880E+02  0.00000000000E+00 0.  1.
         12    1    3    3    0    0 -0.14733795607E+02 -0.10013900316E+03  0.10842005785E+03  0.14832334149E+03  0.00000000000E+00 0. -1.
        -11    1    4    4    0    0 -0.19301203310E+02 -0.24533200337E+02  0.38889515101E+02  0.49867913058E+02  0.00000000000E+00 0.  1.
         11    1    4    4    0    0 -0.53176320325E+01  0.73621335105E+02  0.70207000860E+02  0.10186953010E+03  0.00000000000E+00 0. -1.
         21    1    1    2  503  502 -0.32562900750E+02 -0.34116104110E+01 -0.48778726124E+02  0.58748154977E+02  0.00000000000E+00 0. -1.
          1    1    1    2  501    0  0.57166320127E+02  0.69143338688E+02  0.11587031438E+03  0.14654255080E+03  0.00000000000E+00 0. -1.
<scales pt_clust_5="13000.00000" pt_clust_6="13000.00000" pt_clust_7="13000.00000" pt_clust_8="13000.00000" pt_clust_9="32.74113" pt_clust_10="13000.00000"></scales>
<clustering>
<clus scale="   32.741">  2  9  1 -1</clus>
<clus scale="   81.777">  5  6 -1 -1</clus>
<clus scale="   90.036">  7  8 -1 -1</clus>
<clus scale="   84.973">  7 10 -1 -1</clus>
<clus scale="  143.293">  1  5  2 -1</clus>
<clus scale="   32.741">  2  5  1 -1</clus>
</clustering>
</event>
<event>
10    4  0.2866397E-005  0.5631538E+03  0.7546771E-02  0.1001535E+00
          2   -1    0    0  502    0 -0.00000000000E+00  0.00000000000E+00  0.13781856106E+04  0.13781856106E+04  0.00000000000E+00 0. -1.
         21   -1    0    0  503  502  0.00000000000E+00 -0.00000000000E+00 -0.34483698157E+03  0.34483698157E+03  0.00000000000E+00 0. -1.
         24    2    1    2    0    0 -0.50210244201E+03  0.84120435877E+02  0.47584809796E+03  0.70147654636E+03  0.80341911643E+02 0.  0.
         23    2    1    2    0    0  0.96322539060E+02  0.26633270739E+02  0.24600503084E+03  0.28017682716E+03  0.89404790895E+02 0.  0.
        -13    1    3    3    0    0 -0.84451451090E+02 -0.13875882028E+02  0.64872999861E+02  0.10739224276E+03  0.00000000000E+00 0.  1.
         14    1    3    3    0    0 -0.41765099092E+03  0.97996317905E+02  0.41097509809E+03  0.59408430361E+03  0.00000000000E+00 0. -1.
        -13    1    4    4    0    0  0.33764367948E+02  0.32733343044E+01  0.10685331771E+02  0.35565764092E+02  0.00000000000E+00 0.  1.
         13    1    4    4    0    0  0.62558171112E+02  0.23359936435E+02  0.23531969907E+03  0.24461106307E+03  0.00000000000E+00 0. -1.
         21    1    1    2  503  501  0.11158102015E+02  0.22024770593E+02 -0.13127961985E+03  0.13358118262E+03  0.00000000000E+00 0. -1.
          1    1    1    2  501    0  0.39462180093E+03 -0.13277847721E+03  0.44277512007E+03  0.60778803602E+03  0.00000000000E+00 0. -1.
<scales pt_clust_5="13000.00000" pt_clust_6="13000.00000" pt_clust_7="13000.00000" pt_clust_8="13000.00000" pt_clust_9="24.68995" pt_clust_10="13000.00000"></scales>
<clustering>
<clus scale="   24.690">  2  9  1 -1</clus>
<clus scale="   80.342">  5  6 -1 -1</clus>
<clus scale="   89.405">  7  8 -1 -1</clus>
<clus scale="  417.849">  7 10 -1 -1</clus>
<clus scale="  511.690">  1  5  2 -1</clus>
<clus scale="   24.690">  2  5  1 -1</clus>
</clustering>
</event>
<event>
10    4  0.2866397E-005  0.3822083E+03  0.7546771E-02  0.1073507E+00
          2   -1    0    0  503    0 -0.00000000000E+00  0.00000000000E+00  0.17946757767E+04  0.17946757767E+04  0.00000000000E+00 0. -1.
         21   -1    0    0  501  502  0.00000000000E+00 -0.00000000000E+00 -0.57631616636E+02  0.57631616636E+02  0.00000000000E+00 0. -1.
         24    2    1    2    0    0 -0.20808768108E+02 -0.16737250202E+03  0.50402421126E+03  0.54231372910E+03  0.10778318962E+03 0.  0.
         23    2    1    2    0    0 -0.56249280403E+02  0.17766765016E+03  0.83459887854E+03  0.86015529409E+03  0.92639443119E+02 0.  0.
        -11    1    3    3    0    0  0.32053485397E+02 -0.19543324951E+02  0.54633771120E+02  0.66288886120E+02  0.00000000000E+00 0.  1.
         12    1    3    3    0    0 -0.52862253505E+02 -0.14782917707E+03  0.44939044014E+03  0.47602484298E+03  0.00000000000E+00 0. -1.
        -11    1    4    4    0    0 -0.80828035993E+02  0.15259442375E+03  0.67470123277E+03  0.69644811944E+03  0.00000000000E+00 0. -1.
         11    1    4    4    0    0  0.24578755591E+02  0.25073226407E+02  0.15989764577E+03  0.16370717465E+03  0.00000000000E+00 0.  1.
         21    1    1    2  503  502 -0.50754400852E+02  0.12874398854E+02  0.23663632821E+03  0.24236029209E+03  0.00000000000E+00 0. -1.
          1    1    1    2  501    0  0.12781244936E+03 -0.23169546990E+02  0.16178474207E+03  0.20747807809E+03  0.00000000000E+00 0. -1.
<scales pt_clust_5="13000.00000" pt_clust_6="13000.00000" pt_clust_7="13000.00000" pt_clust_8="13000.00000" pt_clust_9="52.36184" pt_clust_10="13000.00000"></scales>
<clustering>
<clus scale="   52.362">  2  9  1 -1</clus>
<clus scale="   92.639">  7  8 -1 -1</clus>
<clus scale="  107.783">  5  6 -1 -1</clus>
<clus scale="  108.116">  7 10 -1 -1</clus>
<clus scale="  199.075">  1  5  2 -1</clus>
<clus scale="   52.362">  2  5  1 -1</clus>
</clustering>
</event>
<event>
10    4  0.2866397E-005  0.6486944E+03  0.7546771E-02  0.9854097E-01
          2   -1    0    0  503    0 -0.00000000000E+00  0.00000000000E+00  0.18268837716E+04  0.18268837716E+04  0.00000000000E+00 0. -1.
         21   -1    0    0  501  502  0.00000000000E+00 -0.00000000000E+00 -0.21734300980E+03  0.21734300980E+03  0.00000000000E+00 0. -1.
         24    2    1    2    0    0  0.29879215506E+03 -0.49157478256E+03  0.68618354205E+03  0.89903249263E+03  0.80554643952E+02 0.  0.
         23    2    1    2    0    0 -0.77880493560E+02  0.38844656674E+03  0.56435468335E+03  0.69608960896E+03  0.95333250187E+02 0.  0.
        -11    1    3    3    0    0  0.10410653691E+03 -0.19907813722E+03  0.32545555041E+03  0.39546376704E+03  0.00000000000E+00 0.  1.
         12    1    3    3    0    0  0.19468561815E+03 -0.29249664534E+03  0.36072799163E+03  0.50356872559E+03  0.00000000000E+00 0. -1.
        -11    1    4    4    0    0 -0.38746464945E+02  0.11338731780E+03  0.10535443762E+03  0.15955415980E+03  0.00000000000E+00 0.  1.
         11    1    4    4    0    0 -0.39134028615E+02  0.27505924895E+03  0.45900024573E+03  0.53653544916E+03  0.00000000000E+00 0. -1.
         21    1    1    2  503  502 -0.45487563084E+01  0.45387351912E+02  0.68783778502E+02  0.82534302460E+02  0.00000000000E+00 0. -1.
          1    1    1    2  501    0 -0.21636290519E+03  0.57740863900E+02  0.29021875785E+03  0.36657037730E+03  0.00000000000E+00 0. -1.
<scales pt_clust_5="13000.00000" pt_clust_6="13000.00000" pt_clust_7="13000.00000" pt_clust_8="13000.00000" pt_clust_9="45.61475" pt_clust_10="13000.00000"></scales>
<clustering>
<clus scale="   45.615">  2  9  1 -1</clus>
<clus scale="   80.555">  5  6 -1 -1</clus>
<clus scale="   95.333">  7  8 -1 -1</clus>
<clus scale="  226.987">  7 10 -1 -1</clus>
<clus scale="  560.362">  1  5  2 -1</clus>
<clus scale="   45.615">  2  5  1 -1</clus>
</clustering>
</event>
<event>
10    4  0.2866397E-005  0.2709043E+03  0.7546771E-02  0.1143780E+00
         21   -1    0    0  503  502  0.00000000000E+00  0.00000000000E+00  0.71051422850E+02  0.71051422850E+02  0.00000000000E+00 0. -1.
          2   -1    0    0  502    0 -0.00000000000E+00 -0.00000000000E+00 -0.10879725768E+04  0.10879725768E+04  0.00000000000E+00 0. -1.
         24    2    1    2    0    0 -0.14639535889E+01  0.45314178582E+02 -0.58372921193E+03  0.59089301899E+03  0.79744900091E+02 0.  0.
         23    2    1    2    0    0 -0.14800929206E+03 -0.88330353185E+02 -0.19230725739E+03  0.27439761832E+03  0.92752196009E+02 0.  0.
        -13    1    3    3    0    0  0.90761680081E+01 -0.21434197473E+02 -0.11652196770E+03  0.11882411626E+03  0.00000000000E+00 0.  1.
         14    1    3    3    0    0 -0.10540121597E+02  0.66748376055E+02 -0.46720724423E+03  0.47206890273E+03  0.00000000000E+00 0. -1.
        -11    1    4    4    0    0 -0.87057336069E+02 -0.81698115131E+02 -0.17284907876E+03  0.21007228710E+03  0.00000000000E+00 0. -1.
         11    1    4    4    0    0 -0.60951955991E+02 -0.66322380541E+01 -0.19458178629E+02  0.64325331218E+02  0.00000000000E+00 0.  1.
         21    1    1    2  503  501  0.73591633958E+02  0.28501307767E+02 -0.67243952955E+02  0.10368125357E+03  0.00000000000E+00 0. -1.
          1    1    1    2  501    0  0.75881611691E+02  0.14514866836E+02 -0.17364073171E+03  0.19005210880E+03  0.00000000000E+00 0. -1.
<scales pt_clust_5="13000.00000" pt_clust_6="13000.00000" pt_clust_7="13000.00000" pt_clust_8="13000.00000" pt_clust_9="78.91802" pt_clust_10="13000.00000"></scales>
<clustering>
<clus scale="   78.918">  1  9  2 -1</clus>
<clus scale="   79.745">  5  6 -1 -1</clus>
<clus scale="   92.752">  7  8 -1 -1</clus>
<clus scale="   89.342">  7 10 -1 -1</clus>
<clus scale="   92.757">  2  5  1 -1</clus>
<clus scale="   78.918">  1  5  2 -1</clus>
</clustering>
</event>
<event>
10    4  0.2866397E-005  0.2134437E+03  0.7546771E-02  0.1165773E+00
          2   -1    0    0  502    0 -0.00000000000E+00  0.00000000000E+00  0.74752078574E+03  0.74752078574E+03  0.00000000000E+00 0. -1.
         21   -1    0    0  503  502  0.00000000000E+00 -0.00000000000E+00 -0.64486328983E+02  0.64486328983E+02  0.00000000000E+00 0. -1.
         24    2    1    2    0    0 -0.20331734253E+02  0.74097918865E+02  0.45481993236E+03  0.46807725744E+03  0.79569259495E+02 0.  0.
         23    2    1    2    0    0  0.98855401056E+02 -0.92841774922E+02  0.15143947637E+03  0.22274700942E+03  0.91051247737E+02 0.  0.
        -13    1    3    3    0    0 -0.31890475299E+02 -0.28548765144E+01  0.15914735262E+03  0.16233617151E+03  0.00000000000E+00 0.  1.
         14    1    3    3    0    0  0.11558741046E+02  0.76952795380E+02  0.29567257975E+03  0.30574108593E+03  0.00000000000E+00 0. -1.
        -11    1    4    4    0    0  0.82559645109E+02 -0.57454894978E+02  0.46506400894E+02  0.11081518525E+03  0.00000000000E+00 0. -1.
         11    1    4    4    0    0  0.16295755947E+02 -0.35386879944E+02  0.10493307547E+03  0.11193182417E+03  0.00000000000E+00 0.  1.
         21    1    1    2  503  501 -0.17508470536E+02  0.25942393650E+02  0.17727609709E+02  0.35969743881E+02  0.00000000000E+00 0. -1.
          1    1    1    2  501    0 -0.61015196267E+02 -0.71985375937E+01  0.59047438313E+02  0.85213103982E+02  0.00000000000E+00 0. -1.
<scales pt_clust_5="13000.00000" pt_clust_6="13000.00000" pt_clust_7="13000.00000" pt_clust_8="13000.00000" pt_clust_9="31.29783" pt_clust_10="13000.00000"></scales>
<clustering>
<clus scale="   31.298">  2  9  1 -1</clus>
<clus scale="   79.569">  5  6 -1 -1</clus>
<clus scale="   91.051">  7  8 -1 -1</clus>
<clus scale="   65.161">  7 10 -1 -1</clus>
<clus scale="  113.114">  1  5  2 -1</clus>
<clus scale="   31.298">  2  5  1 -1</clus>
</clustering>
</event>
<event>
10    4  0.2866397E-005  0.2404597E+03  0.7546771E-02  0.1153871E+00
         21   -1    0    0  501  502  0.00000000000E+00  0.00000000000E+00  0.24579411606E+03  0.24579411606E+03  0.00000000000E+00 0. -1.
          4   -1    0    0  503    0 -0.00000000000E+00 -0.00000000000E+00 -0.34003210421E+03  0.34003210421E+03  0.00000000000E+00 0. -1.
         24    2    1    2    0    0  0.24045075644E+02 -0.33980572771E+02  0.15610687247E+03  0.18097280284E+03  0.81541123041E+02 0.  0.
         23    2    1    2    0    0  0.55322643600E+02 -0.11328133333E+02 -0.18791445146E+03  0.21642415432E+03  0.91316219833E+02 0.  0.
        -11    1    3    3    0    0  0.42406180585E+02 -0.24658586105E+02  0.40691436772E+02  0.63734786789E+02  0.00000000000E+00 0.  1.
         12    1    3    3    0    0 -0.18361104941E+02 -0.93219866653E+01  0.11541543570E+03  0.11723801605E+03  0.00000000000E+00 0. -1.
        -11    1    4    4    0    0 -0.82733494413E+01  0.28162934926E+02 -0.31723056097E+02  0.43219804520E+02  0.00000000000E+00 0.  1.
         11    1    4    4    0    0  0.63595993041E+02 -0.39491068259E+02 -0.15619139536E+03  0.17320434979E+03  0.00000000000E+00 0. -1.
         21    1    1    2  503  502  0.24639315732E+02 -0.18584609395E+02  0.23804398067E+02  0.38976056156E+02  0.00000000000E+00 0.  1.
          3    1    1    2  501    0 -0.10400703498E+03  0.63893315499E+02 -0.86234807230E+02  0.14945320695E+03  0.00000000000E+00 0. -1.
<scales pt_clust_5="13000.00000" pt_clust_6="13000.00000" pt_clust_7="13000.00000" pt_clust_8="13000.00000" pt_clust_9="30.86233" pt_clust_10="13000.00000"></scales>
<clustering>
<clus scale="   30.862">  1  9  2 -1</clus>
<clus scale="   81.541">  5  6 -1 -1</clus>
<clus scale="   91.316">  7  8 -1 -1</clus>
<clus scale="  104.378">  2  5  1 -1</clus>
<clus scale="   96.093">  7 10 -1 -1</clus>
<clus scale="   30.862">  1  5  2 -1</clus>
</clustering>
</event>
<event>
10    4  0.2866397E-005  0.2368711E+03  0.7546771E-02  0.1146565E+00
          2   -1    0    0  503    0 -0.00000000000E+00  0.00000000000E+00  0.70909537557E+03  0.70909537557E+03  0.00000000000E+00 0. -1.
         21   -1    0    0  501  502  0.00000000000E+00 -0.00000000000E+00 -0.78977763369E+02  0.78977763369E+02  0.00000000000E+00 0. -1.
         24    2    1    2    0    0 -0.33264640421E+02 -0.97461668419E+02  0.41740646003E+03  0.43691803864E+03  0.77871088979E+02 0.  0.
         23    2    1    2    0    0  0.15014081006E+01 -0.30375457638E+02  0.76123586324E+02  0.12326455738E+03  0.92056656779E+02 0.  0.
        -13    1    3    3    0    0 -0.48136118222E+02 -0.98884822570E+02  0.39471542467E+03  0.40975060767E+03  0.00000000000E+00 0.  1.
         14    1    3    3    0    0  0.14871477802E+02  0.14231541515E+01  0.22691035360E+02  0.27167430969E+02  0.00000000000E+00 0. -1.
        -13    1    4    4    0    0 -0.84484728984E+01  0.18299417760E+02  0.70430783453E+02  0.73258041487E+02  0.00000000000E+00 0.  1.
         13    1    4    4    0    0  0.99498809990E+01 -0.48674875397E+02  0.56928028705E+01  0.50006515889E+02  0.00000000000E+00 0. -1.
         21    1    1    2  503  502  0.32920575188E+02 -0.16808851073E+02  0.19508956881E+02  0.41795946498E+02  0.00000000000E+00 0. -1.
          1    1    1    2  501    0 -0.11573428678E+01  0.14464597713E+03  0.11707860897E+03  0.18609459643E+03  0.00000000000E+00 0. -1.
<scales pt_clust_5="13000.00000" pt_clust_6="13000.00000" pt_clust_7="13000.00000" pt_clust_8="13000.00000" pt_clust_9="36.96352" pt_clust_10="13000.00000"></scales>
<clustering>
<clus scale="   36.964">  2  9  1 -1</clus>
<clus scale="   77.871">  5  6 -1 -1</clus>
<clus scale="   92.057">  7  8 -1 -1</clus>
<clus scale="  129.822">  1  5  2 -1</clus>
<clus scale="   82.511">  7 10 -1 -1</clus>
<clus scale="   36.964">  2  5  1 -1</clus>
</clustering>
</event>
<event>
10    4  0.2866397E-005  0.1733824E+03  0.7546771E-02  0.1183516E+00
         21   -1    0    0  503  502  0.00000000000E+00  0.00000000000E+00  0.13564701326E+03  0.13564701326E+03  0.00000000000E+00 0.  1.
         -1   -1    0    0    0  501 -0.00000000000E+00 -0.00000000000E+00 -0.29373498749E+03  0.29373498749E+03  0.00000000000E+00 0.  1.
         24    2    1    2    0    0 -0.93871380657E+02  0.52882950678E+02 -0.17015838195E+02  0.13181485168E+03  0.74007930616E+02 0.  0.
         23    2    1    2    0    0  0.11164367656E+03 -0.32002546841E+02 -0.16644605397E+03  0.22202846944E+03  0.90021546537E+02 0.  0.
        -13    1    3    3    0    0 -0.43627467338E+02  0.30315127318E+02 -0.45372555522E+02  0.69864380375E+02  0.00000000000E+00 0.  1.
         14    1    3    3    0    0 -0.50243913319E+02  0.22567823360E+02  0.28356717327E+02  0.61950471301E+02  0.00000000000E+00 0. -1.
        -11    1    4    4    0    0  0.10315179185E+03  0.31559289409E+01 -0.87922512098E+02  0.13557514589E+03  0.00000000000E+00 0.  1.
         11    1    4    4    0    0  0.84918847083E+01 -0.35158475782E+02 -0.78523541868E+02  0.86453323550E+02  0.00000000000E+00 0. -1.
         21    1    1    2  503  501 -0.18933852490E+02  0.78378324602E+01  0.38751613134E+02  0.43836171232E+02  0.00000000000E+00 0.  1.
         -2    1    1    2    0  502  0.11615565877E+01 -0.28718236297E+02 -0.13377695207E+02  0.31702508399E+02  0.00000000000E+00 0.  1.
<scales pt_clust_5="13000.00000" pt_clust_6="13000.00000" pt_clust_7="13000.00000" pt_clust_8="13000.00000" pt_clust_9="20.49201" pt_clust_10="13000.00000"></scales>
<clustering>
<clus scale="   20.492">  1  9  2 -1</clus>
<clus scale="   74.008">  5  6 -1 -1</clus>
<clus scale="   90.022">  7  8 -1 -1</clus>
<clus scale="   27.965">  7 10 -1 -1</clus>
<clus scale="  141.095">  2  5  1 -1</clus>
<clus scale="   20.492">  1  5  2 -1</clus>
</clustering>
</event>
<event>
10    4  0.2866397E-005  0.1993608E+03  0.7546771E-02  0.1175419E+00
         21   -1    0    0  501  502  0.00000000000E+00  0.00000000000E+00  0.12511379143E+03  0.12511379143E+03  0.00000000000E+00 0.  1.
          2   -1    0    0  503    0 -0.00000000000E+00 -0.00000000000E+00 -0.34735495068E+03  0.34735495068E+03  0.00000000000E+00 0. -1.
         24    2    1    2    0    0  0.36025561054E+02 -0.48706161581E+02  0.31907488241E+02  0.10486566941E+03  0.79426630227E+02 0.  0.
         23    2    1    2    0    0  0.17196385492E+02  0.46679873922E+02 -0.76066967752E+02  0.13089066368E+03  0.94188406677E+02 0.  0.
        -13    1    3    3    0    0  0.60505509516E+02 -0.26675154125E+02  0.14829225175E+02  0.67767148742E+02  0.00000000000E+00 0.  1.
         14    1    3    3    0    0 -0.24479948462E+02 -0.22031007456E+02  0.17078263066E+02  0.37098520665E+02  0.00000000000E+00 0. -1.
        -13    1    4    4    0    0 -0.38850450837E+02  0.25798165144E+02 -0.30943057200E+02  0.55967630323E+02  0.00000000000E+00 0. -1.
         13    1    4    4    0    0  0.56046836329E+02  0.20881708778E+02 -0.45123910552E+02  0.74923033357E+02  0.00000000000E+00 0.  1.
         21    1    1    2  503  502  0.15068887592E+02 -0.21363775729E+02  0.15304036262E+02  0.30293494558E+02  0.00000000000E+00 0.  1.
          1    1    1    2  501    0 -0.68290834137E+02  0.23390063388E+02 -0.19338571601E+03  0.20641891447E+03  0.00000000000E+00 0. -1.
<scales pt_clust_5="13000.00000" pt_clust_6="13000.00000" pt_clust_7="13000.00000" pt_clust_8="13000.00000" pt_clust_9="26.14349" pt_clust_10="13000.00000"></scales>
<clustering>
<clus scale="   26.143">  1  9  2 -1</clus>
<clus scale="   79.427">  5  6 -1 -1</clus>
<clus scale="   94.188">  7  8 -1 -1</clus>
<clus scale="   70.843">  7 10 -1 -1</clus>
<clus scale="  111.359">  2  5  1 -1</clus>
<clus scale="   26.143">  1  5  2 -1</clus>
</clustering>
</event>
<event>
10    4  0.2866397E-005  0.2326973E+03  0.7546771E-02  0.1164755E+00
          2   -1    0    0  503    0 -0.00000000000E+00  0.00000000000E+00  0.79302694241E+02  0.79302694241E+02  0.00000000000E+00 0. -1.
         21   -1    0    0  501  502  0.00000000000E+00 -0.00000000000E+00 -0.49949997307E+03  0.49949997307E+03  0.00000000000E+00 0. -1.
         24    2    1    2    0    0 -0.29203429117E+01 -0.56997992413E+02 -0.14177493549E+02  0.90926576813E+02  0.69349416045E+02 0.  0.
         23    2    1    2    0    0  0.61186269997E+02  0.24316367534E+02 -0.33952731888E+02  0.99485177462E+02  0.66403818909E+02 0.  0.
        -11    1    3    3    0    0 -0.21239482788E+02 -0.49563341263E+02 -0.33337085087E+02  0.63395596601E+02  0.00000000000E+00 0.  1.
         12    1    3    3    0    0  0.18319139877E+02 -0.74346511502E+01  0.19159591538E+02  0.27530980212E+02  0.00000000000E+00 0. -1.
        -11    1    4    4    0    0  0.30437130153E+02  0.26516339154E+02  0.13787109426E+02  0.42656998493E+02  0.00000000000E+00 0.  1.
         11    1    4    4    0    0  0.30749139844E+02 -0.21999716201E+01 -0.47739841314E+02  0.56828178969E+02  0.00000000000E+00 0. -1.
         21    1    1    2  503  502  0.23549616958E+02  0.47094372334E+01 -0.10343112370E+03  0.10618267565E+03  0.00000000000E+00 0.  1.
          1    1    1    2  501    0 -0.81815544043E+02  0.27972187645E+02 -0.26863592969E+03  0.28220823739E+03  0.00000000000E+00 0. -1.
<scales pt_clust_5="13000.00000" pt_clust_6="13000.00000" pt_clust_7="13000.00000" pt_clust_8="13000.00000" pt_clust_9="24.01590" pt_clust_10="13000.00000"></scales>
<clustering>
<clus scale="   24.016">  2  9  1 -1</clus>
<clus scale="   66.404">  7  8 -1 -1</clus>
<clus scale="   69.349">  5  6 -1 -1</clus>
<clus scale="   72.470">  7 10 -1 -1</clus>
<clus scale="   89.370">  1  5  2 -1</clus>
<clus scale="   24.016">  2  5  1 -1</clus>
</clustering>
</event>
<event>
10    4  0.2866397E-005  0.1896331E+03  0.7546771E-02  0.1185845E+00
         21   -1    0    0  503  502  0.00000000000E+00  0.00000000000E+00  0.91639377275E+02  0.91639377275E+02  0.00000000000E+00 0.  1.
         -3   -1    0    0    0  501 -0.00000000000E+00 -0.00000000000E+00 -0.56888323156E+03  0.56888323156E+03  0.00000000000E+00 0.  1.
         24    2    1    2    0    0  0.61600581842E+02 -0.81920117558E+01 -0.39283685270E+03  0.40582755270E+03  0.80706065117E+02 0.  0.
         23    2    1    2    0    0  0.24232037204E+01 -0.62888921445E+01 -0.10719600080E+03  0.14188117251E+03  0.92703087573E+02 0.  0.
        -13    1    3    3    0    0  0.79010397252E+02  0.61667360397E+01 -0.31046015071E+03  0.32041563115E+03  0.00000000000E+00 0.  1.
         14    1    3    3    0    0 -0.17409815410E+02 -0.14358747796E+02 -0.82376701991E+02  0.85411921544E+02  0.00000000000E+00 0. -1.
        -11    1    4    4    0    0  0.25048069581E+02  0.18693024851E+02 -0.18883352272E+01  0.31311352218E+02  0.00000000000E+00 0.  1.
         11    1    4    4    0    0 -0.22624865860E+02 -0.24981916995E+02 -0.10530766557E+03  0.11056982029E+03  0.00000000000E+00 0. -1.
         21    1    1    2  503  501  0.47158457207E+01 -0.24774010767E+02  0.22284038104E+02  0.33653664950E+02  0.00000000000E+00 0. -1.
         -4    1    1    2    0  502 -0.68739631283E+02  0.39254914667E+02  0.50496111436E+00  0.79160218672E+02  0.00000000000E+00 0.  1.
<scales pt_clust_5="13000.00000" pt_clust_6="13000.00000" pt_clust_7="13000.00000" pt_clust_8="13000.00000" pt_clust_9="25.21886" pt_clust_10="13000.00000"></scales>
<clustering>
<clus scale="   25.219">  1  9  2 -1</clus>
<clus scale="   80.706">  5  6 -1 -1</clus>
<clus scale="   92.703">  7  8 -1 -1</clus>
<clus scale="   69.947">  7 10 -1 -1</clus>
<clus scale="  102.384">  2  5  1 -1</clus>
<clus scale="   25.219">  1  5  2 -1</clus>
</clustering>
</event>
<event>
10    4  0.2866397E-005  0.8148478E+03  0.7546771E-02  0.9810190E-01
         21   -1    0    0  501  502  0.00000000000E+00  0.00000000000E+00  0.41572333132E+03  0.41572333132E+03  0.00000000000E+00 0. -1.
          2   -1    0    0  503    0 -0.00000000000E+00 -0.00000000000E+00 -0.11540799370E+04  0.11540799370E+04  0.00000000000E+00 0. -1.
         24    2    1    2    0    0  0.20546990522E+03 -0.30288754153E+03 -0.40224066060E+02  0.37635990643E+03  0.77910582813E+02 0.  0.
         23    2    1    2    0    0 -0.11646875086E+03 -0.80401358910E+02  0.10838824539E+03  0.20043117630E+03  0.91625849251E+02 0.  0.
        -13    1    3    3    0    0  0.31200418177E+02 -0.98042083581E+01  0.20507100827E+01  0.32768796251E+02  0.00000000000E+00 0.  1.
         14    1    3    3    0    0  0.17426948704E+03 -0.29308333317E+03 -0.42274776142E+02  0.34359111018E+03  0.00000000000E+00 0. -1.
        -11    1    4    4    0    0 -0.11960999752E+03 -0.53033211680E+02  0.11252862504E+03  0.17257393923E+03  0.00000000000E+00 0. -1.
         11    1    4    4    0    0  0.31412466558E+01 -0.27368147230E+02 -0.41403796523E+01  0.27857237067E+02  0.00000000000E+00 0.  1.
         21    1    1    2  503  502 -0.12732946820E+02  0.11618366430E+03  0.22205739947E+02  0.11897002425E+03  0.00000000000E+00 0. -1.
          1    1    1    2  501    0 -0.76268207536E+02  0.26710523614E+03 -0.82872652500E+03  0.87404216139E+03  0.00000000000E+00 0. -1.
<scales pt_clust_5="13000.00000" pt_clust_6="13000.00000" pt_clust_7="13000.00000" pt_clust_8="13000.00000" pt_clust_9="116.87930" pt_clust_10="13000.00000"></scales>
<clustering>
<clus scale="   77.911">  5  6 -1 -1</clus>
<clus scale="   91.626">  7  8 -1 -1</clus>
<clus scale="  116.879">  1  9  2 -1</clus>
<clus scale="  285.347">  7 10 -1 -1</clus>
<clus scale="  326.263">  2  5  1 -1</clus>
<clus scale="  116.879">  1  5  2 -1</clus>
</clustering>
</event>
<event>
10    4  0.2866397E-005  0.4598521E+03  0.7546771E-02  0.1027525E+00
         21   -1    0    0  501  502  0.00000000000E+00  0.00000000000E+00  0.18488729611E+03  0.18488729611E+03  0.00000000000E+00 0. -1.
          2   -1    0    0  503    0 -0.00000000000E+00 -0.00000000000E+00 -0.14970993351E+04  0.14970993351E+04  0.00000000000E+00 0. -1.
         24    2    1    2    0    0  0.45235971099E+02 -0.35636446773E+03 -0.24139703491E+03  0.43847753218E+03  0.70342667149E+02 0.  0.
         23    2    1    2    0    0 -0.55119024726E+02  0.12596517128E+03 -0.19434087951E+03  0.25479238076E+03  0.90804452447E+02 0.  0.
        -11    1    3    3    0    0  0.17664050775E+02 -0.12125165602E+03 -0.12368044938E+03  0.17410007563E+03  0.00000000000E+00 0.  1.
         12    1    3    3    0    0  0.27571920324E+02 -0.23511281171E+03 -0.11771658553E+03  0.26437745655E+03  0.00000000000E+00 0. -1.
        -13    1    4    4    0    0 -0.25914198211E+02 -0.73252363846E+01 -0.20779170682E+02  0.34014389473E+02  0.00000000000E+00 0. -1.
         13    1    4    4    0    0 -0.29204826516E+02  0.13329040766E+03 -0.17356170883E+03  0.22077799129E+03  0.00000000000E+00 0.  1.
         21    1    1    2  503  502  0.10129944470E+03 -0.82955603958E+02 -0.23778547977E+03  0.27145007665E+03  0.00000000000E+00 0.  1.
          1    1    1    2  501    0 -0.91416391074E+02  0.31335490042E+03 -0.63868864482E+03  0.71726664163E+03  0.00000000000E+00 0. -1.
<scales pt_clust_5="13000.00000" pt_clust_6="13000.00000" pt_clust_7="13000.00000" pt_clust_8="13000.00000" pt_clust_9="130.93215" pt_clust_10="13000.00000"></scales>
<clustering>
<clus scale="   70.343">  5  6 -1 -1</clus>
<clus scale="   90.804">  7  8 -1 -1</clus>
<clus scale="  130.932">  1  9  2 -1</clus>
<clus scale="  301.664">  7 10 -1 -1</clus>
<clus scale="  424.177">  2  5  1 -1</clus>
<clus scale="  130.932">  1  5  2 -1</clus>
</clustering>
</event>
<event>
10    4  0.2866397E-005  0.3202678E+03  0.7546771E-02  0.1105314E+00
          2   -1    0    0  503    0 -0.00000000000E+00  0.00000000000E+00  0.66197959836E+03  0.66197959836E+03  0.00000000000E+00 0. -1.
         21   -1    0    0  501  502  0.00000000000E+00 -0.00000000000E+00 -0.26320717487E+03  0.26320717487E+03  0.00000000000E+00 0.  1.
         24    2    1    2    0    0  0.39897916914E+01 -0.10175107849E+03  0.10024359343E+03  0.16281110073E+03  0.78035095218E+02 0.  0.
         23    2    1    2    0    0 -0.87384572555E+02  0.39348248336E+02  0.18866089594E+03  0.23122741551E+03  0.93213925253E+02 0.  0.
        -13    1    3    3    0    0  0.17618576890E+02 -0.75950194697E+02  0.10744847191E+03  0.13275549119E+03  0.00000000000E+00 0.  1.
         14    1    3    3    0    0 -0.13628785198E+02 -0.25800883794E+02 -0.72048784846E+01  0.30055609534E+02  0.00000000000E+00 0. -1.
        -13    1    4    4    0    0 -0.40687664870E+02  0.61194819181E+02  0.68448884451E+02  0.10042679797E+03  0.00000000000E+00 0.  1.
         13    1    4    4    0    0 -0.46696907685E+02 -0.21846570845E+02  0.12021201149E+03  0.13080061755E+03  0.00000000000E+00 0. -1.
         21    1    1    2  503  502 -0.94340421592E+02 -0.51008152918E+02 -0.15756529433E+03  0.19060107237E+03  0.00000000000E+00 0.  1.
          1    1    1    2  501    0  0.17773520246E+03  0.11341098307E+03  0.26743322846E+03  0.34054718463E+03  0.00000000000E+00 0. -1.
<scales pt_clust_5="13000.00000" pt_clust_6="13000.00000" pt_clust_7="13000.00000" pt_clust_8="13000.00000" pt_clust_9="107.24713" pt_clust_10="13000.00000"></scales>
<clustering>
<clus scale="   78.035">  5  6 -1 -1</clus>
<clus scale="   93.214">  7  8 -1 -1</clus>
<clus scale="  107.247">  2  9  1 -1</clus>
<clus scale="  145.792">  1  5  2 -1</clus>
<clus scale="  132.801">  7 10 -1 -1</clus>
<clus scale="  107.247">  2  5  1 -1</clus>
</clustering>
</event>
<event>
10    4  0.2866397E-005  0.5091190E+03  0.7546771E-02  0.1026780E+00
          2   -1    0    0  502    0 -0.00000000000E+00  0.00000000000E+00  0.26061513963E+04  0.26061513963E+04  0.00000000000E+00 0. -1.
         21   -1    0    0  503  502  0.00000000000E+00 -0.00000000000E+00 -0.14125886786E+03  0.14125886786E+03  0.00000000000E+00 0. -1.
         24    2    1    2    0    0 -0.18320411631E+03  0.25473539801E+03  0.19834597001E+04  0.20097603802E+04  0.81058822570E+02 0.  0.
         23    2    1    2    0    0  0.10556849592E+02 -0.22286288669E+03  0.77245236022E+02  0.25245477674E+03  0.89371552952E+02 0.  0.
        -11    1    3    3    0    0 -0.29930706129E+02  0.79000983342E+02  0.36898139587E+03  0.37852909140E+03  0.00000000000E+00 0.  1.
         12    1    3    3    0    0 -0.15327341018E+03  0.17573441467E+03  0.16144783042E+04  0.16312312888E+04  0.00000000000E+00 0. -1.
        -11    1    4    4    0    0  0.32774512934E+02 -0.20160932822E+03  0.84202509594E+02  0.22093110362E+03  0.00000000000E+00 0. -1.
         11    1    4    4    0    0 -0.22217663342E+02 -0.21253558465E+02 -0.69572735714E+01  0.31523673126E+02  0.00000000000E+00 0.  1.
         21    1    1    2  503  501 -0.17173729387E+02 -0.67841542428E+02  0.68773200320E+02  0.98118117299E+02  0.00000000000E+00 0. -1.
          1    1    1    2  501    0  0.18982099610E+03  0.35969031106E+02  0.33541439203E+03  0.38707698994E+03  0.00000000000E+00 0. -1.
<scales pt_clust_5="13000.00000" pt_clust_6="13000.00000" pt_clust_7="13000.00000" pt_clust_8="13000.00000" pt_clust_9="69.98151" pt_clust_10="13000.00000"></scales>
<clustering>
<clus scale="   69.982">  2  9  1 -1</clus>
<clus scale="   81.059">  5  6 -1 -1</clus>
<clus scale="   89.372">  7  8 -1 -1</clus>
<clus scale="  187.626">  7 10 -1 -1</clus>
<clus scale="  319.594">  1  5  2 -1</clus>
<clus scale="   69.982">  2  5  1 -1</clus>
</clustering>
</event>
<event>
10    4  0.4106285E-005  0.1715064E+03  0.7546771E-02  0.1210175E+00
         21   -1    0    0  503  502  0.00000000000E+00  0.00000000000E+00  0.21832829726E+03  0.21832829726E+03  0.00000000000E+00 0. -1.
          2   -1    0    0  502    0 -0.00000000000E+00 -0.00000000000E+00 -0.62128138342E+03  0.62128138342E+03  0.00000000000E+00 0. -1.
         24    2    1    2    0    0  0.58014617793E+02 -0.60472335982E+01 -0.10754121546E+03  0.14601802582E+03  0.79711266007E+02 0.  0.
         23    2    1    2    0    0 -0.32587602775E+02 -0.29800388741E+02 -0.18166967051E+03  0.20692629901E+03  0.88682630861E+02 0.  0.
        -11    1    3    3    0    0  0.14358488782E+02 -0.22100262700E+02 -0.93924197291E+02  0.97551743441E+02  0.00000000000E+00 0.  1.
         12    1    3    3    0    0  0.43656129011E+02  0.16053029102E+02 -0.13617018174E+02  0.48466282378E+02  0.00000000000E+00 0. -1.
        -13    1    4    4    0    0  0.23899898636E+02  0.10891308562E+02 -0.28958763396E+02  0.39095213702E+02  0.00000000000E+00 0.  1.
         13    1    4    4    0    0 -0.56487501411E+02 -0.40691697303E+02 -0.15271090711E+03  0.16783108531E+03  0.00000000000E+00 0. -1.
         21    1    1    2  503  501 -0.87901635220E+02  0.35488978939E+02  0.17080126806E+03  0.19534389745E+03  0.00000000000E+00 0. -1.
          1    1    1    2  501    0  0.62474620201E+02  0.35864339942E+00 -0.28454346825E+03  0.29132145839E+03  0.00000000000E+00 0. -1.
<scales pt_clust_5="13000.00000" pt_clust_6="13000.00000" pt_clust_7="13000.00000" pt_clust_8="13000.00000" pt_clust_9="94.79539" pt_clust_10="13000.00000"></scales>
<clustering>
<clus scale="   79.711">  5  6 -1 -1</clus>
<clus scale="   88.683">  7  8 -1 -1</clus>
<clus scale="   62.476">  7 10 -1 -1</clus>
<clus scale="   94.795">  1  9  2 -1</clus>
<clus scale="   81.439">  2  5  1 -1</clus>
<clus scale="   94.795">  1  5  2 -1</clus>
</clustering>
</event>
<event>
10    4  0.2866397E-005  0.5235454E+03  0.7546771E-02  0.1020230E+00
         21   -1    0    0  503  502  0.00000000000E+00  0.00000000000E+00  0.94694615863E+03  0.94694615863E+03  0.00000000000E+00 0.  1.
          2   -1    0    0  502    0 -0.00000000000E+00 -0.00000000000E+00 -0.23744224075E+03  0.23744224075E+03  0.00000000000E+00 0. -1.
         24    2    1    2    0    0  0.33602782075E+03  0.34812509591E+02  0.21698009916E+03  0.40966662286E+03  0.81361977088E+02 0.  0.
         23    2    1    2    0    0 -0.23600013459E+03 -0.11402315822E+03  0.40930441946E+03  0.49496974309E+03  0.93635434806E+02 0.  0.
        -13    1    3    3    0    0  0.15984478170E+03  0.41267955655E+02  0.14323718548E+03  0.21856415466E+03  0.00000000000E+00 0.  1.
         14    1    3    3    0    0  0.17618303906E+03 -0.64554460642E+01  0.73742913676E+02  0.19110246820E+03  0.00000000000E+00 0. -1.
        -13    1    4    4    0    0 -0.22441245510E+03 -0.87814868118E+02  0.31623652195E+03  0.39759016447E+03  0.00000000000E+00 0.  1.
         13    1    4    4    0    0 -0.11587679485E+02 -0.26208290102E+02  0.93067897507E+02  0.97379578620E+02  0.00000000000E+00 0. -1.
         21    1    1    2  503  501  0.29025878054E+02 -0.74606939378E+01  0.11690702559E+03  0.12068726603E+03  0.00000000000E+00 0. -1.
          1    1    1    2  501    0 -0.12905356422E+03  0.86671342567E+02 -0.33687626315E+02  0.15906476740E+03  0.00000000000E+00 0. -1.
<scales pt_clust_5="13000.00000" pt_clust_6="13000.00000" pt_clust_7="13000.00000" pt_clust_8="13000.00000" pt_clust_9="29.96938" pt_clust_10="13000.00000"></scales>
<clustering>
<clus scale="   29.969">  1  9  2 -1</clus>
<clus scale="   81.362">  5  6 -1 -1</clus>
<clus scale="   93.635">  7  8 -1 -1</clus>
<clus scale="  153.320">  7 10 -1 -1</clus>
<clus scale="  357.853">  2  5  1 -1</clus>
<clus scale="   29.969">  1  5  2 -1</clus>
</clustering>
</event>
<event>
10    4  0.2866397E-005  0.6959203E+03  0.7546771E-02  0.9970575E-01
          2   -1    0    0  502    0 -0.00000000000E+00  0.00000000000E+00  0.15680999904E+04  0.15680999904E+04  0.00000000000E+00 0. -1.
         21   -1    0    0  503  502  0.00000000000E+00 -0.00000000000E+00 -0.33652470984E+03  0.33652470984E+03  0.00000000000E+00 0. -1.
         24    2    1    2    0    0  0.28626876172E+03  0.63459975339E+02  0.68028942696E+03  0.74527660118E+03  0.81648854411E+02 0.  0.
         23    2    1    2    0    0  0.14617207185E+03 -0.48094944730E+02  0.42719954554E+02  0.18223105010E+03  0.87771081844E+02 0.  0.
        -11    1    3    3    0    0  0.96160863673E+02  0.56892272923E+02  0.20779418414E+03  0.23592809367E+03  0.00000000000E+00 0.  1.
         12    1    3    3    0    0  0.19010789804E+03  0.65677024166E+01  0.47249524282E+03  0.50934850751E+03  0.00000000000E+00 0. -1.
        -11    1    4    4    0    0  0.12263485836E+03 -0.68369546669E+02  0.16109625065E+02  0.14132665501E+03  0.00000000000E+00 0. -1.
         11    1    4    4    0    0  0.23537213490E+02  0.20274601939E+02  0.26610329488E+02  0.40904395096E+02  0.00000000000E+00 0.  1.
         21    1    1    2  503  501  0.54308863806E+02 -0.33755466932E+02 -0.14705368941E+03  0.16035483094E+03  0.00000000000E+00 0.  1.
          1    1    1    2  501    0 -0.48674969737E+03  0.18390436323E+02  0.65561958847E+03  0.81676221804E+03  0.00000000000E+00 0. -1.
<scales pt_clust_5="13000.00000" pt_clust_6="13000.00000" pt_clust_7="13000.00000" pt_clust_8="13000.00000" pt_clust_9="63.94438" pt_clust_10="13000.00000"></scales>
<clustering>
<clus scale="   63.944">  2  9  1 -1</clus>
<clus scale="   81.649">  5  6 -1 -1</clus>
<clus scale="   87.771">  7  8 -1 -1</clus>
<clus scale="  312.310">  1  5  2 -1</clus>
<clus scale="  226.316">  7 10 -1 -1</clus>
<clus scale="   63.944">  2  5  1 -1</clus>
</clustering>
</event>
