<event>
 9    1  0.1803370E-005  0.9829375E+02  0.7546771E-02  0.1285558E+00
          1   -1    0    0  502    0  0.00000000000E+00  0.00000000000E+00  0.19887597697E+03  0.19887597697E+03  0.00000000000E+00 0. -1.
         -1   -1    0    0    0  501 -0.00000000000E+00 -0.00000000000E+00 -0.94194578778E+02  0.94194578778E+02  0.00000000000E+00 0.  1.
         23    2    1    2    0    0 -0.18679146645E+02 -0.28261272204E+01  0.50168987249E+01  0.95444067223E+02  0.93421106720E+02 0.  0.
         23    2    1    2    0    0  0.39101428580E+02  0.19251592582E+02  0.60670727916E+01  0.10042904107E+03  0.90275342058E+02 0.  0.
        -11    1    4    4    0    0  0.48823300441E+01  0.51463569278E+02  0.11975940180E+02  0.53063728221E+02  0.00000000000E+00 0.  1.
         11    1    4    4    0    0  0.34219098536E+02 -0.32211976696E+02 -0.59088673886E+01  0.47365312847E+02  0.00000000000E+00 0. -1.
        -13    1    3    3    0    0 -0.30601701573E+02 -0.22077623019E+02  0.39219484562E+02  0.54424751231E+02  0.00000000000E+00 0. -1.
         13    1    3    3    0    0  0.11922554928E+02  0.19251495799E+02 -0.34202585837E+02  0.41019315992E+02  0.00000000000E+00 0.  1.
         21    1    1    2  502  501 -0.20422281935E+02 -0.16425465362E+02  0.93597426671E+02  0.97197447453E+02  0.00000000000E+00 0. -1.
<scales pt_clust_5="13000.00000" pt_clust_6="13000.00000" pt_clust_7="13000.00000" pt_clust_8="13000.00000" pt_clust_9="26.20812"></scales>
<clustering>
<clus scale="   26.208">  1  9  2 -1</clus>
<clus scale="   90.275">  5  6 -1 -1</clus>
<clus scale="   93.421">  7  8 -1 -1</clus>
<clus scale="   95.309">  1  5  2 -1</clus>
<clus scale="   26.208">  1  5  2 -1</clus>
</clustering>
</event>
<event>
 9    1  0.1803370E-005  0.1190687E+03  0.7546771E-02  0.1245824E+00
          1   -1    0    0  502    0  0.00000000000E+00  0.00000000000E+00  0.88132729656E+03  0.88132729656E+03  0.00000000000E+00 0. -1.
         -1   -1    0    0    0  501 -0.00000000000E+00 -0.00000000000E+00 -0.42241586733E+02  0.42241586733E+02  0.00000000000E+00 0.  1.
         23    2    1    2    0    0 -0.15325864349E+02 -0.56517963969E+02  0.10854735890E+03  0.15588679048E+03  0.95336246786E+02 0.  0.
         23    2    1    2    0    0  0.79458345389E+02  0.79029973634E+02  0.31624801494E+03  0.34785326080E+03  0.91813499611E+02 0.  0.
        -11    1    4    4    0    0  0.23591137347E+02  0.42733614561E+02  0.38336275640E+02  0.62067492335E+02  0.00000000000E+00 0.  1.
         11    1    4    4    0    0  0.55867208042E+02  0.36296359073E+02  0.27791173930E+03  0.28578576846E+03  0.00000000000E+00 0. -1.
        -13    1    3    3    0    0  0.62580004301E+01 -0.79823726060E+02  0.79813494805E+02  0.11305389761E+03  0.00000000000E+00 0.  1.
         13    1    3    3    0    0 -0.21583864779E+02  0.23305762092E+02  0.28733864098E+02  0.42832892868E+02  0.00000000000E+00 0. -1.
         21    1    1    2  502  501 -0.64132481040E+02 -0.22512009665E+02  0.41429033599E+03  0.41982883202E+03  0.00000000000E+00 0.  1.
<scales pt_clust_5="13000.00000" pt_clust_6="13000.00000" pt_clust_7="13000.00000" pt_clust_8="13000.00000" pt_clust_9="67.96886"></scales>
<clustering>
<clus scale="   67.969">  1  9  2 -1</clus>
<clus scale="   91.813">  5  6 -1 -1</clus>
<clus scale="   95.336">  7  8 -1 -1</clus>
<clus scale="  116.267">  1  5  2 -1</clus>
<clus scale="   67.969">  1  5  2 -1</clus>
</clustering>
</event>
<event>
 9    1  0.1803370E-005  0.9519587E+02  0.7546771E-02  0.1290853E+00
          1   -1    0    0  502    0  0.00000000000E+00  0.00000000000E+00  0.14157814879E+03  0.14157814879E+03  0.00000000000E+00 0. -1.
         -1   -1    0    0    0  501 -0.00000000000E+00 -0.00000000000E+00 -0.13160528050E+03  0.13160528050E+03  0.00000000000E+00 0.  1.
         23    2    1    2    0    0  0.21746969961E+02 -0.23802121537E+02 -0.29126101141E+02  0.10077788283E+03  0.90930634050E+02 0.  0.
         23    2    1    2    0    0 -0.32823055701E+02 -0.95306203691E+01 -0.24291324949E+02  0.99934305401E+02  0.90711692841E+02 0.  0.
        -11    1    3    3    0    0 -0.26128679217E+02  0.10535524018E+00  0.16119173856E+02  0.30700924141E+02  0.00000000000E+00 0. -1.
         11    1    3    3    0    0  0.47875649178E+02 -0.23907476777E+02 -0.45245274997E+02  0.70076958693E+02  0.00000000000E+00 0.  1.
        -13    1    4    4    0    0 -0.12190077979E+02 -0.44930911357E+02  0.86602532086E+01  0.47353825422E+02  0.00000000000E+00 0.  1.
         13    1    4    4    0    0 -0.20632977722E+02  0.35400290988E+02 -0.32951578158E+02  0.52580479978E+02  0.00000000000E+00 0. -1.
         21    1    1    2  502  501  0.11076085739E+02  0.33332741906E+02  0.63390294379E+02  0.72471241053E+02  0.00000000000E+00 0. -1.
<scales pt_clust_5="13000.00000" pt_clust_6="13000.00000" pt_clust_7="13000.00000" pt_clust_8="13000.00000" pt_clust_9="35.12480"></scales>
<clustering>
<clus scale="   35.125">  1  9  2 -1</clus>
<clus scale="   90.712">  7  8 -1 -1</clus>
<clus scale="   90.931">  5  6 -1 -1</clus>
<clus scale="   94.987">  1  7  2 -1</clus>
<clus scale="   35.125">  1  5  2 -1</clus>
</clustering>
</event>
<event>
 9    1  0.1803370E-005  0.1012213E+03  0.7546771E-02  0.1278189E+00
         -2   -1    0    0    0  501 -0.00000000000E+00  0.00000000000E+00  0.25791687228E+02  0.25791687228E+02  0.00000000000E+00 0.  1.
          2   -1    0    0  502    0  0.00000000000E+00 -0.00000000000E+00 -0.54534212220E+03  0.54534212220E+03  0.00000000000E+00 0. -1.
         23    2    1    2    0    0 -0.27993012844E+02 -0.37123531667E+02 -0.18460898393E+03  0.21001219954E+03  0.88672891209E+02 0.  0.
         23    2    1    2    0    0  0.48190585944E+02  0.18774027624E+02 -0.22205641559E+03  0.24498514927E+03  0.89631885893E+02 0.  0.
        -11    1    3    3    0    0  0.17907159433E+02 -0.46258654757E+02 -0.12313533688E+03  0.13275104778E+03  0.00000000000E+00 0. -1.
         11    1    3    3    0    0 -0.45900172277E+02  0.91351230898E+01 -0.61473647052E+02  0.77261151757E+02  0.00000000000E+00 0.  1.
        -11    1    4    4    0    0  0.49924067272E+01  0.30742427052E+02 -0.17810214190E+02  0.35877913477E+02  0.00000000000E+00 0.  1.
         11    1    4    4    0    0  0.43198179217E+02 -0.11968399428E+02 -0.20424620140E+03  0.20910723579E+03  0.00000000000E+00 0. -1.
         21    1    1    2  502  501 -0.20197573100E+02  0.18349504043E+02 -0.11288503545E+03  0.11613646062E+03  0.00000000000E+00 0. -1.
<scales pt_clust_5="13000.00000" pt_clust_6="13000.00000" pt_clust_7="13000.00000" pt_clust_8="13000.00000" pt_clust_9="27.28821"></scales>
<clustering>
<clus scale="   27.288">  2  9  1 -1</clus>
<clus scale="   88.673">  5  6 -1 -1</clus>
<clus scale="   89.632">  7  8 -1 -1</clus>
<clus scale="  100.373">  1  5  2 -1</clus>
<clus scale="   27.288">  2  5  1 -1</clus>
</clustering>
</event>
<event>
 9    1  0.1803370E-005  0.1380107E+03  0.7546771E-02  0.1216573E+00
         -1   -1    0    0    0  501 -0.00000000000E+00  0.00000000000E+00  0.53790400165E+03  0.53790400165E+03  0.00000000000E+00 0.  1.
          1   -1    0    0  502    0  0.00000000000E+00 -0.00000000000E+00 -0.43970275915E+02  0.43970275915E+02  0.00000000000E+00 0. -1.
         23    2    1    2    0    0 -0.72022509506E+02 -0.53027269552E+02  0.23451235470E+03  0.26752786658E+03  0.92606596410E+02 0.  0.
         23    2    1    2    0    0  0.72874586185E+02  0.84064020297E+02  0.20754573697E+03  0.25388909264E+03  0.94905076831E+02 0.  0.
        -11    1    4    4    0    0  0.29310416666E+02  0.16325702230E+01  0.35157478556E+01  0.29565626894E+02  0.00000000000E+00 0.  1.
         11    1    4    4    0    0  0.43564169519E+02  0.82431450074E+02  0.20402998912E+03  0.22432346575E+03  0.00000000000E+00 0. -1.
        -13    1    3    3    0    0 -0.82615682396E+02 -0.20055584100E+02  0.11445003437E+03  0.14257064143E+03  0.00000000000E+00 0. -1.
         13    1    3    3    0    0  0.10593172890E+02 -0.32971685452E+02  0.12006232033E+03  0.12495722515E+03  0.00000000000E+00 0.  1.
         21    1    1    2  502  501 -0.85207667953E+00 -0.31036750745E+02  0.51875634060E+02  0.60457318337E+02  0.00000000000E+00 0.  1.
<scales pt_clust_5="13000.00000" pt_clust_6="13000.00000" pt_clust_7="13000.00000" pt_clust_8="13000.00000" pt_clust_9="31.04844"></scales>
<clustering>
<clus scale="   31.048">  1  9  2 -1</clus>
<clus scale="   92.607">  7  8 -1 -1</clus>
<clus scale="   94.905">  5  6 -1 -1</clus>
<clus scale="  136.440">  1  7  2 -1</clus>
<clus scale="  138.011">  2  5  1 -1</clus>
</clustering>
</event>
<event>
 9    1  0.1803370E-005  0.9162006E+02  0.7546771E-02  0.1299167E+00
          2   -1    0    0  502    0  0.00000000000E+00  0.00000000000E+00  0.98280638622E+02  0.98280638622E+02  0.00000000000E+00 0. -1.
         -2   -1    0    0    0  501 -0.00000000000E+00 -0.00000000000E+00 -0.11396474962E+03  0.11396474962E+03  0.00000000000E+00 0.  1.
         23    2    1    2    0    0 -0.21020735041E-01  0.13049119812E+02 -0.21656272464E+02  0.94441410185E+02  0.90993987993E+02 0.  0.
         23    2    1    2    0    0  0.17436087101E+02 -0.38836368602E-01 -0.68194445778E+01  0.92581424721E+02  0.90668609437E+02 0.  0.
        -11    1    4    4    0    0 -0.22731881587E+02 -0.33182812114E+02 -0.17860727539E+01  0.40261985994E+02  0.00000000000E+00 0. -1.
         11    1    4    4    0    0  0.40167968688E+02  0.33143975746E+02 -0.50333718239E+01  0.52319438727E+02  0.00000000000E+00 0.  1.
        -11    1    3    3    0    0  0.42678677866E+02 -0.25705832869E+01 -0.23781598426E+02  0.48924859392E+02  0.00000000000E+00 0.  1.
         11    1    3    3    0    0 -0.42699698602E+02  0.15619703099E+02  0.21253259622E+01  0.45516550792E+02  0.00000000000E+00 0. -1.
         21    1    1    2  502  501 -0.17415066366E+02 -0.13010283444E+02  0.12791606041E+02  0.25222553339E+02  0.00000000000E+00 0. -1.
<scales pt_clust_5="13000.00000" pt_clust_6="13000.00000" pt_clust_7="13000.00000" pt_clust_8="13000.00000" pt_clust_9="21.73826"></scales>
<clustering>
<clus scale="   21.738">  1  9  2 -1</clus>
<clus scale="   90.669">  5  6 -1 -1</clus>
<clus scale="   90.994">  7  8 -1 -1</clus>
<clus scale="   91.297">  1  5  2 -1</clus>
<clus scale="   21.738">  1  5  2 -1</clus>
</clustering>
</event>
<event>
 9    1  0.1803370E-005  0.1140633E+03  0.7546771E-02  0.1253925E+00
          2   -1    0    0  502    0  0.00000000000E+00  0.00000000000E+00  0.21541578044E+03  0.21541578044E+03  0.00000000000E+00 0. -1.
         -2   -1    0    0    0  501 -0.00000000000E+00 -0.00000000000E+00 -0.12372701909E+03  0.12372701909E+03  0.00000000000E+00 0.  1.
         23    2    1    2    0    0  0.10825114889E+01 -0.88965823159E+02 -0.30958614939E+02  0.12918459022E+03  0.88397584754E+02 0.  0.
         23    2    1    2    0    0 -0.14020702156E+02  0.49367518403E+02  0.24591400966E+02  0.10341996822E+03  0.86355201709E+02 0.  0.
        -11    1    4    4    0    0 -0.10247364286E+02 -0.21582708384E+02 -0.80752913900E+01  0.25219676981E+02  0.00000000000E+00 0.  1.
         11    1    4    4    0    0 -0.37733378707E+01  0.70950226787E+02  0.32666692356E+02  0.78200291235E+02  0.00000000000E+00 0. -1.
        -11    1    3    3    0    0 -0.28053572547E+02 -0.11366953268E+02 -0.34906046689E+02  0.46202193181E+02  0.00000000000E+00 0. -1.
         11    1    3    3    0    0  0.29136084036E+02 -0.77598869891E+02  0.39474317506E+01  0.82982397041E+02  0.00000000000E+00 0.  1.
         21    1    1    2  502  501  0.12938190667E+02  0.39598304756E+02  0.98055975323E+02  0.10653824109E+03  0.00000000000E+00 0. -1.
<scales pt_clust_5="13000.00000" pt_clust_6="13000.00000" pt_clust_7="13000.00000" pt_clust_8="13000.00000" pt_clust_9="41.65840"></scales>
<clustering>
<clus scale="   41.658">  1  9  2 -1</clus>
<clus scale="   86.355">  5  6 -1 -1</clus>
<clus scale="   88.398">  7  8 -1 -1</clus>
<clus scale="  112.488">  1  5  2 -1</clus>
<clus scale="   41.658">  1  5  2 -1</clus>
</clustering>
</event>
<event>
 9    1  0.1803370E-005  0.1147611E+03  0.7546771E-02  0.1252127E+00
          2   -1    0    0  502    0  0.00000000000E+00  0.00000000000E+00  0.33021530189E+03  0.33021530189E+03  0.00000000000E+00 0. -1.
         -2   -1    0    0    0  501 -0.00000000000E+00 -0.00000000000E+00 -0.17332419038E+03  0.17332419038E+03  0.00000000000E+00 0.  1.
         23    2    1    2    0    0  0.41333160251E+02  0.61411110406E+02 -0.12404821957E+03  0.17072438837E+03  0.90989567459E+02 0.  0.
         23    2    1    2    0    0 -0.35888128736E+02 -0.37183781237E+02  0.82959075488E+02  0.13328366916E+03  0.90618634323E+02 0.  0.
        -11    1    4    4    0    0  0.10129469009E+02 -0.48429468928E+02  0.67014689770E+02  0.83300589721E+02  0.00000000000E+00 0. -1.
         11    1    4    4    0    0 -0.46017597744E+02  0.11245687691E+02  0.15944385719E+02  0.49983079434E+02  0.00000000000E+00 0.  1.
        -13    1    3    3    0    0  0.50432840859E+02  0.76806818768E+01 -0.97648133051E+02  0.11017087728E+03  0.00000000000E+00 0.  1.
         13    1    3    3    0    0 -0.90996806075E+01  0.53730428529E+02 -0.26400086519E+02  0.60553511090E+02  0.00000000000E+00 0. -1.
         21    1    1    2  502  501 -0.54450315158E+01 -0.24227329169E+02  0.19798025559E+03  0.19953143474E+03  0.00000000000E+00 0. -1.
<scales pt_clust_5="13000.00000" pt_clust_6="13000.00000" pt_clust_7="13000.00000" pt_clust_8="13000.00000" pt_clust_9="24.83167"></scales>
<clustering>
<clus scale="   24.832">  1  9  2 -1</clus>
<clus scale="   90.619">  5  6 -1 -1</clus>
<clus scale="   90.990">  7  8 -1 -1</clus>
<clus scale="  114.467">  1  5  2 -1</clus>
<clus scale="   24.832">  1  5  2 -1</clus>
</clustering>
</event>
<event>
 9    1  0.1803370E-005  0.1344132E+03  0.7546771E-02  0.1221476E+00
         -4   -1    0    0    0  501 -0.00000000000E+00  0.00000000000E+00  0.35572828593E+03  0.35572828593E+03  0.00000000000E+00 0.  1.
          4   -1    0    0  502    0  0.00000000000E+00 -0.00000000000E+00 -0.67736517685E+02  0.67736517685E+02  0.00000000000E+00 0. -1.
         23    2    1    2    0    0 -0.86487389194E+01 -0.10342994036E+03  0.16641404740E+03  0.21608314139E+03  0.90695840999E+02 0.  0.
         23    2    1    2    0    0  0.24674944950E+02  0.88343638773E+02  0.12981988485E+03  0.18387912953E+03  0.92438522030E+02 0.  0.
        -11    1    3    3    0    0 -0.31345842609E+02 -0.91736757249E+02  0.16390429062E+03  0.19042796791E+03  0.00000000000E+00 0.  1.
         11    1    3    3    0    0  0.22697103690E+02 -0.11693183110E+02  0.25097567774E+01  0.25655173479E+02  0.00000000000E+00 0. -1.
        -13    1    4    4    0    0 -0.53883418156E+01  0.98140634018E+02  0.92558389498E+02  0.13500990238E+03  0.00000000000E+00 0. -1.
         13    1    4    4    0    0  0.30063286766E+02 -0.97969952450E+01  0.37261495356E+02  0.48869227160E+02  0.00000000000E+00 0.  1.
         21    1    1    2  502  501 -0.16026206031E+02  0.15086301586E+02 -0.82421640057E+01  0.23502532689E+02  0.00000000000E+00 0. -1.
<scales pt_clust_5="13000.00000" pt_clust_6="13000.00000" pt_clust_7="13000.00000" pt_clust_8="13000.00000" pt_clust_9="22.00990"></scales>
<clustering>
<clus scale="   22.010">  2  9  1 -1</clus>
<clus scale="   90.696">  5  6 -1 -1</clus>
<clus scale="   92.439">  7  8 -1 -1</clus>
<clus scale="  133.221">  1  5  2 -1</clus>
<clus scale="   22.010">  2  5  1 -1</clus>
</clustering>
</event>
<event>
 9    1  0.1803370E-005  0.2004607E+03  0.7546771E-02  0.1149427E+00
          2   -1    0    0  502    0  0.00000000000E+00  0.00000000000E+00  0.11903980348E+03  0.11903980348E+03  0.00000000000E+00 0. -1.
         -2   -1    0    0    0  501 -0.00000000000E+00 -0.00000000000E+00 -0.52158551678E+03  0.52158551678E+03  0.00000000000E+00 0.  1.
         23    2    1    2    0    0  0.15471566486E+03  0.80135328239E+02 -0.34970505034E+03  0.40112901601E+03  0.90841936698E+02 0.  0.
         23    2    1    2    0    0 -0.16922734948E+03 -0.94016701321E+02 -0.47702545734E+02  0.21876753782E+03  0.90037030134E+02 0.  0.
        -13    1    4    4    0    0 -0.10283706284E+03 -0.67657642065E+02 -0.72849644983E+02  0.14303876676E+03  0.00000000000E+00 0.  1.
         13    1    4    4    0    0 -0.66390286643E+02 -0.26359059256E+02  0.25147099249E+02  0.75728771058E+02  0.00000000000E+00 0. -1.
        -13    1    3    3    0    0  0.14733847032E+03  0.47636208479E+02 -0.23302421750E+03  0.27978227095E+03  0.00000000000E+00 0.  1.
         13    1    3    3    0    0  0.73771945425E+01  0.32499119760E+02 -0.11668083284E+03  0.12134674506E+03  0.00000000000E+00 0. -1.
         21    1    1    2  502  501  0.14511684622E+02  0.13881373082E+02 -0.51381172204E+01  0.20728766431E+02  0.00000000000E+00 0. -1.
<scales pt_clust_5="13000.00000" pt_clust_6="13000.00000" pt_clust_7="13000.00000" pt_clust_8="13000.00000" pt_clust_9="20.08187"></scales>
<clustering>
<clus scale="   20.082">  1  9  2 -1</clus>
<clus scale="   90.037">  5  6 -1 -1</clus>
<clus scale="   90.842">  7  8 -1 -1</clus>
<clus scale="  200.097">  1  5  2 -1</clus>
<clus scale="   20.082">  1  5  2 -1</clus>
</clustering>
</event>
<event>
 9    1  0.1803370E-005  0.9166385E+02  0.7546771E-02  0.1299689E+00
         -3   -1    0    0    0  501 -0.00000000000E+00  0.00000000000E+00  0.59056759833E+02  0.59056759833E+02  0.00000000000E+00 0.  1.
          3   -1    0    0  502    0  0.00000000000E+00 -0.00000000000E+00 -0.32062679070E+03  0.32062679070E+03  0.00000000000E+00 0. -1.
         23    2    1    2    0    0 -0.32465068927E+01  0.17583518307E+02 -0.20932381649E+02  0.95560707673E+02  0.91509367424E+02 0.  0.
         23    2    1    2    0    0  0.40872187198E+01  0.36179325611E+02 -0.15934890753E+03  0.18665997963E+03  0.90134481241E+02 0.  0.
        -13    1    3    3    0    0  0.10830823924E+02  0.41166287627E+02  0.19388260102E+02  0.46774721951E+02  0.00000000000E+00 0.  1.
         13    1    3    3    0    0 -0.14077330817E+02 -0.23582769319E+02 -0.40320641751E+02  0.48785985722E+02  0.00000000000E+00 0. -1.
        -13    1    4    4    0    0 -0.31456063331E+02  0.33807551072E+02 -0.36827739843E+02  0.59065360845E+02  0.00000000000E+00 0.  1.
         13    1    4    4    0    0  0.35543282051E+02  0.23717745384E+01 -0.12252116768E+03  0.12759461879E+03  0.00000000000E+00 0. -1.
         21    1    1    2  502  501 -0.84071182707E+00 -0.53762843918E+02 -0.81288741694E+02  0.97462863229E+02  0.00000000000E+00 0. -1.
<scales pt_clust_5="13000.00000" pt_clust_6="13000.00000" pt_clust_7="13000.00000" pt_clust_8="13000.00000" pt_clust_9="53.76942"></scales>
<clustering>
<clus scale="   53.769">  2  9  1 -1</clus>
<clus scale="   90.134">  7  8 -1 -1</clus>
<clus scale="   90.291">  2  7  1 -1</clus>
<clus scale="   91.509">  5  6 -1 -1</clus>
<clus scale="   53.769">  2  5  1 -1</clus>
</clustering>
</event>
<event>
 9    1  0.1803370E-005  0.1132279E+03  0.7546771E-02  0.1255634E+00
         -2   -1    0    0    0  501 -0.00000000000E+00  0.00000000000E+00  0.81501770958E+02  0.81501770958E+02  0.00000000000E+00 0.  1.
          2   -1    0    0  502    0  0.00000000000E+00 -0.00000000000E+00 -0.32313326803E+03  0.32313326803E+03  0.00000000000E+00 0. -1.
         23    2    1    2    0    0 -0.49108527571E+01 -0.69628008272E+02  0.99839344445E+01  0.11420986639E+03  0.89844524729E+02 0.  0.
         23    2    1    2    0    0  0.30542290481E+02  0.44015706843E+02 -0.20721483571E+03  0.23311571882E+03  0.92383636346E+02 0.  0.
        -11    1    3    3    0    0  0.42136761577E+02 -0.37694187029E+02  0.34728688061E+00  0.56537412570E+02  0.00000000000E+00 0.  1.
         11    1    3    3    0    0 -0.47047614334E+02 -0.31933821243E+02  0.96366475639E+01  0.57672453823E+02  0.00000000000E+00 0. -1.
        -13    1    4    4    0    0 -0.28777439194E+02 -0.57681415615E+01 -0.57610319539E+02  0.64655714218E+02  0.00000000000E+00 0.  1.
         13    1    4    4    0    0  0.59319729675E+02  0.49783848405E+02 -0.14960451617E+03  0.16846000460E+03  0.00000000000E+00 0. -1.
         21    1    1    2  502  501 -0.25631437724E+02  0.25612301428E+02 -0.44400595802E+02  0.57309453774E+02  0.00000000000E+00 0. -1.
<scales pt_clust_5="13000.00000" pt_clust_6="13000.00000" pt_clust_7="13000.00000" pt_clust_8="13000.00000" pt_clust_9="36.23480"></scales>
<clustering>
<clus scale="   36.235">  2  9  1 -1</clus>
<clus scale="   89.845">  5  6 -1 -1</clus>
<clus scale="   92.384">  7  8 -1 -1</clus>
<clus scale="  111.166">  1  5  2 -1</clus>
<clus scale="   36.235">  2  5  1 -1</clus>
</clustering>
</event>
<event>
 9    1  0.1803370E-005  0.1564436E+03  0.7546771E-02  0.1193007E+00
         -3   -1    0    0    0  501 -0.00000000000E+00  0.00000000000E+00  0.65886013688E+02  0.65886013688E+02  0.00000000000E+00 0.  1.
          3   -1    0    0  502    0  0.00000000000E+00 -0.00000000000E+00 -0.54355026148E+03  0.54355026148E+03  0.00000000000E+00 0. -1.
         23    2    1    2    0    0 -0.29405987236E+02 -0.11905931963E+03 -0.11820096653E+03  0.19285373949E+03  0.90450332618E+02 0.  0.
         23    2    1    2    0    0  0.47972711544E+02  0.12706021411E+03 -0.20857322660E+03  0.26434408403E+03  0.89046756514E+02 0.  0.
        -11    1    3    3    0    0  0.27272213476E+02 -0.10586384419E+02 -0.30678302091E+02  0.42391076681E+02  0.00000000000E+00 0. -1.
         11    1    3    3    0    0 -0.56678200712E+02 -0.10847293521E+03 -0.87522664436E+02  0.15046266280E+03  0.00000000000E+00 0.  1.
        -13    1    4    4    0    0  0.29245655566E+02  0.72034030706E+02 -0.18669817304E+03  0.20223851702E+03  0.00000000000E+00 0. -1.
         13    1    4    4    0    0  0.18727055978E+02  0.55026183404E+02 -0.21875053557E+02  0.62105567011E+02  0.00000000000E+00 0.  1.
         21    1    1    2  502  501 -0.18566724308E+02 -0.80008944841E+01 -0.15089005466E+03  0.15223845165E+03  0.00000000000E+00 0. -1.
<scales pt_clust_5="13000.00000" pt_clust_6="13000.00000" pt_clust_7="13000.00000" pt_clust_8="13000.00000" pt_clust_9="20.21726"></scales>
<clustering>
<clus scale="   20.217">  2  9  1 -1</clus>
<clus scale="   89.047">  7  8 -1 -1</clus>
<clus scale="   90.450">  5  6 -1 -1</clus>
<clus scale="  155.636">  2  7  1 -1</clus>
<clus scale="   20.217">  2  5  1 -1</clus>
</clustering>
</event>
<event>
 9    1  0.1803370E-005  0.1230748E+03  0.7546771E-02  0.1238428E+00
         -1   -1    0    0    0  501 -0.00000000000E+00  0.00000000000E+00  0.23767638549E+03  0.23767638549E+03  0.00000000000E+00 0.  1.
          1   -1    0    0  502    0  0.00000000000E+00 -0.00000000000E+00 -0.77096768040E+03  0.77096768040E+03  0.00000000000E+00 0. -1.
         23    2    1    2    0    0 -0.49784624234E+02  0.65082557131E+02  0.20976437925E+03  0.24249222327E+03  0.89928502104E+02 0.  0.
         23    2    1    2    0    0  0.52457591816E+02 -0.10032945286E+03 -0.50464880491E+03  0.52513872322E+03  0.91008045149E+02 0.  0.
        -13    1    3    3    0    0 -0.76059977715E+02  0.44275238917E+02  0.14666970814E+03  0.17104800577E+03  0.00000000000E+00 0.  1.
         13    1    3    3    0    0  0.26275353482E+02  0.20807318215E+02  0.63094671105E+02  0.71444217496E+02  0.00000000000E+00 0. -1.
        -13    1    4    4    0    0  0.53647075737E+02 -0.12229459751E+02 -0.23929767103E+03  0.24554214258E+03  0.00000000000E+00 0. -1.
         13    1    4    4    0    0 -0.11894839206E+01 -0.88099993110E+02 -0.26535113387E+03  0.27959658064E+03  0.00000000000E+00 0.  1.
         21    1    1    2  502  501 -0.26729675826E+01  0.35246895729E+02 -0.23840686926E+03  0.24101311940E+03  0.00000000000E+00 0. -1.
<scales pt_clust_5="13000.00000" pt_clust_6="13000.00000" pt_clust_7="13000.00000" pt_clust_8="13000.00000" pt_clust_9="35.34810"></scales>
<clustering>
<clus scale="   35.348">  2  9  1 -1</clus>
<clus scale="   89.929">  5  6 -1 -1</clus>
<clus scale="   91.008">  7  8 -1 -1</clus>
<clus scale="  122.279">  1  5  2 -1</clus>
<clus scale="   35.348">  2  5  1 -1</clus>
</clustering>
</event>
<event>
 9    1  0.1803370E-005  0.2416236E+03  0.7546771E-02  0.1138427E+00
         -1   -1    0    0    0  501 -0.00000000000E+00  0.00000000000E+00  0.70012760203E+02  0.70012760203E+02  0.00000000000E+00 0.  1.
          1   -1    0    0  502    0  0.00000000000E+00 -0.00000000000E+00 -0.19884879707E+04  0.19884879707E+04  0.00000000000E+00 0. -1.
         23    2    1    2    0    0  0.58796939583E+02 -0.10258669887E+03 -0.18932022883E+03  0.24074163559E+03  0.90184672594E+02 0.  0.
         23    2    1    2    0    0 -0.26106958310E+03  0.20047209357E+02 -0.52383004036E+03  0.59279574739E+03  0.91922081710E+02 0.  0.
        -11    1    3    3    0    0  0.29406060668E+02 -0.91083272704E+02 -0.73443258971E+02  0.12064323959E+03  0.00000000000E+00 0.  1.
         11    1    3    3    0    0  0.29390878915E+02 -0.11503426166E+02 -0.11587696986E+03  0.12009839600E+03  0.00000000000E+00 0. -1.
        -13    1    4    4    0    0 -0.21600052245E+03 -0.20273818217E+02 -0.40361884159E+03  0.45823075267E+03  0.00000000000E+00 0.  1.
         13    1    4    4    0    0 -0.45069060654E+02  0.40321027574E+02 -0.12021119877E+03  0.13456499471E+03  0.00000000000E+00 0. -1.
         21    1    1    2  502  501  0.20227264352E+03  0.82539489513E+02 -0.12053249413E+04  0.12249633479E+04  0.00000000000E+00 0. -1.
<scales pt_clust_5="13000.00000" pt_clust_6="13000.00000" pt_clust_7="13000.00000" pt_clust_8="13000.00000" pt_clust_9="223.45539"></scales>
<clustering>
<clus scale="   90.185">  5  6 -1 -1</clus>
<clus scale="   91.922">  7  8 -1 -1</clus>
<clus scale="  148.709">  1  5  2 -1</clus>
<clus scale="  223.455">  2  9  1 -1</clus>
<clus scale="  223.455">  2  5  1 -1</clus>
</clustering>
</event>
<event>
 9    1  0.1803370E-005  0.1068041E+03  0.7546771E-02  0.1271807E+00
         -2   -1    0    0    0  501 -0.00000000000E+00  0.00000000000E+00  0.63839797772E+02  0.63839797772E+02  0.00000000000E+00 0.  1.
          2   -1    0    0  502    0  0.00000000000E+00 -0.00000000000E+00 -0.25782618449E+03  0.25782618449E+03  0.00000000000E+00 0. -1.
         23    2    1    2    0    0  0.44766729612E+02 -0.23010600322E+02 -0.34810716939E+02  0.98826589784E+02  0.77597429256E+02 0.  0.
         23    2    1    2    0    0 -0.54307168193E+02  0.43685753428E+02 -0.76681709807E+02  0.13726056708E+03  0.90014804821E+02 0.  0.
        -11    1    4    4    0    0 -0.42106592454E+02  0.71540855067E+02 -0.61222928275E+02  0.10314701168E+03  0.00000000000E+00 0.  1.
         11    1    4    4    0    0 -0.12200575739E+02 -0.27855101640E+02 -0.15458781533E+02  0.34113555402E+02  0.00000000000E+00 0. -1.
        -13    1    3    3    0    0  0.66116129850E+02 -0.21415218845E+02 -0.34082605425E+02  0.77405285460E+02  0.00000000000E+00 0. -1.
         13    1    3    3    0    0 -0.21349400238E+02 -0.15953814764E+01 -0.72811151434E+00  0.21421304324E+02  0.00000000000E+00 0.  1.
         21    1    1    2  502  501  0.95404385811E+01 -0.20675153106E+02 -0.82493959968E+02  0.85578825392E+02  0.00000000000E+00 0. -1.
<scales pt_clust_5="13000.00000" pt_clust_6="13000.00000" pt_clust_7="13000.00000" pt_clust_8="13000.00000" pt_clust_9="22.77020"></scales>
<clustering>
<clus scale="   22.770">  2  9  1 -1</clus>
<clus scale="   77.597">  7  8 -1 -1</clus>
<clus scale="   90.015">  5  6 -1 -1</clus>
<clus scale="   96.570">  1  7  2 -1</clus>
<clus scale="   22.770">  2  5  1 -1</clus>
</clustering>
</event>
<event>
 9    1  0.1803370E-005  0.1442539E+03  0.7546771E-02  0.1207797E+00
         -1   -1    0    0    0  501 -0.00000000000E+00  0.00000000000E+00  0.14505157464E+03  0.14505157464E+03  0.00000000000E+00 0.  1.
          1   -1    0    0  502    0  0.00000000000E+00 -0.00000000000E+00 -0.23472453601E+03  0.23472453601E+03  0.00000000000E+00 0. -1.
         23    2    1    2    0    0  0.38909448958E+02  0.68913525974E+02  0.34351507708E+02  0.12531345987E+03  0.90886840969E+02 0.  0.
         23    2    1    2    0    0 -0.91912976126E+02 -0.90687382503E+02 -0.11705781344E+03  0.19673909398E+03  0.91277285709E+02 0.  0.
        -11    1    4    4    0    0  0.16731256533E+02 -0.26687022693E+02 -0.17161257730E+02  0.35869776864E+02  0.00000000000E+00 0.  1.
         11    1    4    4    0    0 -0.10864423266E+03 -0.64000359809E+02 -0.99896555705E+02  0.16086931711E+03  0.00000000000E+00 0. -1.
        -13    1    3    3    0    0 -0.15744826695E+02  0.60893629277E+02  0.58862592017E+01  0.63171051136E+02  0.00000000000E+00 0. -1.
         13    1    3    3    0    0  0.54654275654E+02  0.80198966969E+01  0.28465248506E+02  0.62142408730E+02  0.00000000000E+00 0.  1.
         21    1    1    2  502  501  0.53003527168E+02  0.21773856529E+02 -0.69666556390E+01  0.57723556813E+02  0.00000000000E+00 0.  1.
<scales pt_clust_5="13000.00000" pt_clust_6="13000.00000" pt_clust_7="13000.00000" pt_clust_8="13000.00000" pt_clust_9="57.30161"></scales>
<clustering>
<clus scale="   57.302">  1  9  2 -1</clus>
<clus scale="   90.887">  7  8 -1 -1</clus>
<clus scale="   91.277">  5  6 -1 -1</clus>
<clus scale="  144.007">  1  7  2 -1</clus>
<clus scale="  144.254">  2  5  1 -1</clus>
</clustering>
</event>
<event>
 9    1  0.1803370E-005  0.1161060E+03  0.7546771E-02  0.1249947E+00
         -2   -1    0    0    0  501 -0.00000000000E+00  0.00000000000E+00  0.25068609763E+03  0.25068609763E+03  0.00000000000E+00 0.  1.
          2   -1    0    0  502    0  0.00000000000E+00 -0.00000000000E+00 -0.69109739978E+02  0.69109739978E+02  0.00000000000E+00 0. -1.
         23    2    1    2    0    0 -0.35752482956E+02 -0.71821839959E+02  0.11004007155E+03  0.16419763330E+03  0.91735645757E+02 0.  0.
         23    2    1    2    0    0  0.12569839926E+02  0.60895440138E+02  0.68722208006E+02  0.12981564846E+03  0.90901623776E+02 0.  0.
        -11    1    3    3    0    0 -0.10794593929E+02 -0.74692233729E+02  0.11598987076E+03  0.13838028457E+03  0.00000000000E+00 0.  1.
         11    1    3    3    0    0 -0.24957889026E+02  0.28703937703E+01 -0.59497992112E+01  0.25817348735E+02  0.00000000000E+00 0. -1.
        -13    1    4    4    0    0  0.10811515235E+02 -0.22548135036E+02  0.25928487208E+02  0.36022127979E+02  0.00000000000E+00 0. -1.
         13    1    4    4    0    0  0.17583246918E+01  0.83443575174E+02  0.42793720798E+02  0.93793520476E+02  0.00000000000E+00 0.  1.
         21    1    1    2  502  501  0.23182643029E+02  0.10926399821E+02  0.28140780990E+01  0.25782555855E+02  0.00000000000E+00 0. -1.
<scales pt_clust_5="13000.00000" pt_clust_6="13000.00000" pt_clust_7="13000.00000" pt_clust_8="13000.00000" pt_clust_9="25.62852"></scales>
<clustering>
<clus scale="   25.629">  2  9  1 -1</clus>
<clus scale="   90.902">  7  8 -1 -1</clus>
<clus scale="   91.736">  5  6 -1 -1</clus>
<clus scale="  115.448">  2  7  1 -1</clus>
<clus scale="   25.629">  2  5  1 -1</clus>
</clustering>
</event>
<event>
 9    1  0.1803370E-005  0.1706746E+03  0.7546771E-02  0.1178998E+00
         -2   -1    0    0    0  501 -0.00000000000E+00  0.00000000000E+00  0.18824165934E+03  0.18824165934E+03  0.00000000000E+00 0.  1.
          2   -1    0    0  502    0  0.00000000000E+00 -0.00000000000E+00 -0.19532854927E+03  0.19532854927E+03  0.00000000000E+00 0. -1.
         23    2    1    2    0    0  0.13112535709E+03  0.61539429009E+02  0.30257142969E+02  0.18088775017E+03  0.10403808373E+03 0.  0.
         23    2    1    2    0    0 -0.10230394645E+03 -0.74228295788E+02 -0.35009508188E+01  0.15645437978E+03  0.92139996422E+02 0.  0.
        -11    1    4    4    0    0 -0.28300629579E+02 -0.74937213144E+02 -0.15188776543E+02  0.81530426721E+02  0.00000000000E+00 0.  1.
         11    1    4    4    0    0 -0.74003316870E+02  0.70891735667E+00  0.11687825724E+02  0.74923953058E+02  0.00000000000E+00 0. -1.
        -13    1    3    3    0    0  0.14603541220E+02  0.49426510695E+02 -0.17426773169E+02  0.54405292010E+02  0.00000000000E+00 0. -1.
         13    1    3    3    0    0  0.11652181587E+03  0.12112918314E+02  0.47683916138E+02  0.12648245816E+03  0.00000000000E+00 0.  1.
         21    1    1    2  502  501 -0.28821410642E+02  0.12688866779E+02 -0.33843082080E+02  0.46228078656E+02  0.00000000000E+00 0. -1.
<scales pt_clust_5="13000.00000" pt_clust_6="13000.00000" pt_clust_7="13000.00000" pt_clust_8="13000.00000" pt_clust_9="31.49097"></scales>
<clustering>
<clus scale="   31.491">  2  9  1 -1</clus>
<clus scale="   92.140">  5  6 -1 -1</clus>
<clus scale="  104.038">  7  8 -1 -1</clus>
<clus scale="  163.694">  2  5  1 -1</clus>
<clus scale="   31.491">  2  5  1 -1</clus>
</clustering>
</event>
<event>
 9    1  0.1803370E-005  0.1560552E+03  0.7546771E-02  0.1195448E+00
          1   -1    0    0  502    0  0.00000000000E+00  0.00000000000E+00  0.30395447175E+03  0.30395447175E+03  0.00000000000E+00 0. -1.
         -1   -1    0    0    0  501 -0.00000000000E+00 -0.00000000000E+00 -0.94024634268E+02  0.94024634268E+02  0.00000000000E+00 0.  1.
         23    2    1    2    0    0 -0.72961026596E+02  0.67929940046E+02  0.47137381398E+02  0.14822675246E+03  0.99052760002E+02 0.  0.
         23    2    1    2    0    0  0.93680377864E+02 -0.72297534724E+02  0.16173202383E+03  0.22855112913E+03  0.10988823583E+03 0.  0.
        -11    1    4    4    0    0  0.11028894942E+03 -0.52816730311E+02  0.16197390387E+03  0.20295025228E+03  0.00000000000E+00 0.  1.
         11    1    4    4    0    0 -0.16608571554E+02 -0.19480804412E+02 -0.24188004719E+00  0.25600876852E+02  0.00000000000E+00 0. -1.
        -13    1    3    3    0    0  0.21361197817E+02  0.18937122665E+02 -0.63431280785E+01  0.29242959167E+02  0.00000000000E+00 0.  1.
         13    1    3    3    0    0 -0.94322224413E+02  0.48992817381E+02  0.53480509476E+02  0.11898379330E+03  0.00000000000E+00 0. -1.
         21    1    1    2  502  501 -0.20719351268E+02  0.43675946775E+01  0.10604322520E+01  0.21201224418E+02  0.00000000000E+00 0. -1.
<scales pt_clust_5="13000.00000" pt_clust_6="13000.00000" pt_clust_7="13000.00000" pt_clust_8="13000.00000" pt_clust_9="21.17469"></scales>
<clustering>
<clus scale="   21.175">  2  9  1 -1</clus>
<clus scale="   99.053">  7  8 -1 -1</clus>
<clus scale="  109.888">  5  6 -1 -1</clus>
<clus scale="  148.625">  2  7  1 -1</clus>
<clus scale="  156.055">  1  5  2 -1</clus>
</clustering>
</event>
<event>
 9    1  0.1803370E-005  0.9335174E+02  0.7546771E-02  0.1295267E+00
          1   -1    0    0  502    0  0.00000000000E+00  0.00000000000E+00  0.22185764687E+03  0.22185764687E+03  0.00000000000E+00 0. -1.
         -1   -1    0    0    0  501 -0.00000000000E+00 -0.00000000000E+00 -0.15827423608E+03  0.15827423608E+03  0.00000000000E+00 0.  1.
         23    2    1    2    0    0  0.11266232249E+02 -0.11009211264E+02 -0.12031026324E+03  0.15206646433E+03  0.91659802603E+02 0.  0.
         23    2    1    2    0    0  0.12648341708E+02  0.92669130503E+01  0.18120460788E+03  0.20393714625E+03  0.92246373787E+02 0.  0.
        -11    1    3    3    0    0  0.28555815483E+02  0.30824635128E+02 -0.31949801787E+02  0.52786196708E+02  0.00000000000E+00 0. -1.
         11    1    3    3    0    0 -0.17289583234E+02 -0.41833846393E+02 -0.88360461449E+02  0.99280267626E+02  0.00000000000E+00 0.  1.
        -13    1    4    4    0    0  0.21348180574E+02  0.44921476312E+02  0.14092995332E+03  0.14944877247E+03  0.00000000000E+00 0. -1.
         13    1    4    4    0    0 -0.86998388659E+01 -0.35654563262E+02  0.40274654561E+02  0.54488373784E+02  0.00000000000E+00 0.  1.
         21    1    1    2  502  501 -0.23914573957E+02  0.17422982142E+01  0.26890661389E+01  0.24128272365E+02  0.00000000000E+00 0. -1.
<scales pt_clust_5="13000.00000" pt_clust_6="13000.00000" pt_clust_7="13000.00000" pt_clust_8="13000.00000" pt_clust_9="23.97796"></scales>
<clustering>
<clus scale="   23.978">  2  9  1 -1</clus>
<clus scale="   91.660">  5  6 -1 -1</clus>
<clus scale="   92.246">  7  8 -1 -1</clus>
<clus scale="   92.772">  2  5  1 -1</clus>
<clus scale="   93.352">  1  5  2 -1</clus>
</clustering>
</event>
<event>
 9    1  0.1803370E-005  0.1057640E+03  0.7546771E-02  0.1270188E+00
          1   -1    0    0  502    0  0.00000000000E+00  0.00000000000E+00  0.10515519418E+04  0.10515519418E+04  0.00000000000E+00 0. -1.
         -1   -1    0    0    0  501 -0.00000000000E+00 -0.00000000000E+00 -0.15382707671E+02  0.15382707671E+02  0.00000000000E+00 0.  1.
         23    2    1    2    0    0 -0.32532182632E+02 -0.31419979846E+02  0.31776937719E+03  0.33336760704E+03  0.90061236413E+02 0.  0.
         23    2    1    2    0    0  0.61164923814E+02  0.96117494654E+01  0.52970444398E+03  0.54146969302E+03  0.93643455992E+02 0.  0.
        -13    1    3    3    0    0  0.11950088862E+02 -0.42109041855E+02  0.23266119292E+03  0.23674291271E+03  0.00000000000E+00 0. -1.
         13    1    3    3    0    0 -0.44482271494E+02  0.10689062010E+02  0.85108184274E+02  0.96624694330E+02  0.00000000000E+00 0.  1.
        -13    1    4    4    0    0 -0.23697671233E+02  0.12422774927E+02  0.10455476644E+03  0.10792406656E+03  0.00000000000E+00 0.  1.
         13    1    4    4    0    0  0.84862595046E+02 -0.28110254612E+01  0.42514967754E+03  0.43354562645E+03  0.00000000000E+00 0. -1.
         21    1    1    2  502  501 -0.28632741182E+02  0.21808230380E+02  0.18869541292E+03  0.19209734938E+03  0.00000000000E+00 0.  1.
<scales pt_clust_5="13000.00000" pt_clust_6="13000.00000" pt_clust_7="13000.00000" pt_clust_8="13000.00000" pt_clust_9="35.99212"></scales>
<clustering>
<clus scale="   35.992">  1  9  2 -1</clus>
<clus scale="   90.061">  5  6 -1 -1</clus>
<clus scale="   93.643">  7  8 -1 -1</clus>
<clus scale="  102.606">  2  5  1 -1</clus>
<clus scale="   35.992">  1  5  2 -1</clus>
</clustering>
</event>
<event>
 9    1  0.1803370E-005  0.2409560E+03  0.7546771E-02  0.1119174E+00
         -1   -1    0    0    0  501 -0.00000000000E+00  0.00000000000E+00  0.15189415086E+03  0.15189415086E+03  0.00000000000E+00 0.  1.
          1   -1    0    0  502    0  0.00000000000E+00 -0.00000000000E+00 -0.10595299772E+04  0.10595299772E+04  0.00000000000E+00 0. -1.
         23    2    1    2    0    0  0.68717102141E+02  0.21427427611E+03  0.25039110454E+02  0.24460337302E+03  0.92565368869E+02 0.  0.
         23    2    1    2    0    0 -0.81705183589E+02 -0.18626914462E+03 -0.80560806039E+03  0.83605772996E+03  0.92823755534E+02 0.  0.
        -13    1    3    3    0    0 -0.18942016911E+02  0.44458146327E+02  0.22920466068E+02  0.53485274088E+02  0.00000000000E+00 0. -1.
         13    1    3    3    0    0  0.87659119052E+02  0.16981612978E+03  0.21186443857E+01  0.19111809894E+03  0.00000000000E+00 0.  1.
        -13    1    4    4    0    0 -0.26189956120E+02 -0.11801927425E+03 -0.60571171244E+03  0.61765778671E+03  0.00000000000E+00 0. -1.
         13    1    4    4    0    0 -0.55515227470E+02 -0.68249870368E+02 -0.19989634795E+03  0.21839994325E+03  0.00000000000E+00 0.  1.
         21    1    1    2  502  501  0.12988081448E+02 -0.28005131490E+02 -0.12706687638E+03  0.13076302506E+03  0.00000000000E+00 0.  1.
<scales pt_clust_5="13000.00000" pt_clust_6="13000.00000" pt_clust_7="13000.00000" pt_clust_8="13000.00000" pt_clust_9="30.87034"></scales>
<clustering>
<clus scale="   30.870">  2  9  1 -1</clus>
<clus scale="   92.565">  5  6 -1 -1</clus>
<clus scale="   92.824">  7  8 -1 -1</clus>
<clus scale="  240.857">  1  5  2 -1</clus>
<clus scale="   30.870">  2  5  1 -1</clus>
</clustering>
</event>
<event>
 9    1  0.1803370E-005  0.1175917E+03  0.7546771E-02  0.1249184E+00
         -3   -1    0    0    0  501 -0.00000000000E+00  0.00000000000E+00  0.14920482687E+03  0.14920482687E+03  0.00000000000E+00 0.  1.
          3   -1    0    0  502    0  0.00000000000E+00 -0.00000000000E+00 -0.12222525028E+03  0.12222525028E+03  0.00000000000E+00 0. -1.
         23    2    1    2    0    0 -0.77027330658E+02 -0.30665060737E+01  0.55801443904E+02  0.13571191466E+03  0.96753860443E+02 0.  0.
         23    2    1    2    0    0  0.51189213643E+02  0.73776556766E+01 -0.13745153289E+02  0.10549397337E+03  0.90913606145E+02 0.  0.
        -13    1    3    3    0    0 -0.42567996862E+02 -0.49825129083E+02  0.26975480038E+02  0.70867865554E+02  0.00000000000E+00 0.  1.
         13    1    3    3    0    0 -0.34459333795E+02  0.46758623009E+02  0.28825963866E+02  0.64844049103E+02  0.00000000000E+00 0. -1.
        -13    1    4    4    0    0  0.24688855756E+02 -0.28073090568E+02 -0.39417566551E+02  0.54326628512E+02  0.00000000000E+00 0. -1.
         13    1    4    4    0    0  0.26500357886E+02  0.35450746245E+02  0.25672413262E+02  0.51167344861E+02  0.00000000000E+00 0.  1.
         21    1    1    2  502  501  0.25838117015E+02 -0.43111496029E+01 -0.15076714023E+02  0.30224189112E+02  0.00000000000E+00 0.  1.
<scales pt_clust_5="13000.00000" pt_clust_6="13000.00000" pt_clust_7="13000.00000" pt_clust_8="13000.00000" pt_clust_9="26.19531"></scales>
<clustering>
<clus scale="   26.195">  2  9  1 -1</clus>
<clus scale="   90.914">  7  8 -1 -1</clus>
<clus scale="   96.754">  5  6 -1 -1</clus>
<clus scale="  112.835">  2  7  1 -1</clus>
<clus scale="   26.195">  2  5  1 -1</clus>
</clustering>
</event>
<event>
 9    1  0.1803370E-005  0.1651109E+03  0.7546771E-02  0.1183177E+00
         -1   -1    0    0    0  501 -0.00000000000E+00  0.00000000000E+00  0.84344439940E+03  0.84344439940E+03  0.00000000000E+00 0.  1.
          1   -1    0    0  502    0  0.00000000000E+00 -0.00000000000E+00 -0.62849947311E+02  0.62849947311E+02  0.00000000000E+00 0. -1.
         23    2    1    2    0    0 -0.17180998520E+02 -0.12601896604E+03  0.46049734711E+03  0.48683922989E+03  0.93694517172E+02 0.  0.
         23    2    1    2    0    0  0.12605002521E-01  0.15126109504E+03  0.33963611104E+03  0.38321023346E+03  0.92830361809E+02 0.  0.
        -11    1    3    3    0    0 -0.48712935739E+02 -0.10953256148E+03  0.38772647594E+03  0.40583512943E+03  0.00000000000E+00 0.  1.
         11    1    3    3    0    0  0.31531937219E+02 -0.16486404557E+02  0.72770871168E+02  0.81004100455E+02  0.00000000000E+00 0. -1.
        -13    1    4    4    0    0  0.32928285447E+02  0.99596482158E+02  0.14365229919E+03  0.17787555848E+03  0.00000000000E+00 0. -1.
         13    1    4    4    0    0 -0.32915680445E+02  0.51664612886E+02  0.19598381184E+03  0.20533467498E+03  0.00000000000E+00 0.  1.
         21    1    1    2  502  501  0.17168393517E+02 -0.25242129005E+02 -0.19539006058E+02  0.36244883368E+02  0.00000000000E+00 0. -1.
<scales pt_clust_5="13000.00000" pt_clust_6="13000.00000" pt_clust_7="13000.00000" pt_clust_8="13000.00000" pt_clust_9="30.52735"></scales>
<clustering>
<clus scale="   30.527">  2  9  1 -1</clus>
<clus scale="   92.830">  7  8 -1 -1</clus>
<clus scale="   93.695">  5  6 -1 -1</clus>
<clus scale="  164.622">  2  7  1 -1</clus>
<clus scale="   30.527">  2  5  1 -1</clus>
</clustering>
</event>
<event>
 9    1  0.1803370E-005  0.1535533E+03  0.7546771E-02  0.1196404E+00
         -1   -1    0    0    0  501 -0.00000000000E+00  0.00000000000E+00  0.11857624658E+03  0.11857624658E+03  0.00000000000E+00 0.  1.
          1   -1    0    0  502    0  0.00000000000E+00 -0.00000000000E+00 -0.23945808352E+03  0.23945808352E+03  0.00000000000E+00 0. -1.
         23    2    1    2    0    0 -0.35917039800E+02  0.12099527787E+03 -0.20619036443E+02  0.15802556711E+03  0.92828035549E+02 0.  0.
         23    2    1    2    0    0  0.14554322127E+02 -0.11704538678E+03 -0.76324461823E+02  0.16768212684E+03  0.91544641181E+02 0.  0.
        -11    1    3    3    0    0 -0.52369479596E+02  0.92868252877E+02  0.17319551488E+02  0.10801408079E+03  0.00000000000E+00 0.  1.
         11    1    3    3    0    0  0.16452439795E+02  0.28127024989E+02 -0.37938587931E+02  0.50011486322E+02  0.00000000000E+00 0. -1.
        -13    1    4    4    0    0 -0.27135057614E+02 -0.28564385348E+02 -0.54864415638E+02  0.67545092829E+02  0.00000000000E+00 0.  1.
         13    1    4    4    0    0  0.41689379741E+02 -0.88481001435E+02 -0.21460046186E+02  0.10013703401E+03  0.00000000000E+00 0. -1.
         21    1    1    2  502  501  0.21362717674E+02 -0.39498910832E+01 -0.23938338679E+02  0.32326636149E+02  0.00000000000E+00 0.  1.
<scales pt_clust_5="13000.00000" pt_clust_6="13000.00000" pt_clust_7="13000.00000" pt_clust_8="13000.00000" pt_clust_9="21.72481"></scales>
<clustering>
<clus scale="   21.725">  2  9  1 -1</clus>
<clus scale="   91.545">  7  8 -1 -1</clus>
<clus scale="   92.828">  5  6 -1 -1</clus>
<clus scale="  152.781">  2  7  1 -1</clus>
<clus scale="   21.725">  2  5  1 -1</clus>
</clustering>
</event>
<event>
 9    1  0.1803370E-005  0.9250487E+02  0.7546771E-02  0.1297594E+00
          2   -1    0    0  502    0  0.00000000000E+00  0.00000000000E+00  0.10496990808E+03  0.10496990808E+03  0.00000000000E+00 0. -1.
         -2   -1    0    0    0  501 -0.00000000000E+00 -0.00000000000E+00 -0.11659224325E+03  0.11659224325E+03  0.00000000000E+00 0.  1.
         23    2    1    2    0    0  0.56212707141E+01  0.35502687053E+01 -0.32346911552E+02  0.98023950354E+02  0.92293927556E+02 0.  0.
         23    2    1    2    0    0  0.22174261991E+02 -0.52931157351E+01  0.17023390988E+02  0.95443220516E+02  0.91103773427E+02 0.  0.
        -11    1    4    4    0    0  0.38862613087E+02 -0.23891356403E+02 -0.20779066899E+02  0.50128527087E+02  0.00000000000E+00 0.  1.
         11    1    4    4    0    0 -0.16688351096E+02  0.18598240668E+02  0.37802457887E+02  0.45314693429E+02  0.00000000000E+00 0. -1.
        -13    1    3    3    0    0 -0.10667292838E+02  0.35935610941E+02  0.13262924440E+02  0.39762600957E+02  0.00000000000E+00 0. -1.
         13    1    3    3    0    0  0.16288563552E+02 -0.32385342235E+02 -0.45609835992E+02  0.58261349397E+02  0.00000000000E+00 0.  1.
         21    1    1    2  502  501 -0.27795532705E+02  0.17428470297E+01  0.37011853947E+01  0.28094980467E+02  0.00000000000E+00 0. -1.
<scales pt_clust_5="13000.00000" pt_clust_6="13000.00000" pt_clust_7="13000.00000" pt_clust_8="13000.00000" pt_clust_9="27.85012"></scales>
<clustering>
<clus scale="   27.850">  1  9  2 -1</clus>
<clus scale="   91.104">  5  6 -1 -1</clus>
<clus scale="   91.317">  1  5  2 -1</clus>
<clus scale="   92.294">  7  8 -1 -1</clus>
<clus scale="   27.850">  1  5  2 -1</clus>
</clustering>
</event>
<event>
 9    1  0.1803370E-005  0.9497102E+02  0.7546771E-02  0.1291331E+00
         -2   -1    0    0    0  501 -0.00000000000E+00  0.00000000000E+00  0.83517564705E+02  0.83517564705E+02  0.00000000000E+00 0.  1.
          2   -1    0    0  502    0  0.00000000000E+00 -0.00000000000E+00 -0.28857459015E+03  0.28857459015E+03  0.00000000000E+00 0. -1.
         23    2    1    2    0    0 -0.43852820397E+01 -0.22297783769E+02 -0.78911814296E+01  0.95787594162E+02  0.92717692980E+02 0.  0.
         23    2    1    2    0    0  0.31882938663E+02 -0.35851489616E+01 -0.26870621760E+02  0.10187259674E+03  0.92879602612E+02 0.  0.
        -11    1    4    4    0    0 -0.20519558773E+02 -0.16624649639E+02  0.17752133362E+02  0.31820897328E+02  0.00000000000E+00 0.  1.
         11    1    4    4    0    0  0.52402497436E+02  0.13039500678E+02 -0.44622755122E+02  0.70051699409E+02  0.00000000000E+00 0. -1.
        -13    1    3    3    0    0  0.36182747901E+02 -0.30160862636E+02  0.13843872236E+02  0.49097063855E+02  0.00000000000E+00 0. -1.
         13    1    3    3    0    0 -0.40568029941E+02  0.78630788675E+01 -0.21735053665E+02  0.46690530308E+02  0.00000000000E+00 0.  1.
         21    1    1    2  502  501 -0.27497656623E+02  0.25882932730E+02 -0.17029522225E+03  0.17443196395E+03  0.00000000000E+00 0. -1.
<scales pt_clust_5="13000.00000" pt_clust_6="13000.00000" pt_clust_7="13000.00000" pt_clust_8="13000.00000" pt_clust_9="37.76304"></scales>
<clustering>
<clus scale="   37.763">  2  9  1 -1</clus>
<clus scale="   92.718">  7  8 -1 -1</clus>
<clus scale="   92.880">  5  6 -1 -1</clus>
<clus scale="   94.813">  1  7  2 -1</clus>
<clus scale="   37.763">  2  5  1 -1</clus>
</clustering>
</event>
<event>
 9    1  0.1803370E-005  0.1132112E+03  0.7546771E-02  0.1258084E+00
          2   -1    0    0  502    0  0.00000000000E+00  0.00000000000E+00  0.33076030487E+03  0.33076030487E+03  0.00000000000E+00 0. -1.
         -2   -1    0    0    0  501 -0.00000000000E+00 -0.00000000000E+00 -0.16477323113E+03  0.16477323113E+03  0.00000000000E+00 0.  1.
         23    2    1    2    0    0 -0.13013853690E+02 -0.69044038908E+02 -0.94604230697E+02  0.14945520871E+03  0.91926379506E+02 0.  0.
         23    2    1    2    0    0  0.39644023098E+02 -0.35472216366E+02  0.92575483506E+02  0.14642330075E+03  0.10019798478E+03 0.  0.
        -11    1    3    3    0    0  0.38149664021E+02 -0.27419318201E+02 -0.23713777051E+02  0.52626600665E+02  0.00000000000E+00 0. -1.
         11    1    3    3    0    0 -0.51163517711E+02 -0.41624720707E+02 -0.70890453646E+02  0.96828608049E+02  0.00000000000E+00 0.  1.
        -13    1    4    4    0    0  0.20493860539E+02  0.33123018980E+02  0.16757674770E+02  0.42402268452E+02  0.00000000000E+00 0. -1.
         13    1    4    4    0    0  0.19150162559E+02 -0.68595235346E+02  0.75817808736E+02  0.10402103230E+03  0.00000000000E+00 0.  1.
         21    1    1    2  502  501 -0.26630169408E+02  0.10451625527E+03  0.16801582093E+03  0.19965502654E+03  0.00000000000E+00 0. -1.
<scales pt_clust_5="13000.00000" pt_clust_6="13000.00000" pt_clust_7="13000.00000" pt_clust_8="13000.00000" pt_clust_9="107.85552"></scales>
<clustering>
<clus scale="   91.926">  5  6 -1 -1</clus>
<clus scale="  100.198">  7  8 -1 -1</clus>
<clus scale="  107.856">  1  9  2 -1</clus>
<clus scale="  105.960">  2  5  1 -1</clus>
<clus scale="  107.856">  1  5  2 -1</clus>
</clustering>
</event>
<event>
 9    1  0.1803370E-005  0.1536939E+03  0.7546771E-02  0.1197159E+00
          1   -1    0    0  502    0  0.00000000000E+00  0.00000000000E+00  0.21635732360E+03  0.21635732360E+03  0.00000000000E+00 0. -1.
         -1   -1    0    0    0  501 -0.00000000000E+00 -0.00000000000E+00 -0.22194231801E+03  0.22194231801E+03  0.00000000000E+00 0.  1.
         23    2    1    2    0    0  0.13045344477E+03 -0.65180073320E+01 -0.11862733361E+03  0.20340244484E+03  0.10119053618E+03 0.  0.
         23    2    1    2    0    0 -0.10330643384E+03 -0.28183303277E+02  0.11622650652E+03  0.19072390075E+03  0.10677306608E+03 0.  0.
        -11    1    3    3    0    0  0.73633429964E+02  0.45001221761E+02 -0.79345751882E+02  0.11722943449E+03  0.00000000000E+00 0. -1.
         11    1    3    3    0    0  0.56820014809E+02 -0.51519229093E+02 -0.39281581733E+02  0.86173010349E+02  0.00000000000E+00 0.  1.
        -11    1    4    4    0    0  0.19641054859E+02  0.10569184254E+02  0.17635754807E+02  0.28434108731E+02  0.00000000000E+00 0.  1.
         11    1    4    4    0    0 -0.12294748870E+03 -0.38752487531E+02  0.98590751716E+02  0.16228979201E+03  0.00000000000E+00 0. -1.
         21    1    1    2  502  501 -0.27147010928E+02  0.34701310610E+02 -0.31841673150E+01  0.44173296027E+02  0.00000000000E+00 0. -1.
<scales pt_clust_5="13000.00000" pt_clust_6="13000.00000" pt_clust_7="13000.00000" pt_clust_8="13000.00000" pt_clust_9="44.05838"></scales>
<clustering>
<clus scale="   44.058">  2  9  1 -1</clus>
<clus scale="  101.191">  5  6 -1 -1</clus>
<clus scale="  106.773">  7  8 -1 -1</clus>
<clus scale="  149.869">  2  5  1 -1</clus>
<clus scale="  153.694">  1  5  2 -1</clus>
</clustering>
</event>
<event>
 9    1  0.1803370E-005  0.9820215E+02  0.7546771E-02  0.1286016E+00
          1   -1    0    0  502    0  0.00000000000E+00  0.00000000000E+00  0.22711664362E+03  0.22711664362E+03  0.00000000000E+00 0. -1.
         -1   -1    0    0    0  501 -0.00000000000E+00 -0.00000000000E+00 -0.94375993023E+02  0.94375993023E+02  0.00000000000E+00 0.  1.
         23    2    1    2    0    0  0.29206231255E+02 -0.12979428267E+02 -0.34591389262E+02  0.10108529838E+03  0.89443858569E+02 0.  0.
         23    2    1    2    0    0 -0.33299908768E+02 -0.67038514943E+01  0.70754580129E+02  0.12175950288E+03  0.93087810066E+02 0.  0.
        -11    1    3    3    0    0  0.34099791490E+02 -0.35163732148E+02 -0.52762655772E+02  0.71994317014E+02  0.00000000000E+00 0.  1.
         11    1    3    3    0    0 -0.48935602352E+01  0.22184303880E+02  0.18171266509E+02  0.29090981368E+02  0.00000000000E+00 0. -1.
        -11    1    4    4    0    0 -0.57300167057E+02 -0.28712077974E+02  0.33634958179E+02  0.72380957289E+02  0.00000000000E+00 0.  1.
         11    1    4    4    0    0  0.24000258289E+02  0.22008226480E+02  0.37119621950E+02  0.49378545589E+02  0.00000000000E+00 0. -1.
         21    1    1    2  502  501  0.40936775127E+01  0.19683279762E+02  0.96577459731E+02  0.98647835384E+02  0.00000000000E+00 0. -1.
<scales pt_clust_5="13000.00000" pt_clust_6="13000.00000" pt_clust_7="13000.00000" pt_clust_8="13000.00000" pt_clust_9="20.10447"></scales>
<clustering>
<clus scale="   20.104">  1  9  2 -1</clus>
<clus scale="   89.444">  5  6 -1 -1</clus>
<clus scale="   93.088">  7  8 -1 -1</clus>
<clus scale="   94.755">  2  5  1 -1</clus>
<clus scale="   20.104">  1  5  2 -1</clus>
</clustering>
</event>
<event>
 9    1  0.1803370E-005  0.1894780E+03  0.7546771E-02  0.1159198E+00
         -1   -1    0    0    0  501 -0.00000000000E+00  0.00000000000E+00  0.89396549303E+02  0.89396549303E+02  0.00000000000E+00 0.  1.
          1   -1    0    0  502    0  0.00000000000E+00 -0.00000000000E+00 -0.78073036026E+03  0.78073036026E+03  0.00000000000E+00 0. -1.
         23    2    1    2    0    0 -0.10574586861E+02 -0.16647959289E+03 -0.60031241270E+02  0.20027709336E+03  0.93165913608E+02 0.  0.
         23    2    1    2    0    0 -0.12381037924E+02  0.15936855211E+03 -0.43729142275E+03  0.47435594738E+03  0.90764260071E+02 0.  0.
        -11    1    3    3    0    0 -0.21527179266E+02 -0.89950662788E+02 -0.77905530191E+02  0.12092895773E+03  0.00000000000E+00 0. -1.
         11    1    3    3    0    0  0.10952592405E+02 -0.76528930103E+02  0.17874288921E+02  0.79348135628E+02  0.00000000000E+00 0.  1.
        -13    1    4    4    0    0 -0.10816833115E+02  0.36096464680E+02 -0.28126487840E+02  0.47021888086E+02  0.00000000000E+00 0.  1.
         13    1    4    4    0    0 -0.15642048088E+01  0.12327208743E+03 -0.40916493491E+03  0.42733405930E+03  0.00000000000E+00 0. -1.
         21    1    1    2  502  501  0.22955624785E+02  0.71110407774E+01 -0.19401114694E+03  0.19549386882E+03  0.00000000000E+00 0. -1.
<scales pt_clust_5="13000.00000" pt_clust_6="13000.00000" pt_clust_7="13000.00000" pt_clust_8="13000.00000" pt_clust_9="24.03180"></scales>
<clustering>
<clus scale="   24.032">  2  9  1 -1</clus>
<clus scale="   90.764">  7  8 -1 -1</clus>
<clus scale="   93.166">  5  6 -1 -1</clus>
<clus scale="  188.309">  2  7  1 -1</clus>
<clus scale="   24.032">  2  5  1 -1</clus>
</clustering>
</event>
<event>
 9    1  0.1803370E-005  0.9913642E+02  0.7546771E-02  0.1283351E+00
          3   -1    0    0  502    0  0.00000000000E+00  0.00000000000E+00  0.50864725837E+03  0.50864725837E+03  0.00000000000E+00 0. -1.
         -3   -1    0    0    0  501 -0.00000000000E+00 -0.00000000000E+00 -0.47030568226E+03  0.47030568226E+03  0.00000000000E+00 0.  1.
         23    2    1    2    0    0 -0.46548250523E+01 -0.44270529484E+02 -0.38105240442E+03  0.39518289634E+03  0.94799997231E+02 0.  0.
         23    2    1    2    0    0  0.33154946522E+01 -0.51164517432E+02 -0.41170931280E+02  0.11341945168E+03  0.92412802616E+02 0.  0.
        -13    1    4    4    0    0  0.45808181087E+02 -0.12838490819E+02 -0.11422249604E+02  0.48925290873E+02  0.00000000000E+00 0. -1.
         13    1    4    4    0    0 -0.42492686434E+02 -0.38326026613E+02 -0.29748681676E+02  0.64494160804E+02  0.00000000000E+00 0.  1.
        -13    1    3    3    0    0 -0.71745074794E+01 -0.72450654616E+02 -0.31539654737E+03  0.32369052041E+03  0.00000000000E+00 0.  1.
         13    1    3    3    0    0  0.25196824271E+01  0.28180125132E+02 -0.65655857046E+02  0.71492375932E+02  0.00000000000E+00 0. -1.
         21    1    1    2  502  501  0.13393304001E+01  0.95435046916E+02  0.46056491180E+03  0.47035059261E+03  0.00000000000E+00 0. -1.
<scales pt_clust_5="13000.00000" pt_clust_6="13000.00000" pt_clust_7="13000.00000" pt_clust_8="13000.00000" pt_clust_9="95.44444"></scales>
<clustering>
<clus scale="   92.413">  5  6 -1 -1</clus>
<clus scale="   94.800">  7  8 -1 -1</clus>
<clus scale="   95.444">  1  9  2 -1</clus>
<clus scale="   96.856">  1  5  2 -1</clus>
<clus scale="   95.444">  1  5  2 -1</clus>
</clustering>
</event>
<event>
 9    1  0.1803370E-005  0.9859658E+02  0.7546771E-02  0.1287107E+00
          1   -1    0    0  502    0  0.00000000000E+00  0.00000000000E+00  0.48356026846E+03  0.48356026846E+03  0.00000000000E+00 0. -1.
         -1   -1    0    0    0  501 -0.00000000000E+00 -0.00000000000E+00 -0.51260532396E+02  0.51260532396E+02  0.00000000000E+00 0.  1.
         23    2    1    2    0    0  0.44518053763E+02  0.44801299349E+02  0.74440736297E+02  0.12953524504E+03  0.85140724412E+02 0.  0.
         23    2    1    2    0    0  0.35884384200E+02 -0.33437173143E+01  0.17251156846E+03  0.19904066877E+03  0.92509875678E+02 0.  0.
        -11    1    4    4    0    0  0.11464202067E+02  0.17539030580E+02 -0.25017258036E+01  0.21102231037E+02  0.00000000000E+00 0.  1.
         11    1    4    4    0    0  0.24420182133E+02 -0.20882747894E+02  0.17501329426E+03  0.17793843773E+03  0.00000000000E+00 0. -1.
        -11    1    3    3    0    0 -0.15380765794E+02  0.40646148897E+02  0.17704166431E+02  0.46926696939E+02  0.00000000000E+00 0. -1.
         11    1    3    3    0    0  0.59898819557E+02  0.41551504524E+01  0.56736569866E+02  0.82608548104E+02  0.00000000000E+00 0.  1.
         21    1    1    2  502  501 -0.80402437963E+02 -0.41457582035E+02  0.18534743131E+03  0.20624488705E+03  0.00000000000E+00 0. -1.
<scales pt_clust_5="13000.00000" pt_clust_6="13000.00000" pt_clust_7="13000.00000" pt_clust_8="13000.00000" pt_clust_9="90.46150"></scales>
<clustering>
<clus scale="   85.141">  7  8 -1 -1</clus>
<clus scale="   90.462">  1  9  2 -1</clus>
<clus scale="   91.718">  2  7  1 -1</clus>
<clus scale="   92.510">  5  6 -1 -1</clus>
<clus scale="   90.462">  1  5  2 -1</clus>
</clustering>
</event>
<event>
 9    1  0.1803370E-005  0.1004282E+03  0.7546771E-02  0.1282955E+00
         -1   -1    0    0    0  501 -0.00000000000E+00  0.00000000000E+00  0.68617870041E+02  0.68617870041E+02  0.00000000000E+00 0.  1.
          1   -1    0    0  502    0  0.00000000000E+00 -0.00000000000E+00 -0.20752008618E+03  0.20752008618E+03  0.00000000000E+00 0. -1.
         23    2    1    2    0    0  0.11574861650E+02  0.36053027384E+02 -0.17046917653E+02  0.94072736183E+02  0.84411397843E+02 0.  0.
         23    2    1    2    0    0  0.12455519837E+02 -0.51651189753E+02 -0.10307422475E+03  0.14780897047E+03  0.91652662625E+02 0.  0.
        -13    1    3    3    0    0  0.34204676547E+02 -0.12823114753E+02 -0.16809688103E+02  0.40211413601E+02  0.00000000000E+00 0. -1.
         13    1    3    3    0    0 -0.22629814897E+02  0.48876142137E+02 -0.23722954992E+00  0.53861322582E+02  0.00000000000E+00 0.  1.
        -13    1    4    4    0    0  0.30958553988E+02  0.16330137371E+02 -0.27721546965E+02  0.44649631776E+02  0.00000000000E+00 0.  1.
         13    1    4    4    0    0 -0.18503034151E+02 -0.67981327124E+02 -0.75352677785E+02  0.10315933869E+03  0.00000000000E+00 0. -1.
         21    1    1    2  502  501 -0.24030381488E+02  0.15598162369E+02 -0.18781073736E+02  0.34256249568E+02  0.00000000000E+00 0.  1.
<scales pt_clust_5="13000.00000" pt_clust_6="13000.00000" pt_clust_7="13000.00000" pt_clust_8="13000.00000" pt_clust_9="28.64894"></scales>
<clustering>
<clus scale="   28.649">  2  9  1 -1</clus>
<clus scale="   84.411">  5  6 -1 -1</clus>
<clus scale="   91.653">  7  8 -1 -1</clus>
<clus scale="   93.866">  1  5  2 -1</clus>
<clus scale="   28.649">  2  5  1 -1</clus>
</clustering>
</event>
<event>
 9    1  0.1803370E-005  0.1563764E+03  0.7546771E-02  0.1193092E+00
         -2   -1    0    0    0  501 -0.00000000000E+00  0.00000000000E+00  0.67163197015E+02  0.67163197015E+02  0.00000000000E+00 0.  1.
          2   -1    0    0  502    0  0.00000000000E+00 -0.00000000000E+00 -0.51707371088E+03  0.51707371088E+03  0.00000000000E+00 0. -1.
         23    2    1    2    0    0  0.19654202323E+01  0.12638702873E+03 -0.10035523236E+03  0.18621424407E+03  0.92881796529E+02 0.  0.
         23    2    1    2    0    0 -0.34989410983E+02 -0.12259660389E+03 -0.29504104867E+03  0.33417320910E+03  0.91478560973E+02 0.  0.
        -11    1    4    4    0    0 -0.30470423341E+02  0.33914963319E+01 -0.51439908179E+02  0.59883329061E+02  0.00000000000E+00 0.  1.
         11    1    4    4    0    0 -0.45189876418E+01 -0.12598810022E+03 -0.24360114049E+03  0.27428988004E+03  0.00000000000E+00 0. -1.
        -13    1    3    3    0    0 -0.39678674664E+02  0.99435630529E+02 -0.72841163296E+02  0.12949006492E+03  0.00000000000E+00 0.  1.
         13    1    3    3    0    0  0.41644094896E+02  0.26951398202E+02 -0.27514069062E+02  0.56724179158E+02  0.00000000000E+00 0. -1.
         21    1    1    2  502  501  0.33023990751E+02 -0.37904248448E+01 -0.54514232840E+02  0.63849454717E+02  0.00000000000E+00 0. -1.
<scales pt_clust_5="13000.00000" pt_clust_6="13000.00000" pt_clust_7="13000.00000" pt_clust_8="13000.00000" pt_clust_9="33.24081"></scales>
<clustering>
<clus scale="   33.241">  2  9  1 -1</clus>
<clus scale="   91.479">  5  6 -1 -1</clus>
<clus scale="   92.882">  7  8 -1 -1</clus>
<clus scale="  155.547">  2  5  1 -1</clus>
<clus scale="   33.241">  2  5  1 -1</clus>
</clustering>
</event>
<event>
 9    1  0.1803370E-005  0.1435418E+03  0.7546771E-02  0.1220764E+00
         -1   -1    0    0    0  501 -0.00000000000E+00  0.00000000000E+00  0.15399266691E+03  0.15399266691E+03  0.00000000000E+00 0.  1.
          1   -1    0    0  502    0  0.00000000000E+00 -0.00000000000E+00 -0.24961785445E+03  0.24961785445E+03  0.00000000000E+00 0. -1.
         23    2    1    2    0    0 -0.46584351996E+02  0.41856659653E+02  0.49177938390E+01  0.11114004063E+03  0.91683379773E+02 0.  0.
         23    2    1    2    0    0  0.82723711984E+02  0.73773466360E+02 -0.93257337989E+02  0.17110549410E+03  0.91073718262E+02 0.  0.
        -11    1    4    4    0    0  0.41410561679E+02  0.43098151932E+02 -0.10266566567E+03  0.11879614567E+03  0.00000000000E+00 0. -1.
         11    1    4    4    0    0  0.41313150305E+02  0.30675314428E+02  0.94083276783E+01  0.52309348429E+02  0.00000000000E+00 0.  1.
        -13    1    3    3    0    0 -0.70870385286E+02  0.31135805062E+02 -0.13838366599E+02  0.78635553394E+02  0.00000000000E+00 0.  1.
         13    1    3    3    0    0  0.24286033289E+02  0.10720854590E+02  0.18756160438E+02  0.32504487236E+02  0.00000000000E+00 0. -1.
         21    1    1    2  502  501 -0.36139359988E+02 -0.11563012601E+03 -0.72856433837E+01  0.12136498664E+03  0.00000000000E+00 0.  1.
<scales pt_clust_5="13000.00000" pt_clust_6="13000.00000" pt_clust_7="13000.00000" pt_clust_8="13000.00000" pt_clust_9="110.94968"></scales>
<clustering>
<clus scale="   91.074">  5  6 -1 -1</clus>
<clus scale="   91.683">  7  8 -1 -1</clus>
<clus scale="  111.031">  1  7  2 -1</clus>
<clus scale="  110.950">  1  9  2 -1</clus>
<clus scale="  143.542">  2  5  1 -1</clus>
</clustering>
</event>
<event>
 9    1  0.1803370E-005  0.9529385E+02  0.7546771E-02  0.1291260E+00
         -2   -1    0    0    0  501 -0.00000000000E+00  0.00000000000E+00  0.65705220894E+02  0.65705220894E+02  0.00000000000E+00 0.  1.
          2   -1    0    0  502    0  0.00000000000E+00 -0.00000000000E+00 -0.32293653408E+03  0.32293653408E+03  0.00000000000E+00 0. -1.
         23    2    1    2    0    0 -0.27395460486E+02 -0.16294697193E+02 -0.48099004961E+01  0.95905630885E+02  0.90325669003E+02 0.  0.
         23    2    1    2    0    0 -0.68473082959E+01  0.46601233358E+02 -0.19396817498E+03  0.21852133886E+03  0.88934594221E+02 0.  0.
        -11    1    4    4    0    0 -0.42636551606E+02  0.10102139981E+01 -0.84808246467E+02  0.94928050301E+02  0.00000000000E+00 0.  1.
         11    1    4    4    0    0  0.35789243310E+02  0.45591019360E+02 -0.10915992851E+03  0.12359328856E+03  0.00000000000E+00 0. -1.
        -11    1    3    3    0    0  0.13908214569E+02 -0.31213688712E+02 -0.29832143599E+02  0.45361763494E+02  0.00000000000E+00 0. -1.
         11    1    3    3    0    0 -0.41303675055E+02  0.14918991519E+02  0.25022243103E+02  0.50543867392E+02  0.00000000000E+00 0.  1.
         21    1    1    2  502  501  0.34242768782E+02 -0.30306536165E+02 -0.58453237707E+02  0.74214785229E+02  0.00000000000E+00 0. -1.
<scales pt_clust_5="13000.00000" pt_clust_6="13000.00000" pt_clust_7="13000.00000" pt_clust_8="13000.00000" pt_clust_9="45.72804"></scales>
<clustering>
<clus scale="   45.728">  2  9  1 -1</clus>
<clus scale="   88.935">  5  6 -1 -1</clus>
<clus scale="   90.326">  7  8 -1 -1</clus>
<clus scale="   93.976">  2  5  1 -1</clus>
<clus scale="   45.728">  2  5  1 -1</clus>
</clustering>
</event>
<event>
 9    1  0.1803370E-005  0.9231988E+02  0.7546771E-02  0.1304701E+00
          2   -1    0    0  502    0  0.00000000000E+00  0.00000000000E+00  0.65454074928E+03  0.65454074928E+03  0.00000000000E+00 0.  1.
         -2   -1    0    0    0  501 -0.00000000000E+00 -0.00000000000E+00 -0.25777657350E+02  0.25777657350E+02  0.00000000000E+00 0. -1.
         23    2    1    2    0    0 -0.94239775384E+01  0.18192217068E+02  0.98020370632E+02  0.13465913627E+03  0.90029560742E+02 0.  0.
         23    2    1    2    0    0 -0.24291150017E+02 -0.26132530691E+02  0.28914918790E+03  0.30159535704E+03  0.77971388305E+02 0.  0.
        -11    1    3    3    0    0 -0.46755010139E+02  0.20137895778E+02  0.75366807543E+02  0.90949004935E+02  0.00000000000E+00 0.  1.
         11    1    3    3    0    0  0.37331032600E+02 -0.19456787096E+01  0.22653563090E+02  0.43710131335E+02  0.00000000000E+00 0. -1.
        -13    1    4    4    0    0 -0.31209688419E+02 -0.46417732367E+02  0.25658516526E+03  0.26261111470E+03  0.00000000000E+00 0.  1.
         13    1    4    4    0    0  0.69185384029E+01  0.20285201676E+02  0.32564022640E+02  0.38984242344E+02  0.00000000000E+00 0. -1.
         21    1    1    2  502  501  0.33715127555E+02  0.79403136227E+01  0.24159353340E+03  0.24406391332E+03  0.00000000000E+00 0. -1.
<scales pt_clust_5="13000.00000" pt_clust_6="13000.00000" pt_clust_7="13000.00000" pt_clust_8="13000.00000" pt_clust_9="34.63753"></scales>
<clustering>
<clus scale="   34.638">  1  9  2 -1</clus>
<clus scale="   77.971">  7  8 -1 -1</clus>
<clus scale="   80.605">  1  7  2 -1</clus>
<clus scale="   90.030">  5  6 -1 -1</clus>
<clus scale="   34.638">  1  5  2 -1</clus>
</clustering>
</event>
<event>
 9    1  0.1803370E-005  0.1123672E+03  0.7546771E-02  0.1259753E+00
          4   -1    0    0  502    0  0.00000000000E+00  0.00000000000E+00  0.14792895285E+03  0.14792895285E+03  0.00000000000E+00 0. -1.
         -4   -1    0    0    0  501 -0.00000000000E+00 -0.00000000000E+00 -0.14811831269E+03  0.14811831269E+03  0.00000000000E+00 0.  1.
         23    2    1    2    0    0 -0.40481706464E+02 -0.26160897189E+02 -0.78625705815E+02  0.12991198544E+03  0.91498422102E+02 0.  0.
         23    2    1    2    0    0  0.64059758391E+02  0.14265398826E+02  0.59235376875E+02  0.13348402242E+03  0.10001000009E+03 0.  0.
        -11    1    3    3    0    0 -0.68288813368E+02 -0.83245231133E+01 -0.42060814828E+02  0.80633565345E+02  0.00000000000E+00 0. -1.
         11    1    3    3    0    0  0.27807106904E+02 -0.17836374076E+02 -0.36564890987E+02  0.49278420099E+02  0.00000000000E+00 0.  1.
        -13    1    4    4    0    0  0.90041149909E+02  0.41364569507E+00  0.41866100405E+02  0.99299295782E+02  0.00000000000E+00 0.  1.
         13    1    4    4    0    0 -0.25981391518E+02  0.13851753131E+02  0.17369276470E+02  0.34184726635E+02  0.00000000000E+00 0. -1.
         21    1    1    2  502  501 -0.23578051927E+02  0.11895498363E+02  0.19200969095E+02  0.32651257681E+02  0.00000000000E+00 0. -1.
<scales pt_clust_5="13000.00000" pt_clust_6="13000.00000" pt_clust_7="13000.00000" pt_clust_8="13000.00000" pt_clust_9="26.40885"></scales>
<clustering>
<clus scale="   26.409">  1  9  2 -1</clus>
<clus scale="   91.498">  5  6 -1 -1</clus>
<clus scale="  100.010">  7  8 -1 -1</clus>
<clus scale="  104.863">  2  5  1 -1</clus>
<clus scale="   26.409">  1  5  2 -1</clus>
</clustering>
</event>
<event>
 9    1  0.1803370E-005  0.9269523E+02  0.7546771E-02  0.1297964E+00
          3   -1    0    0  502    0  0.00000000000E+00  0.00000000000E+00  0.75748952006E+02  0.75748952006E+02  0.00000000000E+00 0. -1.
         -3   -1    0    0    0  501 -0.00000000000E+00 -0.00000000000E+00 -0.35475736387E+03  0.35475736387E+03  0.00000000000E+00 0.  1.
         23    2    1    2    0    0  0.16034939667E+02 -0.13677354850E+02 -0.27247687552E+03  0.28733113078E+03  0.88720582145E+02 0.  0.
         23    2    1    2    0    0 -0.56384892363E+00 -0.87445214719E+01 -0.39951510096E+02  0.10005918074E+03  0.91317752435E+02 0.  0.
        -11    1    3    3    0    0 -0.70138727060E+00 -0.47432053301E+02 -0.20111880645E+03  0.20663752305E+03  0.00000000000E+00 0.  1.
         11    1    3    3    0    0  0.16736326937E+02  0.33754698451E+02 -0.71358069061E+02  0.80693607721E+02  0.00000000000E+00 0. -1.
        -11    1    4    4    0    0  0.10203683380E+01 -0.40995721707E+02  0.84552413374E+01  0.41871009731E+02  0.00000000000E+00 0.  1.
         11    1    4    4    0    0 -0.15842172617E+01  0.32251200235E+02 -0.48406751433E+02  0.58188171008E+02  0.00000000000E+00 0. -1.
         21    1    1    2  502  501 -0.15471090743E+02  0.22421876322E+02  0.33419973749E+02  0.43116004360E+02  0.00000000000E+00 0. -1.
<scales pt_clust_5="13000.00000" pt_clust_6="13000.00000" pt_clust_7="13000.00000" pt_clust_8="13000.00000" pt_clust_9="27.24142"></scales>
<clustering>
<clus scale="   27.241">  1  9  2 -1</clus>
<clus scale="   88.721">  5  6 -1 -1</clus>
<clus scale="   90.138">  2  5  1 -1</clus>
<clus scale="   91.318">  7  8 -1 -1</clus>
<clus scale="   27.241">  1  5  2 -1</clus>
</clustering>
</event>
<event>
 9    1  0.1803370E-005  0.1501517E+03  0.7546771E-02  0.1200619E+00
          2   -1    0    0  502    0  0.00000000000E+00  0.00000000000E+00  0.12734985822E+03  0.12734985822E+03  0.00000000000E+00 0. -1.
         -2   -1    0    0    0  501 -0.00000000000E+00 -0.00000000000E+00 -0.68149116726E+03  0.68149116726E+03  0.00000000000E+00 0.  1.
         23    2    1    2    0    0 -0.11244026962E+03 -0.32670158493E+02 -0.60256223542E+03  0.62078557808E+03  0.92646278421E+02 0.  0.
         23    2    1    2    0    0  0.13004021485E+03  0.20413370585E+02  0.46167191388E+02  0.16649005283E+03  0.90886549896E+02 0.  0.
        -11    1    3    3    0    0 -0.58231164117E+01 -0.39864747026E+02 -0.12178100127E+03  0.12827205078E+03  0.00000000000E+00 0. -1.
         11    1    3    3    0    0 -0.10661715321E+03  0.71945885322E+01 -0.48078123415E+03  0.49251352730E+03  0.00000000000E+00 0.  1.
        -11    1    4    4    0    0  0.11090188093E+03  0.26971555164E+02  0.71033303744E+02  0.13443370940E+03  0.00000000000E+00 0. -1.
         11    1    4    4    0    0  0.19138333923E+02 -0.65581845788E+01 -0.24866112356E+02  0.32056343428E+02  0.00000000000E+00 0.  1.
         21    1    1    2  502  501 -0.17599945232E+02  0.12256787908E+02  0.22537349922E+01  0.21565394580E+02  0.00000000000E+00 0. -1.
<scales pt_clust_5="13000.00000" pt_clust_6="13000.00000" pt_clust_7="13000.00000" pt_clust_8="13000.00000" pt_clust_9="21.44731"></scales>
<clustering>
<clus scale="   21.447">  1  9  2 -1</clus>
<clus scale="   90.887">  7  8 -1 -1</clus>
<clus scale="   92.646">  5  6 -1 -1</clus>
<clus scale="  149.072">  1  7  2 -1</clus>
<clus scale="   21.447">  1  5  2 -1</clus>
</clustering>
</event>
<event>
 9    1  0.1803370E-005  0.1120100E+03  0.7546771E-02  0.1258541E+00
          1   -1    0    0  502    0  0.00000000000E+00  0.00000000000E+00  0.44334707824E+03  0.44334707824E+03  0.00000000000E+00 0. -1.
         -1   -1    0    0    0  501 -0.00000000000E+00 -0.00000000000E+00 -0.80130226302E+02  0.80130226302E+02  0.00000000000E+00 0.  1.
         23    2    1    2    0    0 -0.47547247161E+02  0.48381812797E+02 -0.17809731929E+02  0.11416053698E+03  0.90077195400E+02 0.  0.
         23    2    1    2    0    0  0.15876176918E+02 -0.66359553805E+02  0.24201220900E+03  0.26561133175E+03  0.85579360082E+02 0.  0.
        -13    1    4    4    0    0 -0.22971486867E+02  0.86365109337E+01  0.44975975298E+02  0.51235894488E+02  0.00000000000E+00 0.  1.
         13    1    4    4    0    0  0.38847663786E+02 -0.74996064739E+02  0.19703623371E+03  0.21437543726E+03  0.00000000000E+00 0. -1.
        -13    1    3    3    0    0  0.22742581676E+02  0.70234932812E+01 -0.22117514791E+02  0.32492136582E+02  0.00000000000E+00 0.  1.
         13    1    3    3    0    0 -0.70289828837E+02  0.41358319515E+02  0.43077828627E+01  0.81668400402E+02  0.00000000000E+00 0. -1.
         21    1    1    2  502  501  0.31671070243E+02  0.17977741009E+02  0.13901437486E+03  0.14370543581E+03  0.00000000000E+00 0. -1.
<scales pt_clust_5="13000.00000" pt_clust_6="13000.00000" pt_clust_7="13000.00000" pt_clust_8="13000.00000" pt_clust_9="36.41780"></scales>
<clustering>
<clus scale="   36.418">  1  9  2 -1</clus>
<clus scale="   85.579">  5  6 -1 -1</clus>
<clus scale="   90.077">  7  8 -1 -1</clus>
<clus scale="  108.426">  1  5  2 -1</clus>
<clus scale="   36.418">  1  5  2 -1</clus>
</clustering>
</event>
<event>
 9    1  0.1803370E-005  0.2197304E+03  0.7546771E-02  0.1156303E+00
          2   -1    0    0  502    0  0.00000000000E+00  0.00000000000E+00  0.72513259433E+03  0.72513259433E+03  0.00000000000E+00 0. -1.
         -2   -1    0    0    0  501 -0.00000000000E+00 -0.00000000000E+00 -0.13503226691E+03  0.13503226691E+03  0.00000000000E+00 0.  1.
         23    2    1    2    0    0  0.22691710025E+03  0.20448235666E+02  0.59314821399E+02  0.25329527653E+03  0.93438473607E+02 0.  0.
         23    2    1    2    0    0 -0.73123291481E+02 -0.57444725096E+02  0.30452343595E+03  0.33079749231E+03  0.89696965814E+02 0.  0.
        -13    1    3    3    0    0  0.59437553586E+01  0.22102035364E+02  0.16478206727E+02  0.28202118572E+02  0.00000000000E+00 0. -1.
         13    1    3    3    0    0  0.22097334489E+03 -0.16537996979E+01  0.42836614673E+02  0.22509315796E+03  0.00000000000E+00 0.  1.
        -13    1    4    4    0    0 -0.20090195031E+01 -0.47373138602E+02  0.63180594334E+02  0.78993910656E+02  0.00000000000E+00 0.  1.
         13    1    4    4    0    0 -0.71114271978E+02 -0.10071586494E+02  0.24134284161E+03  0.25180358165E+03  0.00000000000E+00 0. -1.
         21    1    1    2  502  501 -0.15379380877E+03  0.36996489430E+02  0.22626207008E+03  0.27607209240E+03  0.00000000000E+00 0. -1.
<scales pt_clust_5="13000.00000" pt_clust_6="13000.00000" pt_clust_7="13000.00000" pt_clust_8="13000.00000" pt_clust_9="198.87357"></scales>
<clustering>
<clus scale="   89.697">  7  8 -1 -1</clus>
<clus scale="   93.438">  5  6 -1 -1</clus>
<clus scale="  129.199">  1  7  2 -1</clus>
<clus scale="  198.874">  1  9  2 -1</clus>
<clus scale="  129.199">  1  5  2 -1</clus>
</clustering>
</event>
<event>
 9    1  0.1803370E-005  0.9434735E+02  0.7546771E-02  0.1293810E+00
         -1   -1    0    0    0  501 -0.00000000000E+00  0.00000000000E+00  0.53165086986E+03  0.53165086986E+03  0.00000000000E+00 0.  1.
          1   -1    0    0  502    0  0.00000000000E+00 -0.00000000000E+00 -0.49204180682E+02  0.49204180682E+02  0.00000000000E+00 0. -1.
         23    2    1    2    0    0  0.30207016709E+02  0.72715371216E+01  0.22998396157E+03  0.24905183775E+03  0.90381724899E+02 0.  0.
         23    2    1    2    0    0  0.42801631563E+02 -0.33376874090E+02  0.22555509184E+03  0.24973146246E+03  0.92437592446E+02 0.  0.
        -11    1    4    4    0    0  0.55585876526E+02 -0.56899321815E+02  0.15395991774E+03  0.17329448567E+03  0.00000000000E+00 0.  1.
         11    1    4    4    0    0 -0.12784244963E+02  0.23522447725E+02  0.71595174102E+02  0.76436976791E+02  0.00000000000E+00 0. -1.
        -13    1    3    3    0    0 -0.82577550431E+01  0.36935959309E+02  0.50486181168E+02  0.63097623547E+02  0.00000000000E+00 0. -1.
         13    1    3    3    0    0  0.38464771753E+02 -0.29664422188E+02  0.17949778040E+03  0.18595421420E+03  0.00000000000E+00 0.  1.
         21    1    1    2  502  501 -0.73008648273E+02  0.26105336968E+02  0.26907635768E+02  0.82071750337E+02  0.00000000000E+00 0. -1.
<scales pt_clust_5="13000.00000" pt_clust_6="13000.00000" pt_clust_7="13000.00000" pt_clust_8="13000.00000" pt_clust_9="77.53548"></scales>
<clustering>
<clus scale="   77.535">  2  9  1 -1</clus>
<clus scale="   90.382">  7  8 -1 -1</clus>
<clus scale="   92.334">  1  7  2 -1</clus>
<clus scale="   92.438">  5  6 -1 -1</clus>
<clus scale="   77.535">  2  5  1 -1</clus>
</clustering>
</event>
<event>
 9    1  0.1803370E-005  0.1857546E+03  0.7546771E-02  0.1167065E+00
          1   -1    0    0  502    0  0.00000000000E+00  0.00000000000E+00  0.24334963139E+03  0.24334963139E+03  0.00000000000E+00 0. -1.
         -1   -1    0    0    0  501 -0.00000000000E+00 -0.00000000000E+00 -0.41824846443E+03  0.41824846443E+03  0.00000000000E+00 0.  1.
         23    2    1    2    0    0  0.11670333366E+03  0.10280801288E+03 -0.32609825997E+03  0.38091801065E+03  0.12070335572E+03 0.  0.
         23    2    1    2    0    0 -0.93508241168E+02 -0.42541132695E+02  0.23458061711E+02  0.13754390683E+03  0.88399697455E+02 0.  0.
        -11    1    4    4    0    0 -0.76890411300E+02 -0.69297439560E+02  0.23046364060E+02  0.10604435570E+03  0.00000000000E+00 0. -1.
         11    1    4    4    0    0 -0.16617829868E+02  0.26756306865E+02  0.41169765093E+00  0.31499551132E+02  0.00000000000E+00 0.  1.
        -13    1    3    3    0    0  0.48213820694E+02  0.84107200914E+02 -0.27989990587E+03  0.29621369154E+03  0.00000000000E+00 0.  1.
         13    1    3    3    0    0  0.68489512961E+02  0.18700811965E+02 -0.46198354101E+02  0.84704319107E+02  0.00000000000E+00 0. -1.
         21    1    1    2  502  501 -0.23195092487E+02 -0.60266880185E+02  0.12774136522E+03  0.14313617834E+03  0.00000000000E+00 0.  1.
<scales pt_clust_5="13000.00000" pt_clust_6="13000.00000" pt_clust_7="13000.00000" pt_clust_8="13000.00000" pt_clust_9="64.57638"></scales>
<clustering>
<clus scale="   64.576">  1  9  2 -1</clus>
<clus scale="   88.400">  5  6 -1 -1</clus>
<clus scale="  120.703">  7  8 -1 -1</clus>
<clus scale="  166.583">  1  5  2 -1</clus>
<clus scale="   64.576">  1  5  2 -1</clus>
</clustering>
</event>
<event>
 9    1  0.1803370E-005  0.1107645E+03  0.7546771E-02  0.1262289E+00
         -1   -1    0    0    0  501 -0.00000000000E+00  0.00000000000E+00  0.37734130041E+03  0.37734130041E+03  0.00000000000E+00 0.  1.
          1   -1    0    0  502    0  0.00000000000E+00 -0.00000000000E+00 -0.11045663981E+03  0.11045663981E+03  0.00000000000E+00 0. -1.
         23    2    1    2    0    0 -0.62534548118E+02 -0.14615276615E+02  0.18049333599E+03  0.20870099096E+03  0.82789391044E+02 0.  0.
         23    2    1    2    0    0  0.63954490784E+02 -0.12477653268E+02  0.16306903860E+03  0.19776113359E+03  0.90951008161E+02 0.  0.
        -11    1    4    4    0    0  0.69187227647E+02 -0.41450217336E+02  0.13391616659E+03  0.15632828490E+03  0.00000000000E+00 0. -1.
         11    1    4    4    0    0 -0.52327368626E+01  0.28972564067E+02  0.29152872011E+02  0.41432848686E+02  0.00000000000E+00 0.  1.
        -13    1    3    3    0    0 -0.59569999408E+02  0.20551210346E+02  0.14746709130E+03  0.16036670507E+03  0.00000000000E+00 0.  1.
         13    1    3    3    0    0 -0.29645487101E+01 -0.35166486961E+02  0.33026244688E+02  0.48334285890E+02  0.00000000000E+00 0. -1.
         21    1    1    2  502  501 -0.14199426662E+01  0.27092929883E+02 -0.76677714001E+02  0.81335815673E+02  0.00000000000E+00 0. -1.
<scales pt_clust_5="13000.00000" pt_clust_6="13000.00000" pt_clust_7="13000.00000" pt_clust_8="13000.00000" pt_clust_9="27.13011"></scales>
<clustering>
<clus scale="   27.130">  2  9  1 -1</clus>
<clus scale="   82.789">  7  8 -1 -1</clus>
<clus scale="   90.951">  5  6 -1 -1</clus>
<clus scale="  104.167">  1  7  2 -1</clus>
<clus scale="   27.130">  2  5  1 -1</clus>
</clustering>
</event>
<event>
 9    1  0.1803370E-005  0.9207156E+02  0.7546771E-02  0.1299104E+00
         -1   -1    0    0    0  501 -0.00000000000E+00  0.00000000000E+00  0.20639969021E+03  0.20639969021E+03  0.00000000000E+00 0.  1.
          1   -1    0    0  502    0  0.00000000000E+00 -0.00000000000E+00 -0.94898326200E+02  0.94898326200E+02  0.00000000000E+00 0. -1.
         23    2    1    2    0    0 -0.68634835035E+01  0.22838654214E+02  0.13901570689E+03  0.16770586758E+03  0.90725849260E+02 0.  0.
         23    2    1    2    0    0 -0.11327288732E+02  0.82763810329E+01 -0.26949167539E+01  0.89830824280E+02  0.88687701861E+02 0.  0.
        -11    1    3    3    0    0  0.33861502197E+02  0.25706902309E+02  0.32132991909E+02  0.53291418881E+02  0.00000000000E+00 0.  1.
         11    1    3    3    0    0 -0.40724985701E+02 -0.28682480947E+01  0.10688271498E+03  0.11441444869E+03  0.00000000000E+00 0. -1.
        -11    1    4    4    0    0 -0.43926742270E+02  0.23089297582E+02 -0.15203116431E+02  0.51901918062E+02  0.00000000000E+00 0.  1.
         11    1    4    4    0    0  0.32599453538E+02 -0.14812916549E+02  0.12508199677E+02  0.37928906217E+02  0.00000000000E+00 0. -1.
         21    1    1    2  502  501  0.18190772235E+02 -0.31115035247E+02 -0.24819426134E+02  0.43761324552E+02  0.00000000000E+00 0. -1.
<scales pt_clust_5="13000.00000" pt_clust_6="13000.00000" pt_clust_7="13000.00000" pt_clust_8="13000.00000" pt_clust_9="36.04233"></scales>
<clustering>
<clus scale="   36.042">  2  9  1 -1</clus>
<clus scale="   88.688">  7  8 -1 -1</clus>
<clus scale="   90.064">  2  7  1 -1</clus>
<clus scale="   90.726">  5  6 -1 -1</clus>
<clus scale="   36.042">  2  5  1 -1</clus>
</clustering>
</event>
<event>
 9    1  0.1803370E-005  0.9904192E+02  0.7546771E-02  0.1287940E+00
         -1   -1    0    0    0  501 -0.00000000000E+00  0.00000000000E+00  0.58536902778E+03  0.58536902778E+03  0.00000000000E+00 0.  1.
          1   -1    0    0  502    0  0.00000000000E+00 -0.00000000000E+00 -0.58557860718E+02  0.58557860718E+02  0.00000000000E+00 0. -1.
         23    2    1    2    0    0 -0.54748796756E+01 -0.41709524107E+02  0.40547599972E+03  0.41629489751E+03  0.84385997892E+02 0.  0.
         23    2    1    2    0    0 -0.79890993035E+01 -0.67246487129E+01  0.14379472140E+03  0.17257221078E+03  0.94843025178E+02 0.  0.
        -11    1    3    3    0    0 -0.24905248763E+02 -0.60719862523E+02  0.31762493244E+03  0.32433435036E+03  0.00000000000E+00 0. -1.
         11    1    3    3    0    0  0.19430369088E+02  0.19010338417E+02  0.87851067283E+02  0.91960547151E+02  0.00000000000E+00 0.  1.
        -11    1    4    4    0    0 -0.42105465155E+02  0.20837652555E+02  0.10052739282E+03  0.11096321313E+03  0.00000000000E+00 0. -1.
         11    1    4    4    0    0  0.34116365852E+02 -0.27562301268E+02  0.43267328575E+02  0.61608997656E+02  0.00000000000E+00 0.  1.
         21    1    1    2  502  501  0.13463978979E+02  0.48434172819E+02 -0.22459554059E+02  0.55059780195E+02  0.00000000000E+00 0. -1.
<scales pt_clust_5="13000.00000" pt_clust_6="13000.00000" pt_clust_7="13000.00000" pt_clust_8="13000.00000" pt_clust_9="50.27075"></scales>
<clustering>
<clus scale="   50.271">  2  9  1 -1</clus>
<clus scale="   84.386">  5  6 -1 -1</clus>
<clus scale="   89.079">  1  5  2 -1</clus>
<clus scale="   94.843">  7  8 -1 -1</clus>
<clus scale="   50.271">  2  5  1 -1</clus>
</clustering>
</event>
<event>
 9    1  0.1803370E-005  0.1123678E+03  0.7546771E-02  0.1259690E+00
         -2   -1    0    0    0  501 -0.00000000000E+00  0.00000000000E+00  0.31900878130E+03  0.31900878130E+03  0.00000000000E+00 0.  1.
          2   -1    0    0  502    0  0.00000000000E+00 -0.00000000000E+00 -0.60355155681E+02  0.60355155681E+02  0.00000000000E+00 0. -1.
         23    2    1    2    0    0  0.72442376033E+02  0.28150172217E+02  0.16399028685E+03  0.19781463042E+03  0.78724099134E+02 0.  0.
         23    2    1    2    0    0 -0.48799026481E+02 -0.34980426423E+02  0.10938265196E+03  0.15287320970E+03  0.88321449688E+02 0.  0.
        -11    1    4    4    0    0 -0.36170612749E+02  0.23924758865E+02  0.64606041537E+02  0.77811618133E+02  0.00000000000E+00 0. -1.
         11    1    4    4    0    0 -0.12628413732E+02 -0.58905185288E+02  0.44776610427E+02  0.75061591567E+02  0.00000000000E+00 0.  1.
        -11    1    3    3    0    0  0.33328480507E+02  0.46933303345E+02  0.51471095356E+02  0.77219144213E+02  0.00000000000E+00 0. -1.
         11    1    3    3    0    0  0.39113895526E+02 -0.18783131129E+02  0.11251919149E+03  0.12059548620E+03  0.00000000000E+00 0.  1.
         21    1    1    2  502  501 -0.23643349552E+02  0.68302542063E+01 -0.14719313195E+02  0.28676096866E+02  0.00000000000E+00 0. -1.
<scales pt_clust_5="13000.00000" pt_clust_6="13000.00000" pt_clust_7="13000.00000" pt_clust_8="13000.00000" pt_clust_9="24.61017"></scales>
<clustering>
<clus scale="   24.610">  2  9  1 -1</clus>
<clus scale="   78.724">  7  8 -1 -1</clus>
<clus scale="   88.321">  5  6 -1 -1</clus>
<clus scale="  104.992">  1  7  2 -1</clus>
<clus scale="   24.610">  2  5  1 -1</clus>
</clustering>
</event>
<event>
 9    1  0.1803370E-005  0.1227722E+03  0.7546771E-02  0.1238597E+00
          1   -1    0    0  502    0  0.00000000000E+00  0.00000000000E+00  0.64922219583E+03  0.64922219583E+03  0.00000000000E+00 0. -1.
         -1   -1    0    0    0  501 -0.00000000000E+00 -0.00000000000E+00 -0.37559187225E+02  0.37559187225E+02  0.00000000000E+00 0.  1.
         23    2    1    2    0    0  0.11494985532E+02  0.80865886009E+02  0.13715333177E+03  0.18383467070E+03  0.91174138464E+02 0.  0.
         23    2    1    2    0    0  0.18954103187E+02 -0.84746698266E+02  0.29379360866E+03  0.31964230705E+03  0.91188042360E+02 0.  0.
        -11    1    4    4    0    0  0.41581475149E+02 -0.41874535655E+02  0.74428969606E+02  0.94985090032E+02  0.00000000000E+00 0.  1.
         11    1    4    4    0    0 -0.22627371962E+02 -0.42872162611E+02  0.21936463905E+03  0.22465721701E+03  0.00000000000E+00 0. -1.
        -13    1    3    3    0    0  0.13660532469E+02  0.43071042959E+02  0.39517153382E+01  0.45357920400E+02  0.00000000000E+00 0.  1.
         13    1    3    3    0    0 -0.21655469372E+01  0.37794843050E+02  0.13320161643E+03  0.13847675030E+03  0.00000000000E+00 0. -1.
         21    1    1    2  502  501 -0.30449088719E+02  0.38808122567E+01  0.18071606817E+03  0.18330440530E+03  0.00000000000E+00 0.  1.
<scales pt_clust_5="13000.00000" pt_clust_6="13000.00000" pt_clust_7="13000.00000" pt_clust_8="13000.00000" pt_clust_9="30.69540"></scales>
<clustering>
<clus scale="   30.695">  1  9  2 -1</clus>
<clus scale="   91.174">  7  8 -1 -1</clus>
<clus scale="   91.188">  5  6 -1 -1</clus>
<clus scale="  122.762">  2  7  1 -1</clus>
<clus scale="   30.695">  1  5  2 -1</clus>
</clustering>
</event>
<event>
 9    1  0.1803370E-005  0.1425243E+03  0.7546771E-02  0.1224186E+00
          1   -1    0    0  502    0  0.00000000000E+00  0.00000000000E+00  0.63783837476E+03  0.63783837476E+03  0.00000000000E+00 0. -1.
         -1   -1    0    0    0  501 -0.00000000000E+00 -0.00000000000E+00 -0.19193936702E+03  0.19193936702E+03  0.00000000000E+00 0.  1.
         23    2    1    2    0    0  0.50435783658E+02  0.14479951396E+02  0.55755490289E+01  0.10574076208E+03  0.91632880300E+02 0.  0.
         23    2    1    2    0    0  0.54840297770E+02  0.23277184125E+02 -0.11461195650E+03  0.15794337467E+03  0.90889622449E+02 0.  0.
        -13    1    4    4    0    0 -0.13469004092E+02  0.31775322159E+02 -0.16922509112E+02  0.38437696135E+02  0.00000000000E+00 0. -1.
         13    1    4    4    0    0  0.68309301862E+02 -0.84981380334E+01 -0.97689447392E+02  0.11950567854E+03  0.00000000000E+00 0.  1.
        -13    1    3    3    0    0  0.66891087774E+02 -0.70358928743E+01 -0.18222074513E+02  0.69684757384E+02  0.00000000000E+00 0. -1.
         13    1    3    3    0    0 -0.16455304116E+02  0.21515844270E+02  0.23797623542E+02  0.36056004693E+02  0.00000000000E+00 0.  1.
         21    1    1    2  502  501 -0.10527608143E+03 -0.37757135522E+02  0.55493541522E+03  0.56609360504E+03  0.00000000000E+00 0. -1.
<scales pt_clust_5="13000.00000" pt_clust_6="13000.00000" pt_clust_7="13000.00000" pt_clust_8="13000.00000" pt_clust_9="109.78278"></scales>
<clustering>
<clus scale="   90.890">  5  6 -1 -1</clus>
<clus scale="   91.633">  7  8 -1 -1</clus>
<clus scale="  105.594">  2  7  1 -1</clus>
<clus scale="  109.783">  1  9  2 -1</clus>
<clus scale="  109.783">  1  5  2 -1</clus>
</clustering>
</event>
<event>
 9    1  0.1803370E-005  0.2928058E+03  0.7546771E-02  0.1088899E+00
          1   -1    0    0  502    0  0.00000000000E+00  0.00000000000E+00  0.29281828248E+03  0.29281828248E+03  0.00000000000E+00 0. -1.
         -1   -1    0    0    0  501 -0.00000000000E+00 -0.00000000000E+00 -0.32091256139E+03  0.32091256139E+03  0.00000000000E+00 0.  1.
         23    2    1    2    0    0 -0.20707083974E+03 -0.20125388500E+03 -0.33370288029E+02  0.30514108248E+03  0.92822654554E+02 0.  0.
         23    2    1    2    0    0  0.19494837537E+03  0.18179000832E+03 -0.75553806164E+01  0.28231351355E+03  0.92689589326E+02 0.  0.
        -11    1    4    4    0    0  0.34944291314E+02  0.67799452577E+02  0.30603497402E+02  0.82185420352E+02  0.00000000000E+00 0. -1.
         11    1    4    4    0    0  0.16000408406E+03  0.11399055574E+03 -0.38158878018E+02  0.20012809320E+03  0.00000000000E+00 0.  1.
        -13    1    3    3    0    0 -0.40109623592E+02 -0.22575912593E+02  0.26857309604E+02  0.53289481263E+02  0.00000000000E+00 0. -1.
         13    1    3    3    0    0 -0.16696121615E+03 -0.17867797241E+03 -0.60227597633E+02  0.25185160122E+03  0.00000000000E+00 0.  1.
         21    1    1    2  502  501  0.12122464365E+02  0.19463876680E+02  0.12831389738E+02  0.26276247836E+02  0.00000000000E+00 0. -1.
<scales pt_clust_5="13000.00000" pt_clust_6="13000.00000" pt_clust_7="13000.00000" pt_clust_8="13000.00000" pt_clust_9="22.93026"></scales>
<clustering>
<clus scale="   22.930">  1  9  2 -1</clus>
<clus scale="   92.690">  5  6 -1 -1</clus>
<clus scale="   92.823">  7  8 -1 -1</clus>
<clus scale="  292.764">  1  5  2 -1</clus>
<clus scale="   22.930">  1  5  2 -1</clus>
</clustering>
</event>
<event>
 9    1  0.1803370E-005  0.1239257E+03  0.7546771E-02  0.1237416E+00
         -2   -1    0    0    0  501 -0.00000000000E+00  0.00000000000E+00  0.79522693895E+02  0.79522693895E+02  0.00000000000E+00 0.  1.
          2   -1    0    0  502    0  0.00000000000E+00 -0.00000000000E+00 -0.57384736171E+03  0.57384736171E+03  0.00000000000E+00 0. -1.
         23    2    1    2    0    0 -0.44932258338E+02 -0.47046025393E+02 -0.64199875201E+02  0.12935573833E+03  0.91537133004E+02 0.  0.
         23    2    1    2    0    0  0.23125013624E+02  0.10369669562E+03 -0.68576265517E+02  0.15740527237E+03  0.93733369944E+02 0.  0.
        -11    1    4    4    0    0  0.21493956863E+02  0.18488335683E+02  0.19838741776E+02  0.34603242814E+02  0.00000000000E+00 0.  1.
         11    1    4    4    0    0  0.16310567605E+01  0.85208359934E+02 -0.88415007293E+02  0.12280202956E+03  0.00000000000E+00 0. -1.
        -11    1    3    3    0    0 -0.25599524799E+02  0.20864255846E+02  0.12919386616E+01  0.33050294211E+02  0.00000000000E+00 0. -1.
         11    1    3    3    0    0 -0.19332733539E+02 -0.67910281239E+02 -0.65491813863E+02  0.96305444120E+02  0.00000000000E+00 0.  1.
         21    1    1    2  502  501  0.21807244714E+02 -0.56650670223E+02 -0.36154852709E+03  0.36660904490E+03  0.00000000000E+00 0.  1.
<scales pt_clust_5="13000.00000" pt_clust_6="13000.00000" pt_clust_7="13000.00000" pt_clust_8="13000.00000" pt_clust_9="60.70300"></scales>
<clustering>
<clus scale="   60.703">  2  9  1 -1</clus>
<clus scale="   91.537">  7  8 -1 -1</clus>
<clus scale="   93.733">  5  6 -1 -1</clus>
<clus scale="  122.273">  1  7  2 -1</clus>
<clus scale="   60.703">  2  5  1 -1</clus>
</clustering>
</event>
<event>
 9    1  0.1803370E-005  0.1414128E+03  0.7546771E-02  0.1212889E+00
         -2   -1    0    0    0  501 -0.00000000000E+00  0.00000000000E+00  0.26548959797E+02  0.26548959797E+02  0.00000000000E+00 0.  1.
          2   -1    0    0  502    0  0.00000000000E+00 -0.00000000000E+00 -0.89240876556E+03  0.89240876556E+03  0.00000000000E+00 0. -1.
         23    2    1    2    0    0 -0.40270033462E+02 -0.87056239270E+02 -0.30711237253E+03  0.33280892990E+03  0.85107638139E+02 0.  0.
         23    2    1    2    0    0  0.63564053134E+02  0.99236783776E+02 -0.49860445910E+03  0.52051226329E+03  0.91860119191E+02 0.  0.
        -11    1    3    3    0    0 -0.99824672122E+01 -0.55570439524E+02 -0.26891087147E+03  0.27477405299E+03  0.00000000000E+00 0. -1.
         11    1    3    3    0    0 -0.30287566249E+02 -0.31485799745E+02 -0.38201501057E+02  0.58034876909E+02  0.00000000000E+00 0.  1.
        -13    1    4    4    0    0  0.63142808006E+02  0.28688300259E+02 -0.33882801223E+03  0.34585322703E+03  0.00000000000E+00 0. -1.
         13    1    4    4    0    0  0.42124512889E+00  0.70548483517E+02 -0.15977644687E+03  0.17465903626E+03  0.00000000000E+00 0.  1.
         21    1    1    2  502  501 -0.23294019673E+02 -0.12180544506E+02 -0.60142974131E+02  0.65636532163E+02  0.00000000000E+00 0. -1.
<scales pt_clust_5="13000.00000" pt_clust_6="13000.00000" pt_clust_7="13000.00000" pt_clust_8="13000.00000" pt_clust_9="26.28644"></scales>
<clustering>
<clus scale="   26.286">  1  9  2 -1</clus>
<clus scale="   85.108">  5  6 -1 -1</clus>
<clus scale="   91.860">  7  8 -1 -1</clus>
<clus scale="  137.123">  1  5  2 -1</clus>
<clus scale="  141.413">  2  5  1 -1</clus>
</clustering>
</event>
<event>
 9    1  0.1803370E-005  0.1691957E+03  0.7546771E-02  0.1179012E+00
         -1   -1    0    0    0  501 -0.00000000000E+00  0.00000000000E+00  0.53803347099E+03  0.53803347099E+03  0.00000000000E+00 0.  1.
          1   -1    0    0  502    0  0.00000000000E+00 -0.00000000000E+00 -0.66026847268E+02  0.66026847268E+02  0.00000000000E+00 0. -1.
         23    2    1    2    0    0 -0.10085451219E+02  0.13389754272E+03  0.27050042684E+03  0.31524640160E+03  0.90440834409E+02 0.  0.
         23    2    1    2    0    0  0.29108950256E+02 -0.15109613838E+03  0.18719697992E+03  0.25944660663E+03  0.92695514356E+02 0.  0.
        -13    1    4    4    0    0  0.55094402421E+02 -0.47861202409E+02  0.70120864865E+02  0.10120782363E+03  0.00000000000E+00 0.  1.
         13    1    4    4    0    0 -0.25985452165E+02 -0.10323493597E+03  0.11707611505E+03  0.15823878300E+03  0.00000000000E+00 0. -1.
        -13    1    3    3    0    0  0.14106857743E+02  0.56802333517E+02  0.19874136648E+03  0.20718020967E+03  0.00000000000E+00 0. -1.
         13    1    3    3    0    0 -0.24192308962E+02  0.77095209203E+02  0.71759060366E+02  0.10806619194E+03  0.00000000000E+00 0.  1.
         21    1    1    2  502  501 -0.19023499038E+02  0.17198595660E+02  0.14309216965E+02  0.29367310031E+02  0.00000000000E+00 0. -1.
<scales pt_clust_5="13000.00000" pt_clust_6="13000.00000" pt_clust_7="13000.00000" pt_clust_8="13000.00000" pt_clust_9="25.64537"></scales>
<clustering>
<clus scale="   25.645">  2  9  1 -1</clus>
<clus scale="   90.441">  7  8 -1 -1</clus>
<clus scale="   92.696">  5  6 -1 -1</clus>
<clus scale="  167.971">  1  7  2 -1</clus>
<clus scale="   25.645">  2  5  1 -1</clus>
</clustering>
</event>
<event>
 9    1  0.1803370E-005  0.1003267E+03  0.7546771E-02  0.1280279E+00
          1   -1    0    0  502    0  0.00000000000E+00  0.00000000000E+00  0.45432178092E+03  0.45432178092E+03  0.00000000000E+00 0. -1.
         -1   -1    0    0    0  501 -0.00000000000E+00 -0.00000000000E+00 -0.17263087537E+03  0.17263087537E+03  0.00000000000E+00 0.  1.
         23    2    1    2    0    0 -0.12581583279E+02  0.35980634422E+02 -0.14180257448E+03  0.17274905319E+03  0.91001994248E+02 0.  0.
         23    2    1    2    0    0  0.41542539613E+02 -0.40612845826E+02  0.19189846925E+03  0.22075887004E+03  0.92381114724E+02 0.  0.
        -11    1    3    3    0    0 -0.49748950916E+02  0.24490526324E+02 -0.57383177405E+02  0.79797074169E+02  0.00000000000E+00 0. -1.
         11    1    3    3    0    0  0.37167367637E+02  0.11490108098E+02 -0.84419397074E+02  0.92951979019E+02  0.00000000000E+00 0.  1.
        -13    1    4    4    0    0  0.54287038539E+02 -0.16524743086E+01  0.52804749024E+02  0.75750608870E+02  0.00000000000E+00 0.  1.
         13    1    4    4    0    0 -0.12744498926E+02 -0.38960371518E+02  0.13909372022E+03  0.14500826117E+03  0.00000000000E+00 0. -1.
         21    1    1    2  502  501 -0.28960956334E+02  0.46322114041E+01  0.23159501078E+03  0.23344473306E+03  0.00000000000E+00 0. -1.
<scales pt_clust_5="13000.00000" pt_clust_6="13000.00000" pt_clust_7="13000.00000" pt_clust_8="13000.00000" pt_clust_9="29.32907"></scales>
<clustering>
<clus scale="   29.329">  1  9  2 -1</clus>
<clus scale="   91.002">  5  6 -1 -1</clus>
<clus scale="   92.381">  7  8 -1 -1</clus>
<clus scale="   99.058">  2  5  1 -1</clus>
<clus scale="   29.329">  1  5  2 -1</clus>
</clustering>
</event>
<event>
 9    1  0.1803370E-005  0.1040815E+03  0.7546771E-02  0.1271954E+00
          1   -1    0    0  502    0  0.00000000000E+00  0.00000000000E+00  0.41914360581E+03  0.41914360581E+03  0.00000000000E+00 0. -1.
         -1   -1    0    0    0  501 -0.00000000000E+00 -0.00000000000E+00 -0.60947616483E+02  0.60947616483E+02  0.00000000000E+00 0.  1.
         23    2    1    2    0    0 -0.37546590535E+02  0.35959645283E+02  0.24658603138E+02  0.11097228713E+03  0.94889194604E+02 0.  0.
         23    2    1    2    0    0 -0.18132153086E+02 -0.28387372646E+02  0.23567371526E+03  0.25627054177E+03  0.94857116822E+02 0.  0.
        -13    1    3    3    0    0  0.20530032971E+02  0.24200074671E+01  0.37375658375E+02  0.42711573711E+02  0.00000000000E+00 0. -1.
         13    1    3    3    0    0 -0.58076623506E+02  0.33539637816E+02 -0.12717055237E+02  0.68260713420E+02  0.00000000000E+00 0.  1.
        -13    1    4    4    0    0  0.29741176452E+02 -0.41016199109E+02  0.13174256913E+03  0.14114875375E+03  0.00000000000E+00 0. -1.
         13    1    4    4    0    0 -0.47873329537E+02  0.12628826463E+02  0.10393114613E+03  0.11512178801E+03  0.00000000000E+00 0.  1.
         21    1    1    2  502  501  0.55678743621E+02 -0.75722726374E+01  0.97863670931E+02  0.11284839340E+03  0.00000000000E+00 0. -1.
<scales pt_clust_5="13000.00000" pt_clust_6="13000.00000" pt_clust_7="13000.00000" pt_clust_8="13000.00000" pt_clust_9="56.19130"></scales>
<clustering>
<clus scale="   56.191">  1  9  2 -1</clus>
<clus scale="   94.857">  7  8 -1 -1</clus>
<clus scale="   94.889">  5  6 -1 -1</clus>
<clus scale="  104.052">  1  7  2 -1</clus>
<clus scale="   56.191">  1  5  2 -1</clus>
</clustering>
</event>
<event>
 9    1  0.1803370E-005  0.1461394E+03  0.7546771E-02  0.1224429E+00
          1   -1    0    0  502    0  0.00000000000E+00  0.00000000000E+00  0.14706895358E+03  0.14706895358E+03  0.00000000000E+00 0. -1.
         -1   -1    0    0    0  501 -0.00000000000E+00 -0.00000000000E+00 -0.26210019796E+03  0.26210019796E+03  0.00000000000E+00 0.  1.
         23    2    1    2    0    0  0.80944513336E+02  0.72786543176E+02 -0.39924341858E+02  0.14626567491E+03  0.89161648017E+02 0.  0.
         23    2    1    2    0    0 -0.11786992740E+02  0.25634491463E+02  0.31245905810E+02  0.10234077064E+03  0.93280578655E+02 0.  0.
        -11    1    3    3    0    0 -0.12297375776E+02  0.39320264717E+02 -0.17088960883E+02  0.44602031932E+02  0.00000000000E+00 0. -1.
         11    1    3    3    0    0  0.93241889112E+02  0.33466278459E+02 -0.22835380975E+02  0.10166364298E+03  0.00000000000E+00 0.  1.
        -13    1    4    4    0    0 -0.17353732561E+02 -0.28811570180E+02 -0.85116097029E+01  0.34694468000E+02  0.00000000000E+00 0.  1.
         13    1    4    4    0    0  0.55667398213E+01  0.54446061643E+02  0.39757515513E+02  0.67646302637E+02  0.00000000000E+00 0. -1.
         21    1    1    2  502  501 -0.69157520596E+02 -0.98421034639E+02 -0.10635280833E+03  0.16056270599E+03  0.00000000000E+00 0.  1.
<scales pt_clust_5="13000.00000" pt_clust_6="13000.00000" pt_clust_7="13000.00000" pt_clust_8="13000.00000" pt_clust_9="115.78833"></scales>
<clustering>
<clus scale="   89.162">  5  6 -1 -1</clus>
<clus scale="   93.281">  7  8 -1 -1</clus>
<clus scale="   97.454">  1  7  2 -1</clus>
<clus scale="  115.788">  2  9  1 -1</clus>
<clus scale="   97.454">  1  5  2 -1</clus>
</clustering>
</event>
<event>
 9    1  0.1803370E-005  0.1025599E+03  0.7546771E-02  0.1275251E+00
          1   -1    0    0  502    0  0.00000000000E+00  0.00000000000E+00  0.38663401599E+03  0.38663401599E+03  0.00000000000E+00 0. -1.
         -1   -1    0    0    0  501 -0.00000000000E+00 -0.00000000000E+00 -0.10010767527E+03  0.10010767527E+03  0.00000000000E+00 0.  1.
         23    2    1    2    0    0 -0.43730912036E+02 -0.17624376993E+02 -0.59892480614E+02  0.11921848136E+03  0.91667473682E+02 0.  0.
         23    2    1    2    0    0  0.26188997398E+02  0.29649054797E+02  0.25508212700E+03  0.27374313004E+03  0.91123431095E+02 0.  0.
        -13    1    4    4    0    0  0.28759074878E+02  0.54643862390E+02  0.23036342496E+03  0.23849600341E+03  0.00000000000E+00 0. -1.
         13    1    4    4    0    0 -0.25700774802E+01 -0.24994807594E+02  0.24718702038E+02  0.35247126625E+02  0.00000000000E+00 0.  1.
        -13    1    3    3    0    0  0.25532109707E+02 -0.16961185851E+02 -0.32660285195E+02  0.44791346046E+02  0.00000000000E+00 0. -1.
         13    1    3    3    0    0 -0.69263021743E+02 -0.66319114196E+00 -0.27232195419E+02  0.74427135312E+02  0.00000000000E+00 0.  1.
         21    1    1    2  502  501  0.17541914638E+02 -0.12024677804E+02  0.91336694347E+02  0.93780079866E+02  0.00000000000E+00 0. -1.
<scales pt_clust_5="13000.00000" pt_clust_6="13000.00000" pt_clust_7="13000.00000" pt_clust_8="13000.00000" pt_clust_9="21.26762"></scales>
<clustering>
<clus scale="   21.268">  1  9  2 -1</clus>
<clus scale="   91.123">  5  6 -1 -1</clus>
<clus scale="   91.667">  7  8 -1 -1</clus>
<clus scale="  102.074">  1  5  2 -1</clus>
<clus scale="   21.268">  1  5  2 -1</clus>
</clustering>
</event>
<event>
 9    1  0.1803370E-005  0.3232751E+03  0.7546771E-02  0.1100851E+00
          2   -1    0    0  502    0  0.00000000000E+00  0.00000000000E+00  0.17290190123E+04  0.17290190123E+04  0.00000000000E+00 0. -1.
         -2   -1    0    0    0  501 -0.00000000000E+00 -0.00000000000E+00 -0.18244112078E+03  0.18244112078E+03  0.00000000000E+00 0.  1.
         23    2    1    2    0    0 -0.13067394133E+03  0.77288172692E+01  0.16435935814E+02  0.15990594556E+03  0.90356836381E+02 0.  0.
         23    2    1    2    0    0  0.29261343784E+03 -0.24455803756E+03  0.33339273470E+03  0.52089534849E+03  0.12144954009E+03 0.  0.
        -11    1    3    3    0    0 -0.10113839231E+03  0.10970432369E+02 -0.28849321960E+02  0.10574312348E+03  0.00000000000E+00 0.  1.
         11    1    3    3    0    0 -0.29535549020E+02 -0.32416151002E+01  0.45285257774E+02  0.54162822083E+02  0.00000000000E+00 0. -1.
        -13    1    4    4    0    0  0.49458109392E+02 -0.33070995327E+02  0.12129712225E+03  0.13510287629E+03  0.00000000000E+00 0. -1.
         13    1    4    4    0    0  0.24315532844E+03 -0.21148704223E+03  0.21209561246E+03  0.38579247220E+03  0.00000000000E+00 0.  1.
         21    1    1    2  502  501 -0.16193949651E+03  0.23682922029E+03  0.11967492210E+04  0.12306588390E+04  0.00000000000E+00 0. -1.
<scales pt_clust_5="13000.00000" pt_clust_6="13000.00000" pt_clust_7="13000.00000" pt_clust_8="13000.00000" pt_clust_9="299.59443"></scales>
<clustering>
<clus scale="   90.357">  5  6 -1 -1</clus>
<clus scale="  121.450">  7  8 -1 -1</clus>
<clus scale="  159.059">  2  5  1 -1</clus>
<clus scale="  299.594">  1  9  2 -1</clus>
<clus scale="  299.594">  1  5  2 -1</clus>
</clustering>
</event>
<event>
 9    1  0.1803370E-005  0.1386433E+03  0.7546771E-02  0.1215337E+00
          1   -1    0    0  502    0  0.00000000000E+00  0.00000000000E+00  0.43383009202E+03  0.43383009202E+03  0.00000000000E+00 0. -1.
         -1   -1    0    0    0  501 -0.00000000000E+00 -0.00000000000E+00 -0.13059233499E+03  0.13059233499E+03  0.00000000000E+00 0.  1.
         23    2    1    2    0    0 -0.67198535463E+02  0.84982180667E+02 -0.40714794113E+02  0.14657032441E+03  0.89930814182E+02 0.  0.
         23    2    1    2    0    0 -0.12741894332E+02 -0.11402953497E+03  0.26017898983E+03  0.29846939580E+03  0.90696101153E+02 0.  0.
        -13    1    3    3    0    0 -0.82373328224E+02  0.60205971078E+02 -0.53060231934E+02  0.11500222767E+03  0.00000000000E+00 0.  1.
         13    1    3    3    0    0  0.15174792762E+02  0.24776209589E+02  0.12345437821E+02  0.31568096743E+02  0.00000000000E+00 0. -1.
        -13    1    4    4    0    0  0.20064729721E+02  0.36050281122E+01  0.17804268000E+02  0.27066244023E+02  0.00000000000E+00 0.  1.
         13    1    4    4    0    0 -0.32806624053E+02 -0.11763456308E+03  0.24237472183E+03  0.27140315178E+03  0.00000000000E+00 0. -1.
         21    1    1    2  502  501  0.79940429794E+02  0.29047354306E+02  0.83773561311E+02  0.11938270680E+03  0.00000000000E+00 0. -1.
<scales pt_clust_5="13000.00000" pt_clust_6="13000.00000" pt_clust_7="13000.00000" pt_clust_8="13000.00000" pt_clust_9="85.05422"></scales>
<clustering>
<clus scale="   85.054">  1  9  2 -1</clus>
<clus scale="   89.931">  5  6 -1 -1</clus>
<clus scale="   90.696">  7  8 -1 -1</clus>
<clus scale="  138.144">  2  5  1 -1</clus>
<clus scale="   85.054">  1  5  2 -1</clus>
</clustering>
</event>
<event>
 9    1  0.1803370E-005  0.9250018E+02  0.7546771E-02  0.1298969E+00
          2   -1    0    0  502    0  0.00000000000E+00  0.00000000000E+00  0.28148686907E+03  0.28148686907E+03  0.00000000000E+00 0. -1.
         -2   -1    0    0    0  501 -0.00000000000E+00 -0.00000000000E+00 -0.63511802573E+02  0.63511802573E+02  0.00000000000E+00 0.  1.
         23    2    1    2    0    0  0.36024756007E+02 -0.77068588916E+01  0.19290891000E+02  0.96279288370E+02  0.86835385496E+02 0.  0.
         23    2    1    2    0    0  0.18026279598E+02 -0.93102283391E+01  0.11523970446E+03  0.14785276117E+03  0.90380431477E+02 0.  0.
        -11    1    4    4    0    0 -0.22899288008E+02 -0.34481027155E+02  0.34436687339E+02  0.53844257446E+02  0.00000000000E+00 0. -1.
         11    1    4    4    0    0  0.40925567606E+02  0.25170798816E+02  0.80803017116E+02  0.94008503722E+02  0.00000000000E+00 0.  1.
        -13    1    3    3    0    0 -0.24158073004E+02  0.16239800128E+02  0.16886913704E+01  0.29158108272E+02  0.00000000000E+00 0. -1.
         13    1    3    3    0    0  0.60182829011E+02 -0.23946659020E+02  0.17602199630E+02  0.67121180098E+02  0.00000000000E+00 0.  1.
         21    1    1    2  502  501 -0.54051035605E+02  0.17017087231E+02  0.83444471042E+02  0.10086662211E+03  0.00000000000E+00 0. -1.
<scales pt_clust_5="13000.00000" pt_clust_6="13000.00000" pt_clust_7="13000.00000" pt_clust_8="13000.00000" pt_clust_9="56.66653"></scales>
<clustering>
<clus scale="   56.667">  1  9  2 -1</clus>
<clus scale="   86.835">  7  8 -1 -1</clus>
<clus scale="   89.040">  2  7  1 -1</clus>
<clus scale="   90.380">  5  6 -1 -1</clus>
<clus scale="   56.667">  1  5  2 -1</clus>
</clustering>
</event>
<event>
 9    1  0.1803370E-005  0.1163750E+03  0.7546771E-02  0.1249403E+00
          1   -1    0    0  502    0  0.00000000000E+00  0.00000000000E+00  0.86006621480E+02  0.86006621480E+02  0.00000000000E+00 0. -1.
         -1   -1    0    0    0  501 -0.00000000000E+00 -0.00000000000E+00 -0.32125545197E+03  0.32125545197E+03  0.00000000000E+00 0.  1.
         23    2    1    2    0    0  0.74486909747E+02  0.11952176507E+02 -0.24547921618E+03  0.27212430892E+03  0.90002442625E+02 0.  0.
         23    2    1    2    0    0 -0.67586325932E+02  0.84550470022E+01  0.14048213730E+02  0.11325972442E+03  0.89392469442E+02 0.  0.
        -13    1    3    3    0    0  0.90903401302E+02  0.26764913656E+02 -0.18783710815E+03  0.21038671101E+03  0.00000000000E+00 0.  1.
         13    1    3    3    0    0 -0.16416491555E+02 -0.14812737149E+02 -0.57642108032E+02  0.61737597906E+02  0.00000000000E+00 0. -1.
        -13    1    4    4    0    0 -0.61376301448E+02  0.29053465493E+02  0.40575746002E+02  0.79104648411E+02  0.00000000000E+00 0. -1.
         13    1    4    4    0    0 -0.62100244840E+01 -0.20598418491E+02 -0.26527532272E+02  0.34155076005E+02  0.00000000000E+00 0.  1.
         21    1    1    2  502  501 -0.69005838142E+01 -0.20407223509E+02 -0.38178280329E+01  0.21878040114E+02  0.00000000000E+00 0. -1.
<scales pt_clust_5="13000.00000" pt_clust_6="13000.00000" pt_clust_7="13000.00000" pt_clust_8="13000.00000" pt_clust_9="21.54235"></scales>
<clustering>
<clus scale="   21.542">  1  9  2 -1</clus>
<clus scale="   89.392">  7  8 -1 -1</clus>
<clus scale="   90.002">  5  6 -1 -1</clus>
<clus scale="  115.904">  1  7  2 -1</clus>
<clus scale="   21.542">  1  5  2 -1</clus>
</clustering>
</event>
<event>
 9    1  0.1803370E-005  0.2032881E+03  0.7546771E-02  0.1147031E+00
          1   -1    0    0  502    0  0.00000000000E+00  0.00000000000E+00  0.51115569974E+03  0.51115569974E+03  0.00000000000E+00 0. -1.
         -1   -1    0    0    0  501 -0.00000000000E+00 -0.00000000000E+00 -0.22677881339E+03  0.22677881339E+03  0.00000000000E+00 0.  1.
         23    2    1    2    0    0 -0.15303499635E+03  0.97061338424E+02 -0.14179534441E+03  0.24715740442E+03  0.90223330349E+02 0.  0.
         23    2    1    2    0    0  0.17376493462E+03 -0.76615846951E+02  0.39832266515E+03  0.45048633102E+03  0.90624215067E+02 0.  0.
        -11    1    3    3    0    0 -0.12460014761E+02 -0.15852188629E+02 -0.25868850412E+02  0.32798494993E+02  0.00000000000E+00 0. -1.
         11    1    3    3    0    0 -0.14057498159E+03  0.11291352705E+03 -0.11592649400E+03  0.21435890943E+03  0.00000000000E+00 0.  1.
        -13    1    4    4    0    0  0.26938532387E+02 -0.55885101134E+02  0.12388405354E+03  0.13854994687E+03  0.00000000000E+00 0.  1.
         13    1    4    4    0    0  0.14682640224E+03 -0.20730745817E+02  0.27443861161E+03  0.31193638416E+03  0.00000000000E+00 0. -1.
         21    1    1    2  502  501 -0.20729938273E+02 -0.20445491473E+02  0.27849565607E+02  0.40290777690E+02  0.00000000000E+00 0. -1.
<scales pt_clust_5="13000.00000" pt_clust_6="13000.00000" pt_clust_7="13000.00000" pt_clust_8="13000.00000" pt_clust_9="29.11612"></scales>
<clustering>
<clus scale="   29.116">  1  9  2 -1</clus>
<clus scale="   90.223">  5  6 -1 -1</clus>
<clus scale="   90.624">  7  8 -1 -1</clus>
<clus scale="  203.110">  2  5  1 -1</clus>
<clus scale="   29.116">  1  5  2 -1</clus>
</clustering>
</event>
<event>
 9    1  0.1803370E-005  0.1123772E+03  0.7546771E-02  0.1258407E+00
          1   -1    0    0  502    0  0.00000000000E+00  0.00000000000E+00  0.89434726009E+02  0.89434726009E+02  0.00000000000E+00 0. -1.
         -1   -1    0    0    0  501 -0.00000000000E+00 -0.00000000000E+00 -0.47640653955E+03  0.47640653955E+03  0.00000000000E+00 0.  1.
         23    2    1    2    0    0  0.57137459715E+02  0.17667158032E+01 -0.40629905067E+03  0.42176530593E+03  0.97669054100E+02 0.  0.
         23    2    1    2    0    0 -0.43864787084E+02  0.30606833508E+02  0.63996907851E+01  0.10677539678E+03  0.92190734417E+02 0.  0.
        -11    1    3    3    0    0  0.32091647636E+02 -0.41040866172E+02 -0.11468495593E+03  0.12596374740E+03  0.00000000000E+00 0. -1.
         11    1    3    3    0    0  0.25045812079E+02  0.42807581975E+02 -0.29161409474E+03  0.29580155853E+03  0.00000000000E+00 0.  1.
        -13    1    4    4    0    0 -0.53467493377E+02 -0.98841173167E+01  0.26584477091E+02  0.60524400413E+02  0.00000000000E+00 0. -1.
         13    1    4    4    0    0  0.96027062931E+01  0.40490950825E+02 -0.20184786306E+02  0.46250996368E+02  0.00000000000E+00 0.  1.
         21    1    1    2  502  501 -0.13272672632E+02 -0.32373549311E+02  0.12927546344E+02  0.37300562841E+02  0.00000000000E+00 0. -1.
<scales pt_clust_5="13000.00000" pt_clust_6="13000.00000" pt_clust_7="13000.00000" pt_clust_8="13000.00000" pt_clust_9="34.98872"></scales>
<clustering>
<clus scale="   34.989">  1  9  2 -1</clus>
<clus scale="   92.191">  7  8 -1 -1</clus>
<clus scale="   97.669">  5  6 -1 -1</clus>
<clus scale="  107.650">  1  7  2 -1</clus>
<clus scale="   34.989">  1  5  2 -1</clus>
</clustering>
</event>
<event>
 9    1  0.1803370E-005  0.1372021E+03  0.7546771E-02  0.1218261E+00
         -1   -1    0    0    0  501 -0.00000000000E+00  0.00000000000E+00  0.67259555944E+02  0.67259555944E+02  0.00000000000E+00 0.  1.
          1   -1    0    0  502    0  0.00000000000E+00 -0.00000000000E+00 -0.81777550104E+03  0.81777550104E+03  0.00000000000E+00 0. -1.
         23    2    1    2    0    0 -0.17742175137E+02 -0.86371240006E+02 -0.91677062305E+02  0.14986849468E+03  0.79253429361E+02 0.  0.
         23    2    1    2    0    0  0.38711909592E+02  0.14511232391E+03 -0.15675942938E+03  0.22922780886E+03  0.73591243783E+02 0.  0.
        -11    1    3    3    0    0  0.84622014438E+01 -0.76216368048E+02 -0.94413407129E+02  0.12163237668E+03  0.00000000000E+00 0.  1.
         11    1    3    3    0    0 -0.26204376581E+02 -0.10154871958E+02  0.27363448242E+01  0.28236117996E+02  0.00000000000E+00 0. -1.
        -13    1    4    4    0    0  0.47930931402E+02  0.10415919482E+03 -0.14646365515E+03  0.18600568360E+03  0.00000000000E+00 0.  1.
         13    1    4    4    0    0 -0.92190218102E+01  0.40953129089E+02 -0.10295774230E+02  0.43222125264E+02  0.00000000000E+00 0. -1.
         21    1    1    2  502  501 -0.20969734455E+02 -0.58741083902E+02 -0.50207945341E+03  0.50593875344E+03  0.00000000000E+00 0. -1.
<scales pt_clust_5="13000.00000" pt_clust_6="13000.00000" pt_clust_7="13000.00000" pt_clust_8="13000.00000" pt_clust_9="62.37183"></scales>
<clustering>
<clus scale="   62.372">  2  9  1 -1</clus>
<clus scale="   73.591">  7  8 -1 -1</clus>
<clus scale="   79.253">  5  6 -1 -1</clus>
<clus scale="  134.011">  2  7  1 -1</clus>
<clus scale="   62.372">  2  5  1 -1</clus>
</clustering>
</event>
<event>
 9    1  0.1803370E-005  0.1032582E+03  0.7546771E-02  0.1273770E+00
          1   -1    0    0  502    0  0.00000000000E+00  0.00000000000E+00  0.28804688649E+03  0.28804688649E+03  0.00000000000E+00 0. -1.
         -1   -1    0    0    0  501 -0.00000000000E+00 -0.00000000000E+00 -0.59640080113E+02  0.59640080113E+02  0.00000000000E+00 0.  1.
         23    2    1    2    0    0 -0.19544751546E+02  0.53095933169E+02  0.23830015259E+02  0.10919174225E+03  0.90298347254E+02 0.  0.
         23    2    1    2    0    0  0.61866191599E+01 -0.31300017092E+02  0.14914684931E+03  0.17745441745E+03  0.90704588012E+02 0.  0.
        -11    1    3    3    0    0  0.26892001933E+02 -0.20447902573E+01 -0.11003225576E+02  0.29127854508E+02  0.00000000000E+00 0.  1.
         11    1    3    3    0    0 -0.46436753479E+02  0.55140723427E+02  0.34833240835E+02  0.80063887745E+02  0.00000000000E+00 0. -1.
        -11    1    4    4    0    0  0.40859639430E+02  0.38249859214E+01  0.38378105618E+02  0.56187361946E+02  0.00000000000E+00 0.  1.
         11    1    4    4    0    0 -0.34673020270E+02 -0.35125003013E+02  0.11076874369E+03  0.12126705550E+03  0.00000000000E+00 0. -1.
         21    1    1    2  502  501  0.13358132386E+02 -0.21795916078E+02  0.55429941814E+02  0.61040806908E+02  0.00000000000E+00 0. -1.
<scales pt_clust_5="13000.00000" pt_clust_6="13000.00000" pt_clust_7="13000.00000" pt_clust_8="13000.00000" pt_clust_9="25.56368"></scales>
<clustering>
<clus scale="   25.564">  1  9  2 -1</clus>
<clus scale="   90.298">  5  6 -1 -1</clus>
<clus scale="   90.705">  7  8 -1 -1</clus>
<clus scale="  102.901">  2  5  1 -1</clus>
<clus scale="   25.564">  1  5  2 -1</clus>
</clustering>
</event>
<event>
 9    1  0.1803370E-005  0.1000969E+03  0.7546771E-02  0.1281209E+00
         -3   -1    0    0    0  501 -0.00000000000E+00  0.00000000000E+00  0.15276965917E+03  0.15276965917E+03  0.00000000000E+00 0.  1.
          3   -1    0    0  502    0  0.00000000000E+00 -0.00000000000E+00 -0.27132905799E+03  0.27132905799E+03  0.00000000000E+00 0. -1.
         23    2    1    2    0    0 -0.41426419223E+02 -0.36329621008E+02  0.82205557198E+02  0.13375527371E+03  0.89981831719E+02 0.  0.
         23    2    1    2    0    0 -0.33736396274E+02  0.22413989828E+02 -0.33078955398E+02  0.10605647043E+03  0.92267146134E+02 0.  0.
        -13    1    4    4    0    0  0.28903728737E+02 -0.26866278275E+01 -0.24588151697E+02  0.38042354131E+02  0.00000000000E+00 0. -1.
         13    1    4    4    0    0 -0.62640125011E+02  0.25100617655E+02 -0.84908037007E+01  0.68014116296E+02  0.00000000000E+00 0.  1.
        -13    1    3    3    0    0 -0.11356301416E+02 -0.18831966039E+02 -0.17531788574E+02  0.28124226875E+02  0.00000000000E+00 0. -1.
         13    1    3    3    0    0 -0.30070117808E+02 -0.17497654969E+02  0.99737345771E+02  0.10563104684E+03  0.00000000000E+00 0.  1.
         21    1    1    2  502  501  0.75162815497E+02  0.13915631180E+02 -0.16768600061E+03  0.18428697302E+03  0.00000000000E+00 0. -1.
<scales pt_clust_5="13000.00000" pt_clust_6="13000.00000" pt_clust_7="13000.00000" pt_clust_8="13000.00000" pt_clust_9="76.44013"></scales>
<clustering>
<clus scale="   76.440">  2  9  1 -1</clus>
<clus scale="   89.982">  7  8 -1 -1</clus>
<clus scale="   92.267">  5  6 -1 -1</clus>
<clus scale="   97.994">  1  7  2 -1</clus>
<clus scale="   76.440">  2  5  1 -1</clus>
</clustering>
</event>
<event>
 9    1  0.1803370E-005  0.9174987E+02  0.7546771E-02  0.1300150E+00
         -2   -1    0    0    0  501 -0.00000000000E+00  0.00000000000E+00  0.20021828804E+02  0.20021828804E+02  0.00000000000E+00 0.  1.
          2   -1    0    0  502    0  0.00000000000E+00 -0.00000000000E+00 -0.61139993945E+03  0.61139993945E+03  0.00000000000E+00 0. -1.
         23    2    1    2    0    0  0.16990615392E+02  0.66922611768E+01 -0.18504980630E+03  0.20553263216E+03  0.87560063397E+02 0.  0.
         23    2    1    2    0    0 -0.29449644538E+02 -0.26943241384E+02 -0.23723832826E+03  0.25513565994E+03  0.84964467595E+02 0.  0.
        -11    1    4    4    0    0 -0.16571969015E+02  0.20840242962E+02 -0.22778791517E+02  0.35040251522E+02  0.00000000000E+00 0. -1.
         11    1    4    4    0    0 -0.12877675523E+02 -0.47783484346E+02 -0.21445953675E+03  0.22009540841E+03  0.00000000000E+00 0.  1.
        -11    1    3    3    0    0  0.43246772456E+02 -0.23474534577E+02 -0.94482799931E+02  0.10652857168E+03  0.00000000000E+00 0.  1.
         11    1    3    3    0    0 -0.26256157065E+02  0.30166795754E+02 -0.90567006365E+02  0.99004060481E+02  0.00000000000E+00 0. -1.
         21    1    1    2  502  501  0.12459029146E+02  0.20250980207E+02 -0.16908997609E+03  0.17075347616E+03  0.00000000000E+00 0. -1.
<scales pt_clust_5="13000.00000" pt_clust_6="13000.00000" pt_clust_7="13000.00000" pt_clust_8="13000.00000" pt_clust_9="23.77666"></scales>
<clustering>
<clus scale="   23.777">  2  9  1 -1</clus>
<clus scale="   84.964">  5  6 -1 -1</clus>
<clus scale="   87.560">  7  8 -1 -1</clus>
<clus scale="   89.276">  2  5  1 -1</clus>
<clus scale="   23.777">  2  5  1 -1</clus>
</clustering>
</event>
<event>
 9    1  0.1803370E-005  0.9821726E+02  0.7546771E-02  0.1287316E+00
          2   -1    0    0  502    0  0.00000000000E+00  0.00000000000E+00  0.52464310818E+02  0.52464310818E+02  0.00000000000E+00 0. -1.
         -2   -1    0    0    0  501 -0.00000000000E+00 -0.00000000000E+00 -0.36096499106E+03  0.36096499106E+03  0.00000000000E+00 0.  1.
         23    2    1    2    0    0 -0.31809149145E+02  0.11140521276E+02 -0.24665491023E+03  0.26440212249E+03  0.89072467417E+02 0.  0.
         23    2    1    2    0    0 -0.40965054876E+01  0.67402610989E+01 -0.45803198334E+02  0.10582645580E+03  0.95074146285E+02 0.  0.
        -11    1    4    4    0    0 -0.41197836375E+02  0.30565758681E+02 -0.23879427373E+02  0.56584047022E+02  0.00000000000E+00 0.  1.
         11    1    4    4    0    0  0.37101330888E+02 -0.23825497582E+02 -0.21923770961E+02  0.49242408773E+02  0.00000000000E+00 0. -1.
        -13    1    3    3    0    0  0.41338466024E+01 -0.28874986692E+02 -0.15828131546E+03  0.16094666312E+03  0.00000000000E+00 0.  1.
         13    1    3    3    0    0 -0.35942995748E+02  0.40015507968E+02 -0.88373594766E+02  0.10345545937E+03  0.00000000000E+00 0. -1.
         21    1    1    2  502  501  0.35905654633E+02 -0.17880782375E+02 -0.16042571676E+02  0.43200723593E+02  0.00000000000E+00 0. -1.
<scales pt_clust_5="13000.00000" pt_clust_6="13000.00000" pt_clust_7="13000.00000" pt_clust_8="13000.00000" pt_clust_9="40.11157"></scales>
<clustering>
<clus scale="   40.112">  1  9  2 -1</clus>
<clus scale="   89.072">  7  8 -1 -1</clus>
<clus scale="   92.420">  2  7  1 -1</clus>
<clus scale="   95.074">  5  6 -1 -1</clus>
<clus scale="   40.112">  1  5  2 -1</clus>
</clustering>
</event>
<event>
 9    1  0.1803370E-005  0.9173846E+02  0.7546771E-02  0.1299560E+00
          1   -1    0    0  502    0  0.00000000000E+00  0.00000000000E+00  0.42523467457E+03  0.42523467457E+03  0.00000000000E+00 0. -1.
         -1   -1    0    0    0  501 -0.00000000000E+00 -0.00000000000E+00 -0.34685342497E+02  0.34685342497E+02  0.00000000000E+00 0.  1.
         23    2    1    2    0    0  0.21809425901E+02 -0.13890263841E+02  0.70482777136E+02  0.11730946272E+03  0.90139323736E+02 0.  0.
         23    2    1    2    0    0  0.84360940309E+01  0.85463729197E+00  0.24263935232E+03  0.25846965620E+03  0.88661207946E+02 0.  0.
        -13    1    3    3    0    0  0.56343610244E+02 -0.13682032259E+02  0.53208629472E+02  0.78695353563E+02  0.00000000000E+00 0.  1.
         13    1    3    3    0    0 -0.34534184343E+02 -0.20823158215E+00  0.17274147664E+02  0.38614109159E+02  0.00000000000E+00 0. -1.
        -13    1    4    4    0    0  0.44232412348E+02 -0.18973434680E+02  0.12879459026E+03  0.13749379625E+03  0.00000000000E+00 0.  1.
         13    1    4    4    0    0 -0.35796318317E+02  0.19828071972E+02  0.11384476206E+03  0.12097585995E+03  0.00000000000E+00 0. -1.
         21    1    1    2  502  501 -0.30245519932E+02  0.13035626549E+02  0.77427202611E+02  0.84140898139E+02  0.00000000000E+00 0.  1.
<scales pt_clust_5="13000.00000" pt_clust_6="13000.00000" pt_clust_7="13000.00000" pt_clust_8="13000.00000" pt_clust_9="32.93507"></scales>
<clustering>
<clus scale="   32.935">  1  9  2 -1</clus>
<clus scale="   88.661">  7  8 -1 -1</clus>
<clus scale="   90.139">  5  6 -1 -1</clus>
<clus scale="   90.287">  1  7  2 -1</clus>
<clus scale="   32.935">  1  5  2 -1</clus>
</clustering>
</event>
<event>
 9    1  0.1803370E-005  0.1249121E+03  0.7546771E-02  0.1236385E+00
          2   -1    0    0  502    0  0.00000000000E+00  0.00000000000E+00  0.25031565819E+03  0.25031565819E+03  0.00000000000E+00 0. -1.
         -2   -1    0    0    0  501 -0.00000000000E+00 -0.00000000000E+00 -0.90636852421E+02  0.90636852421E+02  0.00000000000E+00 0.  1.
         23    2    1    2    0    0  0.58580991557E+02  0.30078156217E+02  0.41530504686E+02  0.12634916399E+03  0.99513317539E+02 0.  0.
         23    2    1    2    0    0 -0.58443666583E+02 -0.69403435953E+02  0.61254567267E+02  0.14544126574E+03  0.95752497012E+02 0.  0.
        -11    1    4    4    0    0 -0.40990814591E+02  0.62005550272E+01 -0.70686650302E+01  0.42055437089E+02  0.00000000000E+00 0.  1.
         11    1    4    4    0    0 -0.17452851992E+02 -0.75603990980E+02  0.68323232297E+02  0.10338582865E+03  0.00000000000E+00 0. -1.
        -13    1    3    3    0    0  0.31990843450E+02  0.35425647006E+02 -0.25444452105E+02  0.54090763291E+02  0.00000000000E+00 0.  1.
         13    1    3    3    0    0  0.26590148106E+02 -0.53474907890E+01  0.66974956791E+02  0.72258400697E+02  0.00000000000E+00 0. -1.
         21    1    1    2  502  501 -0.13732497357E+00  0.39325279736E+02  0.56893733820E+02  0.69162080886E+02  0.00000000000E+00 0. -1.
<scales pt_clust_5="13000.00000" pt_clust_6="13000.00000" pt_clust_7="13000.00000" pt_clust_8="13000.00000" pt_clust_9="39.32552"></scales>
<clustering>
<clus scale="   39.326">  1  9  2 -1</clus>
<clus scale="   95.752">  5  6 -1 -1</clus>
<clus scale="   99.513">  7  8 -1 -1</clus>
<clus scale="  121.937">  1  5  2 -1</clus>
<clus scale="   39.326">  1  5  2 -1</clus>
</clustering>
</event>
<event>
 9    1  0.1803370E-005  0.1021557E+03  0.7546771E-02  0.1276251E+00
          1   -1    0    0  502    0  0.00000000000E+00  0.00000000000E+00  0.41627599378E+03  0.41627599378E+03  0.00000000000E+00 0. -1.
         -1   -1    0    0    0  501 -0.00000000000E+00 -0.00000000000E+00 -0.33287404245E+02  0.33287404245E+02  0.00000000000E+00 0.  1.
         23    2    1    2    0    0  0.18301881439E+02 -0.36745786200E+02  0.12629573387E+03  0.16097417410E+03  0.90977253556E+02 0.  0.
         23    2    1    2    0    0 -0.40092124914E+02  0.32794864500E+02  0.17869520776E+03  0.20750866170E+03  0.91896603775E+02 0.  0.
        -11    1    3    3    0    0 -0.16760090312E+02  0.13896043885E+02  0.82685405391E+02  0.85503666165E+02  0.00000000000E+00 0. -1.
         11    1    3    3    0    0  0.35061971751E+02 -0.50641830085E+02  0.43610328477E+02  0.75470507931E+02  0.00000000000E+00 0.  1.
        -11    1    4    4    0    0  0.27622581198E+02  0.23956301864E+02  0.73486354549E+02  0.82080178460E+02  0.00000000000E+00 0.  1.
         11    1    4    4    0    0 -0.67714706113E+02  0.88385626363E+01  0.10520885321E+03  0.12542848324E+03  0.00000000000E+00 0. -1.
         21    1    1    2  502  501  0.21790243475E+02  0.39509216997E+01  0.77997647909E+02  0.81080562234E+02  0.00000000000E+00 0.  1.
<scales pt_clust_5="13000.00000" pt_clust_6="13000.00000" pt_clust_7="13000.00000" pt_clust_8="13000.00000" pt_clust_9="22.14553"></scales>
<clustering>
<clus scale="   22.146">  1  9  2 -1</clus>
<clus scale="   90.977">  5  6 -1 -1</clus>
<clus scale="   91.897">  7  8 -1 -1</clus>
<clus scale="  101.330">  2  5  1 -1</clus>
<clus scale="   22.146">  1  5  2 -1</clus>
</clustering>
</event>
<event>
 9    1  0.1803370E-005  0.8821069E+02  0.7546771E-02  0.1314540E+00
          1   -1    0    0  502    0  0.00000000000E+00  0.00000000000E+00  0.35553088356E+03  0.35553088356E+03  0.00000000000E+00 0. -1.
         -1   -1    0    0    0  501 -0.00000000000E+00 -0.00000000000E+00 -0.44844549234E+02  0.44844549234E+02  0.00000000000E+00 0.  1.
         23    2    1    2    0    0 -0.15481546368E+02 -0.17202104599E+02  0.44249722619E+02  0.10080027566E+03  0.87561789268E+02 0.  0.
         23    2    1    2    0    0 -0.26041281514E+02 -0.12137100716E+02  0.19884345035E+03  0.21499519695E+03  0.76542533314E+02 0.  0.
        -13    1    4    4    0    0  0.23462435206E+01  0.29689263651E+02  0.93936057025E+02  0.98544102027E+02  0.00000000000E+00 0.  1.
         13    1    4    4    0    0 -0.28387525035E+02 -0.41826364367E+02  0.10490739333E+03  0.11645109492E+03  0.00000000000E+00 0. -1.
        -13    1    3    3    0    0 -0.11661800949E+02 -0.48825514317E+02  0.52906453487E+01  0.50476919259E+02  0.00000000000E+00 0. -1.
         13    1    3    3    0    0 -0.38197454192E+01  0.31623409718E+02  0.38959077270E+02  0.50323356396E+02  0.00000000000E+00 0.  1.
         21    1    1    2  502  501  0.41522827882E+02  0.29339205315E+02  0.67593161357E+02  0.84579960192E+02  0.00000000000E+00 0.  1.
<scales pt_clust_5="13000.00000" pt_clust_6="13000.00000" pt_clust_7="13000.00000" pt_clust_8="13000.00000" pt_clust_9="50.84225"></scales>
<clustering>
<clus scale="   50.842">  1  9  2 -1</clus>
<clus scale="   76.543">  5  6 -1 -1</clus>
<clus scale="   77.284">  1  5  2 -1</clus>
<clus scale="   87.562">  7  8 -1 -1</clus>
<clus scale="   50.842">  1  5  2 -1</clus>
</clustering>
</event>
<event>
 9    1  0.1803370E-005  0.1151747E+03  0.7546771E-02  0.1251856E+00
          2   -1    0    0  502    0  0.00000000000E+00  0.00000000000E+00  0.29117146162E+03  0.29117146162E+03  0.00000000000E+00 0. -1.
         -2   -1    0    0    0  501 -0.00000000000E+00 -0.00000000000E+00 -0.98252881153E+02  0.98252881153E+02  0.00000000000E+00 0.  1.
         23    2    1    2    0    0  0.30667355179E+02 -0.32303402034E+02  0.26659989710E+02  0.10405412937E+03  0.90180432086E+02 0.  0.
         23    2    1    2    0    0 -0.56770749506E+02  0.10378742599E+03  0.78095335959E+02  0.16890514408E+03  0.91843989477E+02 0.  0.
        -13    1    4    4    0    0  0.69050529515E+01  0.29319275410E+02 -0.15088531756E+02  0.33689218711E+02  0.00000000000E+00 0.  1.
         13    1    4    4    0    0 -0.63675802458E+02  0.74468150583E+02  0.93183867715E+02  0.13521592536E+03  0.00000000000E+00 0. -1.
        -13    1    3    3    0    0  0.58828732668E+02 -0.37035901092E+02  0.29169300258E+02  0.75387836118E+02  0.00000000000E+00 0.  1.
         13    1    3    3    0    0 -0.28161377489E+02  0.47324990575E+01 -0.25093105477E+01  0.28666293253E+02  0.00000000000E+00 0. -1.
         21    1    1    2  502  501  0.26103394328E+02 -0.71484023959E+02  0.88163254802E+02  0.11646506933E+03  0.00000000000E+00 0. -1.
<scales pt_clust_5="13000.00000" pt_clust_6="13000.00000" pt_clust_7="13000.00000" pt_clust_8="13000.00000" pt_clust_9="76.10094"></scales>
<clustering>
<clus scale="   76.101">  1  9  2 -1</clus>
<clus scale="   90.180">  7  8 -1 -1</clus>
<clus scale="   91.844">  5  6 -1 -1</clus>
<clus scale="  113.853">  2  7  1 -1</clus>
<clus scale="   76.101">  1  5  2 -1</clus>
</clustering>
</event>
<event>
 9    1  0.1803370E-005  0.1045350E+03  0.7546771E-02  0.1272438E+00
          1   -1    0    0  502    0  0.00000000000E+00  0.00000000000E+00  0.68329645093E+03  0.68329645093E+03  0.00000000000E+00 0. -1.
         -1   -1    0    0    0  501 -0.00000000000E+00 -0.00000000000E+00 -0.38751681335E+02  0.38751681335E+02  0.00000000000E+00 0.  1.
         23    2    1    2    0    0  0.41510249356E+02 -0.24132240912E+01  0.54138851236E+02  0.11436059128E+03  0.91751867406E+02 0.  0.
         23    2    1    2    0    0 -0.60062769931E+02 -0.13077323943E+02  0.54111580734E+03  0.55279065454E+03  0.94829520991E+02 0.  0.
        -11    1    3    3    0    0 -0.22524835883E+02  0.20750225590E+02  0.27757771382E+02  0.41333206574E+02  0.00000000000E+00 0. -1.
         11    1    3    3    0    0  0.64035085239E+02 -0.23163449682E+02  0.26381079855E+02  0.73027384706E+02  0.00000000000E+00 0.  1.
        -13    1    4    4    0    0 -0.75334307248E+02 -0.37475930953E+02  0.41232473537E+03  0.42082227917E+03  0.00000000000E+00 0.  1.
         13    1    4    4    0    0  0.15271537317E+02  0.24398607009E+02  0.12879107197E+03  0.13196837536E+03  0.00000000000E+00 0. -1.
         21    1    1    2  502  501  0.18552520575E+02  0.15490548034E+02  0.49290111014E+02  0.54896886449E+02  0.00000000000E+00 0. -1.
<scales pt_clust_5="13000.00000" pt_clust_6="13000.00000" pt_clust_7="13000.00000" pt_clust_8="13000.00000" pt_clust_9="24.16926"></scales>
<clustering>
<clus scale="   24.169">  1  9  2 -1</clus>
<clus scale="   91.752">  5  6 -1 -1</clus>
<clus scale="   94.830">  7  8 -1 -1</clus>
<clus scale="  101.751">  2  5  1 -1</clus>
<clus scale="   24.169">  1  5  2 -1</clus>
</clustering>
</event>
<event>
 9    1  0.1803370E-005  0.2572619E+03  0.7546771E-02  0.1108893E+00
         -1   -1    0    0    0  501 -0.00000000000E+00  0.00000000000E+00  0.39086836958E+03  0.39086836958E+03  0.00000000000E+00 0.  1.
          1   -1    0    0  502    0  0.00000000000E+00 -0.00000000000E+00 -0.10731815390E+04  0.10731815390E+04  0.00000000000E+00 0. -1.
         23    2    1    2    0    0 -0.23699516244E+03  0.37233136619E+02  0.32487520629E+03  0.41399309930E+03  0.91067958849E+02 0.  0.
         23    2    1    2    0    0  0.23224885632E+03 -0.72969257973E+02 -0.86597317481E+03  0.90431275022E+03  0.92779129330E+02 0.  0.
        -13    1    4    4    0    0  0.25251705387E+02 -0.45032206003E+02 -0.16722850207E+03  0.17501691378E+03  0.00000000000E+00 0.  1.
         13    1    4    4    0    0  0.20699715093E+03 -0.27937051970E+02 -0.69874467274E+03  0.72929583644E+03  0.00000000000E+00 0. -1.
        -13    1    3    3    0    0 -0.16064321534E+03  0.64681307407E+02  0.19440313531E+03  0.26035071189E+03  0.00000000000E+00 0.  1.
         13    1    3    3    0    0 -0.76351947096E+02 -0.27448170788E+02  0.13047207097E+03  0.15364238741E+03  0.00000000000E+00 0. -1.
         21    1    1    2  502  501  0.47463061232E+01  0.35736121354E+02 -0.14121520093E+03  0.14574405910E+03  0.00000000000E+00 0.  1.
<scales pt_clust_5="13000.00000" pt_clust_6="13000.00000" pt_clust_7="13000.00000" pt_clust_8="13000.00000" pt_clust_9="36.04993"></scales>
<clustering>
<clus scale="   36.050">  2  9  1 -1</clus>
<clus scale="   91.068">  7  8 -1 -1</clus>
<clus scale="   92.779">  5  6 -1 -1</clus>
<clus scale="  256.650">  1  7  2 -1</clus>
<clus scale="   36.050">  2  5  1 -1</clus>
</clustering>
</event>
<event>
 9    1  0.1803370E-005  0.9826785E+02  0.7546771E-02  0.1286074E+00
          2   -1    0    0  502    0  0.00000000000E+00  0.00000000000E+00  0.36828419529E+03  0.36828419529E+03  0.00000000000E+00 0. -1.
         -2   -1    0    0    0  501 -0.00000000000E+00 -0.00000000000E+00 -0.27151203237E+03  0.27151203237E+03  0.00000000000E+00 0.  1.
         23    2    1    2    0    0 -0.22895329930E+01  0.27315581024E+02 -0.24234198741E+03  0.26033827213E+03  0.91076858475E+02 0.  0.
         23    2    1    2    0    0  0.31565547448E+02  0.21806820212E+02  0.14830383737E+03  0.18026289822E+03  0.95019803740E+02 0.  0.
        -11    1    3    3    0    0  0.33474574354E+02  0.44289062864E+02 -0.13974022328E+03  0.15036421855E+03  0.00000000000E+00 0.  1.
         11    1    3    3    0    0 -0.35764107347E+02 -0.16973481839E+02 -0.10260176413E+03  0.10997405359E+03  0.00000000000E+00 0. -1.
        -11    1    4    4    0    0  0.37816523927E+02  0.51264730425E+02  0.62154223289E+02  0.89001738972E+02  0.00000000000E+00 0.  1.
         11    1    4    4    0    0 -0.62509764790E+01 -0.29457910212E+02  0.86149614082E+02  0.91261159249E+02  0.00000000000E+00 0. -1.
         21    1    1    2  502  501 -0.29276014455E+02 -0.49122401236E+02  0.19081031295E+03  0.19919505731E+03  0.00000000000E+00 0. -1.
<scales pt_clust_5="13000.00000" pt_clust_6="13000.00000" pt_clust_7="13000.00000" pt_clust_8="13000.00000" pt_clust_9="57.18475"></scales>
<clustering>
<clus scale="   57.185">  1  9  2 -1</clus>
<clus scale="   91.077">  5  6 -1 -1</clus>
<clus scale="   94.461">  2  5  1 -1</clus>
<clus scale="   95.020">  7  8 -1 -1</clus>
<clus scale="   57.185">  1  5  2 -1</clus>
</clustering>
</event>
<event>
 9    1  0.1803370E-005  0.1681894E+03  0.7546771E-02  0.1180288E+00
          2   -1    0    0  502    0  0.00000000000E+00  0.00000000000E+00  0.95090482186E+02  0.95090482186E+02  0.00000000000E+00 0. -1.
         -2   -1    0    0    0  501 -0.00000000000E+00 -0.00000000000E+00 -0.54538940675E+03  0.54538940675E+03  0.00000000000E+00 0.  1.
         23    2    1    2    0    0 -0.13470580537E+03 -0.57261663399E+02 -0.40927470414E+03  0.44506760004E+03  0.95680891817E+02 0.  0.
         23    2    1    2    0    0  0.11326962571E+03  0.23788488656E+02 -0.47064335701E+02  0.15520723675E+03  0.92077871085E+02 0.  0.
        -11    1    4    4    0    0  0.22371548158E+02  0.12001887918E+02 -0.57597975192E+02  0.62944882451E+02  0.00000000000E+00 0.  1.
         11    1    4    4    0    0  0.90898077554E+02  0.11786600738E+02  0.10533639492E+02  0.92262354299E+02  0.00000000000E+00 0. -1.
        -11    1    3    3    0    0 -0.13593930428E+03 -0.27381893870E+02 -0.37366705426E+03  0.39856784867E+03  0.00000000000E+00 0.  1.
         11    1    3    3    0    0  0.12334989084E+01 -0.29879769529E+02 -0.35607649882E+02  0.46499751362E+02  0.00000000000E+00 0. -1.
         21    1    1    2  502  501  0.21436179659E+02  0.33473174743E+02  0.60401152746E+01  0.40205052149E+02  0.00000000000E+00 0.  1.
<scales pt_clust_5="13000.00000" pt_clust_6="13000.00000" pt_clust_7="13000.00000" pt_clust_8="13000.00000" pt_clust_9="39.74875"></scales>
<clustering>
<clus scale="   39.749">  1  9  2 -1</clus>
<clus scale="   92.078">  5  6 -1 -1</clus>
<clus scale="   95.681">  7  8 -1 -1</clus>
<clus scale="  166.166">  1  5  2 -1</clus>
<clus scale="   39.749">  1  5  2 -1</clus>
</clustering>
</event>
<event>
 9    1  0.1803370E-005  0.9366000E+02  0.7546771E-02  0.1301906E+00
          3   -1    0    0  502    0  0.00000000000E+00  0.00000000000E+00  0.15157767032E+03  0.15157767032E+03  0.00000000000E+00 0. -1.
         -3   -1    0    0    0  501 -0.00000000000E+00 -0.00000000000E+00 -0.86801330121E+02  0.86801330121E+02  0.00000000000E+00 0.  1.
         23    2    1    2    0    0  0.58732946193E+01 -0.17611541710E+02 -0.22502266067E+02  0.97502011441E+02  0.93035629013E+02 0.  0.
         23    2    1    2    0    0 -0.38542406307E+01 -0.10509043510E+02  0.73018429918E+02  0.10928274077E+03  0.80534037248E+02 0.  0.
        -11    1    3    3    0    0 -0.18302698414E+02  0.30435429391E+02  0.69369228169E+01  0.36185978357E+02  0.00000000000E+00 0. -1.
         11    1    3    3    0    0  0.24175993034E+02 -0.48046971101E+02 -0.29439188884E+02  0.61316033085E+02  0.00000000000E+00 0.  1.
        -13    1    4    4    0    0  0.33915819535E+02  0.12691318899E+02  0.40361033463E+02  0.54225136351E+02  0.00000000000E+00 0.  1.
         13    1    4    4    0    0 -0.37770060165E+02 -0.23200362409E+02  0.32657396455E+02  0.55057604416E+02  0.00000000000E+00 0. -1.
         21    1    1    2  502  501 -0.20190539887E+01  0.28120585219E+02  0.14260176352E+02  0.31594248237E+02  0.00000000000E+00 0. -1.
<scales pt_clust_5="13000.00000" pt_clust_6="13000.00000" pt_clust_7="13000.00000" pt_clust_8="13000.00000" pt_clust_9="28.19298"></scales>
<clustering>
<clus scale="   28.193">  1  9  2 -1</clus>
<clus scale="   80.534">  7  8 -1 -1</clus>
<clus scale="   81.255">  1  7  2 -1</clus>
<clus scale="   93.036">  5  6 -1 -1</clus>
<clus scale="   28.193">  1  5  2 -1</clus>
</clustering>
</event>
<event>
 9    1  0.1803370E-005  0.1312091E+03  0.7546771E-02  0.1227403E+00
         -3   -1    0    0    0  501 -0.00000000000E+00  0.00000000000E+00  0.81778443958E+02  0.81778443958E+02  0.00000000000E+00 0.  1.
          3   -1    0    0  502    0  0.00000000000E+00 -0.00000000000E+00 -0.42918461344E+03  0.42918461344E+03  0.00000000000E+00 0. -1.
         23    2    1    2    0    0 -0.31920608746E+02 -0.60573072449E+02 -0.50610008390E+02  0.12921758814E+03  0.97199741600E+02 0.  0.
         23    2    1    2    0    0  0.43781041286E+02  0.11245397216E+03 -0.10825429566E+03  0.18583647856E+03  0.90848933976E+02 0.  0.
        -11    1    4    4    0    0  0.21734571206E+02  0.11884111232E+03 -0.65786174829E+02  0.13756243078E+03  0.00000000000E+00 0.  1.
         11    1    4    4    0    0  0.22046470080E+02 -0.63871401602E+01 -0.42468120832E+02  0.48274047784E+02  0.00000000000E+00 0. -1.
        -11    1    3    3    0    0  0.25526711620E+02  0.10411540784E+02 -0.12354414003E+02  0.30210010477E+02  0.00000000000E+00 0. -1.
         11    1    3    3    0    0 -0.57447320366E+02 -0.70984613233E+02 -0.38255594387E+02  0.99007577665E+02  0.00000000000E+00 0.  1.
         21    1    1    2  502  501 -0.11860432540E+02 -0.51880899711E+02 -0.18854186543E+03  0.19590899070E+03  0.00000000000E+00 0. -1.
<scales pt_clust_5="13000.00000" pt_clust_6="13000.00000" pt_clust_7="13000.00000" pt_clust_8="13000.00000" pt_clust_9="53.21933"></scales>
<clustering>
<clus scale="   53.219">  2  9  1 -1</clus>
<clus scale="   90.849">  5  6 -1 -1</clus>
<clus scale="   97.200">  7  8 -1 -1</clus>
<clus scale="  126.576">  2  5  1 -1</clus>
<clus scale="   53.219">  2  5  1 -1</clus>
</clustering>
</event>
<event>
 9    1  0.1803370E-005  0.9703040E+02  0.7546771E-02  0.1288265E+00
         -1   -1    0    0    0  501 -0.00000000000E+00  0.00000000000E+00  0.57041973598E+02  0.57041973598E+02  0.00000000000E+00 0.  1.
          1   -1    0    0  502    0  0.00000000000E+00 -0.00000000000E+00 -0.22037519673E+03  0.22037519673E+03  0.00000000000E+00 0. -1.
         23    2    1    2    0    0 -0.52628536158E+01  0.15820412319E+02 -0.48444510337E+02  0.10458994348E+03  0.91182249489E+02 0.  0.
         23    2    1    2    0    0 -0.12995055468E+02 -0.33134402501E+02 -0.74418781724E+02  0.12517283753E+03  0.94145228696E+02 0.  0.
        -11    1    4    4    0    0 -0.33599897485E+02 -0.58775015131E+02 -0.48159518814E+02  0.83083059446E+02  0.00000000000E+00 0. -1.
         11    1    4    4    0    0  0.20604842016E+02  0.25640612630E+02 -0.26259262911E+02  0.42089778084E+02  0.00000000000E+00 0.  1.
        -13    1    3    3    0    0 -0.22047512529E+02 -0.43599113464E+01  0.20747253821E+02  0.30586764732E+02  0.00000000000E+00 0. -1.
         13    1    3    3    0    0  0.16784658913E+02  0.20180323665E+02 -0.69191764157E+02  0.74003178751E+02  0.00000000000E+00 0.  1.
         21    1    1    2  502  501  0.18257909084E+02  0.17313990183E+02 -0.40469931070E+02  0.47654389315E+02  0.00000000000E+00 0. -1.
<scales pt_clust_5="13000.00000" pt_clust_6="13000.00000" pt_clust_7="13000.00000" pt_clust_8="13000.00000" pt_clust_9="25.16199"></scales>
<clustering>
<clus scale="   25.162">  2  9  1 -1</clus>
<clus scale="   91.182">  7  8 -1 -1</clus>
<clus scale="   94.145">  5  6 -1 -1</clus>
<clus scale="   94.158">  1  7  2 -1</clus>
<clus scale="   25.162">  2  5  1 -1</clus>
</clustering>
</event>
<event>
 9    1  0.1803370E-005  0.1029564E+03  0.7546771E-02  0.1275041E+00
          2   -1    0    0  502    0  0.00000000000E+00  0.00000000000E+00  0.76687774601E+02  0.76687774601E+02  0.00000000000E+00 0. -1.
         -2   -1    0    0    0  501 -0.00000000000E+00 -0.00000000000E+00 -0.34284767592E+03  0.34284767592E+03  0.00000000000E+00 0.  1.
         23    2    1    2    0    0 -0.80729799808E+01  0.35292307547E+02 -0.15551138818E+03  0.18434743964E+03  0.92138301858E+02 0.  0.
         23    2    1    2    0    0 -0.58076663378E+02 -0.45037826796E+02 -0.11816701382E+03  0.16790295820E+03  0.93950282316E+02 0.  0.
        -13    1    3    3    0    0  0.31421994790E+02  0.28929200416E+02 -0.13015562994E+03  0.13698440932E+03  0.00000000000E+00 0.  1.
         13    1    3    3    0    0 -0.39494974770E+02  0.63631071319E+01 -0.25355758243E+02  0.47363030314E+02  0.00000000000E+00 0. -1.
        -13    1    4    4    0    0  0.82974608542E+01 -0.46610910132E+02 -0.25113272364E+02  0.53591988662E+02  0.00000000000E+00 0.  1.
         13    1    4    4    0    0 -0.66374124232E+02  0.15730833361E+01 -0.93053741456E+02  0.11431096954E+03  0.00000000000E+00 0. -1.
         21    1    1    2  502  501  0.66149643358E+02  0.97455192486E+01  0.75185006788E+01  0.67285052681E+02  0.00000000000E+00 0. -1.
<scales pt_clust_5="13000.00000" pt_clust_6="13000.00000" pt_clust_7="13000.00000" pt_clust_8="13000.00000" pt_clust_9="66.86367"></scales>
<clustering>
<clus scale="   66.864">  1  9  2 -1</clus>
<clus scale="   92.138">  5  6 -1 -1</clus>
<clus scale="   93.950">  7  8 -1 -1</clus>
<clus scale="  101.306">  2  5  1 -1</clus>
<clus scale="   66.864">  1  5  2 -1</clus>
</clustering>
</event>
<event>
 9    1  0.1803370E-005  0.1571574E+03  0.7546771E-02  0.1204339E+00
          1   -1    0    0  502    0  0.00000000000E+00  0.00000000000E+00  0.89133579482E+02  0.89133579482E+02  0.00000000000E+00 0. -1.
         -1   -1    0    0    0  501 -0.00000000000E+00 -0.00000000000E+00 -0.85343357261E+03  0.85343357261E+03  0.00000000000E+00 0.  1.
         23    2    1    2    0    0  0.64564821364E+02 -0.39704603470E+02 -0.38165776343E+03  0.40006683604E+03  0.92982542554E+02 0.  0.
         23    2    1    2    0    0 -0.72965627790E+02  0.16143472440E+03 -0.36978383131E+03  0.41980502560E+03  0.90061226658E+02 0.  0.
        -11    1    3    3    0    0  0.16211210080E+02 -0.61198669970E+02 -0.15749672121E+03  0.16974480178E+03  0.00000000000E+00 0. -1.
         11    1    3    3    0    0  0.48353611284E+02  0.21494066500E+02 -0.22416104222E+03  0.23032203426E+03  0.00000000000E+00 0.  1.
        -13    1    4    4    0    0  0.14860959316E+02  0.24168450561E+02 -0.22578062862E+02  0.36259220027E+02  0.00000000000E+00 0. -1.
         13    1    4    4    0    0 -0.87826587106E+02  0.13726627384E+03 -0.34720576844E+03  0.38354580558E+03  0.00000000000E+00 0.  1.
         21    1    1    2  502  501  0.84008064262E+01 -0.12173012093E+03 -0.12858398398E+02  0.12269529045E+03  0.00000000000E+00 0. -1.
<scales pt_clust_5="13000.00000" pt_clust_6="13000.00000" pt_clust_7="13000.00000" pt_clust_8="13000.00000" pt_clust_9="128.79221"></scales>
<clustering>
<clus scale="   90.061">  7  8 -1 -1</clus>
<clus scale="   92.983">  5  6 -1 -1</clus>
<clus scale="  119.962">  2  5  1 -1</clus>
<clus scale="  128.792">  1  9  2 -1</clus>
<clus scale="  128.792">  1  5  2 -1</clus>
</clustering>
</event>
<event>
 9    1  0.1803370E-005  0.1131364E+03  0.7546771E-02  0.1256143E+00
         -1   -1    0    0    0  501 -0.00000000000E+00  0.00000000000E+00  0.15242953257E+03  0.15242953257E+03  0.00000000000E+00 0.  1.
          1   -1    0    0  502    0  0.00000000000E+00 -0.00000000000E+00 -0.13132379321E+03  0.13132379321E+03  0.00000000000E+00 0. -1.
         23    2    1    2    0    0 -0.69614919085E+02  0.12829930120E+02  0.71943796141E+02  0.13679184854E+03  0.92332312647E+02 0.  0.
         23    2    1    2    0    0  0.37522358273E+02 -0.11050717601E+02 -0.26684792718E+02  0.10675602709E+03  0.95680329367E+02 0.  0.
        -11    1    4    4    0    0  0.42614728571E+02  0.23794755356E+02 -0.45588778387E+02  0.66787290621E+02  0.00000000000E+00 0.  1.
         11    1    4    4    0    0 -0.50923702981E+01 -0.34845472957E+02  0.18903985669E+02  0.39968736470E+02  0.00000000000E+00 0. -1.
        -13    1    3    3    0    0 -0.55390409273E+02 -0.25441518780E+02  0.87830848275E+01  0.61583365419E+02  0.00000000000E+00 0. -1.
         13    1    3    3    0    0 -0.14224509812E+02  0.38271448900E+02  0.63160711313E+02  0.75208483125E+02  0.00000000000E+00 0.  1.
         21    1    1    2  502  501  0.32092560812E+02 -0.17792125195E+01 -0.24153264063E+02  0.40205450147E+02  0.00000000000E+00 0.  1.
<scales pt_clust_5="13000.00000" pt_clust_6="13000.00000" pt_clust_7="13000.00000" pt_clust_8="13000.00000" pt_clust_9="32.14184"></scales>
<clustering>
<clus scale="   32.142">  2  9  1 -1</clus>
<clus scale="   92.332">  7  8 -1 -1</clus>
<clus scale="   95.680">  5  6 -1 -1</clus>
<clus scale="  110.319">  1  7  2 -1</clus>
<clus scale="   32.142">  2  5  1 -1</clus>
</clustering>
</event>
<event>
 9    1  0.1803370E-005  0.9598695E+02  0.7546771E-02  0.1289164E+00
          2   -1    0    0  502    0  0.00000000000E+00  0.00000000000E+00  0.21419894005E+03  0.21419894005E+03  0.00000000000E+00 0. -1.
         -2   -1    0    0    0  501 -0.00000000000E+00 -0.00000000000E+00 -0.18385229758E+03  0.18385229758E+03  0.00000000000E+00 0.  1.
         23    2    1    2    0    0  0.27007011430E+02 -0.51705302750E+01 -0.14301072801E+03  0.17163633128E+03  0.90834183218E+02 0.  0.
         23    2    1    2    0    0 -0.53055334888E+02 -0.13484761036E+02  0.98433230452E+02  0.14492771834E+03  0.91204360346E+02 0.  0.
        -11    1    3    3    0    0  0.49756944229E+02 -0.32097368814E+02 -0.81461657495E+02  0.10070747850E+03  0.00000000000E+00 0.  1.
         11    1    3    3    0    0 -0.22749932799E+02  0.26926838540E+02 -0.61549070516E+02  0.70928852786E+02  0.00000000000E+00 0. -1.
        -11    1    4    4    0    0 -0.48527603503E+02 -0.48824314101E+02  0.51337805349E+02  0.85873815609E+02  0.00000000000E+00 0.  1.
         11    1    4    4    0    0 -0.45277313852E+01  0.35339553065E+02  0.47095425103E+02  0.59053902733E+02  0.00000000000E+00 0. -1.
         21    1    1    2  502  501  0.26048323458E+02  0.18655291311E+02  0.74924140027E+02  0.81487187997E+02  0.00000000000E+00 0. -1.
<scales pt_clust_5="13000.00000" pt_clust_6="13000.00000" pt_clust_7="13000.00000" pt_clust_8="13000.00000" pt_clust_9="32.03959"></scales>
<clustering>
<clus scale="   32.040">  1  9  2 -1</clus>
<clus scale="   90.834">  5  6 -1 -1</clus>
<clus scale="   91.204">  7  8 -1 -1</clus>
<clus scale="   95.635">  2  5  1 -1</clus>
<clus scale="   32.040">  1  5  2 -1</clus>
</clustering>
</event>
<event>
 9    1  0.1803370E-005  0.1486191E+03  0.7546771E-02  0.1202461E+00
          2   -1    0    0  502    0  0.00000000000E+00  0.00000000000E+00  0.63472050000E+03  0.63472050000E+03  0.00000000000E+00 0. -1.
         -2   -1    0    0    0  501 -0.00000000000E+00 -0.00000000000E+00 -0.63956120421E+02  0.63956120421E+02  0.00000000000E+00 0.  1.
         23    2    1    2    0    0  0.34487806083E+02 -0.81391752970E+02  0.14297854999E+03  0.19076200067E+03  0.90184527067E+02 0.  0.
         23    2    1    2    0    0 -0.55549215750E+02  0.14875371732E+03  0.20895882758E+03  0.27798751386E+03  0.91650872611E+02 0.  0.
        -11    1    3    3    0    0 -0.59936017950E+01 -0.41839506697E+02  0.61772313135E+01  0.42715638469E+02  0.00000000000E+00 0.  1.
         11    1    3    3    0    0  0.40481407878E+02 -0.39552246273E+02  0.13680131868E+03  0.14804636220E+03  0.00000000000E+00 0. -1.
        -11    1    4    4    0    0 -0.51858733843E+02  0.28764678188E+02  0.43401467541E+02  0.73487566103E+02  0.00000000000E+00 0.  1.
         11    1    4    4    0    0 -0.36904819072E+01  0.11998903913E+03  0.16555736004E+03  0.20449994776E+03  0.00000000000E+00 0. -1.
         21    1    1    2  502  501  0.21061409668E+02 -0.67361964347E+02  0.21882700200E+03  0.22992710589E+03  0.00000000000E+00 0. -1.
<scales pt_clust_5="13000.00000" pt_clust_6="13000.00000" pt_clust_7="13000.00000" pt_clust_8="13000.00000" pt_clust_9="70.57774"></scales>
<clustering>
<clus scale="   70.578">  1  9  2 -1</clus>
<clus scale="   90.185">  5  6 -1 -1</clus>
<clus scale="   91.651">  7  8 -1 -1</clus>
<clus scale="  147.719">  2  5  1 -1</clus>
<clus scale="   70.578">  1  5  2 -1</clus>
</clustering>
</event>
<event>
 9    1  0.2143411E-005  0.1494975E+03  0.7546771E-02  0.1202467E+00
         -1   -1    0    0    0  501 -0.00000000000E+00  0.00000000000E+00  0.23480702618E+03  0.23480702618E+03  0.00000000000E+00 0.  1.
          1   -1    0    0  502    0  0.00000000000E+00 -0.00000000000E+00 -0.73375085769E+03  0.73375085769E+03  0.00000000000E+00 0. -1.
         23    2    1    2    0    0 -0.11184564315E+03 -0.49734898885E+02  0.19660886959E+03  0.24915343425E+03  0.91866088092E+02 0.  0.
         23    2    1    2    0    0  0.54411113570E+02 -0.88592011399E+01 -0.41533945979E+03  0.42742593270E+03  0.84539968991E+02 0.  0.
        -11    1    4    4    0    0 -0.16990669236E+02  0.14644701304E+02 -0.56344472128E+02  0.60645277283E+02  0.00000000000E+00 0.  1.
         11    1    4    4    0    0  0.71401782806E+02 -0.23503902444E+02 -0.35899498766E+03  0.36678065541E+03  0.00000000000E+00 0. -1.
        -13    1    3    3    0    0 -0.92628198369E+02 -0.34573685937E+02  0.72370862307E+02  0.12252699541E+03  0.00000000000E+00 0.  1.
         13    1    3    3    0    0 -0.19217444777E+02 -0.15161212948E+02  0.12423800728E+03  0.12662643884E+03  0.00000000000E+00 0. -1.
         21    1    1    2  502  501  0.57434529576E+02  0.58594100025E+02 -0.28021324130E+03  0.29197851693E+03  0.00000000000E+00 0. -1.
<scales pt_clust_5="13000.00000" pt_clust_6="13000.00000" pt_clust_7="13000.00000" pt_clust_8="13000.00000" pt_clust_9="82.04873"></scales>
<clustering>
<clus scale="   82.049">  2  9  1 -1</clus>
<clus scale="   84.540">  5  6 -1 -1</clus>
<clus scale="   91.866">  7  8 -1 -1</clus>
<clus scale="  145.111">  2  5  1 -1</clus>
<clus scale="   82.049">  2  5  1 -1</clus>
</clustering>
</event>
<event>
 9    1  0.1803370E-005  0.1262371E+03  0.7546771E-02  0.1234607E+00
         -3   -1    0    0    0  501 -0.00000000000E+00  0.00000000000E+00  0.65658482631E+03  0.65658482631E+03  0.00000000000E+00 0.  1.
          3   -1    0    0  502    0  0.00000000000E+00 -0.00000000000E+00 -0.93719580029E+02  0.93719580029E+02  0.00000000000E+00 0. -1.
         23    2    1    2    0    0  0.26800249068E+02 -0.76847226747E+02  0.58478063969E+03  0.59748508794E+03  0.91631239989E+02 0.  0.
         23    2    1    2    0    0 -0.58561127222E+01  0.83030417749E+02 -0.27208653594E+02  0.13034917595E+03  0.96551812588E+02 0.  0.
        -11    1    3    3    0    0  0.36635784649E+01  0.21317675648E+02  0.11127121053E+03  0.11335407974E+03  0.00000000000E+00 0. -1.
         11    1    3    3    0    0  0.23136670603E+02 -0.98164902395E+02  0.47350942916E+03  0.48413100819E+03  0.00000000000E+00 0.  1.
        -13    1    4    4    0    0 -0.25326784254E+02  0.20446668311E+02  0.29311205015E+02  0.43802499758E+02  0.00000000000E+00 0.  1.
         13    1    4    4    0    0  0.19470671532E+02  0.62583749437E+02 -0.56519858608E+02  0.86546676196E+02  0.00000000000E+00 0. -1.
         21    1    1    2  502  501 -0.20944136345E+02 -0.61831910020E+01  0.52932601854E+01  0.22470142447E+02  0.00000000000E+00 0.  1.
<scales pt_clust_5="13000.00000" pt_clust_6="13000.00000" pt_clust_7="13000.00000" pt_clust_8="13000.00000" pt_clust_9="21.83778"></scales>
<clustering>
<clus scale="   21.838">  2  9  1 -1</clus>
<clus scale="   91.631">  5  6 -1 -1</clus>
<clus scale="   96.552">  7  8 -1 -1</clus>
<clus scale="  122.515">  1  5  2 -1</clus>
<clus scale="   21.838">  2  5  1 -1</clus>
</clustering>
</event>
<event>
 9    1  0.1803370E-005  0.1004152E+03  0.7546771E-02  0.1282893E+00
         -2   -1    0    0    0  501 -0.00000000000E+00  0.00000000000E+00  0.65942165153E+02  0.65942165153E+02  0.00000000000E+00 0.  1.
          2   -1    0    0  502    0  0.00000000000E+00 -0.00000000000E+00 -0.28974681984E+03  0.28974681984E+03  0.00000000000E+00 0. -1.
         23    2    1    2    0    0 -0.28332089493E+02 -0.22427690972E+01 -0.62986748838E+01  0.10092270555E+03  0.96633233842E+02 0.  0.
         23    2    1    2    0    0  0.21781276333E+02 -0.29092000094E+02 -0.18634663293E+03  0.21009318003E+03  0.89962815777E+02 0.  0.
        -11    1    4    4    0    0  0.44687622203E+02 -0.48472201356E+02 -0.11267591365E+03  0.13054654113E+03  0.00000000000E+00 0.  1.
         11    1    4    4    0    0 -0.22906345870E+02  0.19380201262E+02 -0.73670719276E+02  0.79546638902E+02  0.00000000000E+00 0. -1.
        -13    1    3    3    0    0 -0.51056878510E+01 -0.36211979861E+02  0.29026464853E+02  0.46689519121E+02  0.00000000000E+00 0.  1.
         13    1    3    3    0    0 -0.23226401642E+02  0.33969210764E+02 -0.35325139737E+02  0.54233186432E+02  0.00000000000E+00 0. -1.
         21    1    1    2  502  501  0.65508131594E+01  0.31334769191E+02 -0.31159346875E+02  0.44673099411E+02  0.00000000000E+00 0. -1.
<scales pt_clust_5="13000.00000" pt_clust_6="13000.00000" pt_clust_7="13000.00000" pt_clust_8="13000.00000" pt_clust_9="32.01220"></scales>
<clustering>
<clus scale="   32.012">  2  9  1 -1</clus>
<clus scale="   89.963">  5  6 -1 -1</clus>
<clus scale="   94.014">  2  5  1 -1</clus>
<clus scale="   96.633">  7  8 -1 -1</clus>
<clus scale="   32.012">  2  5  1 -1</clus>
</clustering>
</event>
<event>
 9    1  0.1803370E-005  0.1183222E+03  0.7546771E-02  0.1247241E+00
         -1   -1    0    0    0  501 -0.00000000000E+00  0.00000000000E+00  0.31415923612E+02  0.31415923612E+02  0.00000000000E+00 0.  1.
          1   -1    0    0  502    0  0.00000000000E+00 -0.00000000000E+00 -0.69263877050E+03  0.69263877050E+03  0.00000000000E+00 0. -1.
         23    2    1    2    0    0  0.52642094517E+02 -0.58389714702E+02 -0.13519228714E+03  0.18191289124E+03  0.92923606243E+02 0.  0.
         23    2    1    2    0    0 -0.47931880432E+02  0.34647914008E+02 -0.44095613625E+03  0.45369115703E+03  0.88856112707E+02 0.  0.
        -11    1    4    4    0    0  0.11960413904E+02 -0.21123427209E+02 -0.81603210776E+02  0.85137152212E+02  0.00000000000E+00 0.  1.
         11    1    4    4    0    0 -0.59892294336E+02  0.55771341218E+02 -0.35935292547E+03  0.36855400482E+03  0.00000000000E+00 0. -1.
        -13    1    3    3    0    0  0.55108092657E+02 -0.24817138311E+02 -0.22813755180E+02  0.64600771324E+02  0.00000000000E+00 0.  1.
         13    1    3    3    0    0 -0.24659981402E+01 -0.33572576391E+02 -0.11237853196E+03  0.11731211991E+03  0.00000000000E+00 0. -1.
         21    1    1    2  502  501 -0.47102140846E+01  0.23741800693E+02 -0.85074423504E+02  0.88450645850E+02  0.00000000000E+00 0. -1.
<scales pt_clust_5="13000.00000" pt_clust_6="13000.00000" pt_clust_7="13000.00000" pt_clust_8="13000.00000" pt_clust_9="24.20453"></scales>
<clustering>
<clus scale="   24.205">  2  9  1 -1</clus>
<clus scale="   88.856">  5  6 -1 -1</clus>
<clus scale="   92.924">  7  8 -1 -1</clus>
<clus scale="  115.155">  2  5  1 -1</clus>
<clus scale="   24.205">  2  5  1 -1</clus>
</clustering>
</event>
<event>
 9    1  0.1803370E-005  0.1668637E+03  0.7546771E-02  0.1181564E+00
          1   -1    0    0  502    0  0.00000000000E+00  0.00000000000E+00  0.68930431648E+03  0.68930431648E+03  0.00000000000E+00 0. -1.
         -1   -1    0    0    0  501 -0.00000000000E+00 -0.00000000000E+00 -0.12776542671E+03  0.12776542671E+03  0.00000000000E+00 0.  1.
         23    2    1    2    0    0 -0.42685494037E+02 -0.13536637743E+03 -0.54381200242E+02  0.17747310361E+03  0.91614846107E+02 0.  0.
         23    2    1    2    0    0  0.30869655799E+02  0.11426889329E+03  0.51703642855E+03  0.53779930968E+03  0.88831939201E+02 0.  0.
        -13    1    3    3    0    0 -0.37093110264E+02 -0.11434377652E+03 -0.14198919318E+01  0.12021819393E+03  0.00000000000E+00 0.  1.
         13    1    3    3    0    0 -0.55923837731E+01 -0.21022600906E+02 -0.52961308310E+02  0.57254909685E+02  0.00000000000E+00 0. -1.
        -13    1    4    4    0    0  0.38659458265E+02  0.66781324859E+01  0.11329051111E+03  0.11989116345E+03  0.00000000000E+00 0.  1.
         13    1    4    4    0    0 -0.77898024654E+01  0.10759076081E+03  0.40374591744E+03  0.41790814622E+03  0.00000000000E+00 0. -1.
         21    1    1    2  502  501  0.11815838238E+02  0.21097484134E+02  0.98883661459E+02  0.10179732989E+03  0.00000000000E+00 0. -1.
<scales pt_clust_5="13000.00000" pt_clust_6="13000.00000" pt_clust_7="13000.00000" pt_clust_8="13000.00000" pt_clust_9="24.18094"></scales>
<clustering>
<clus scale="   24.181">  1  9  2 -1</clus>
<clus scale="   88.832">  7  8 -1 -1</clus>
<clus scale="   91.615">  5  6 -1 -1</clus>
<clus scale="  165.352">  1  7  2 -1</clus>
<clus scale="   24.181">  1  5  2 -1</clus>
</clustering>
</event>
<event>
 9    1  0.1803370E-005  0.1047672E+03  0.7546771E-02  0.1272570E+00
         -2   -1    0    0    0  501 -0.00000000000E+00  0.00000000000E+00  0.37685421317E+02  0.37685421317E+02  0.00000000000E+00 0.  1.
          2   -1    0    0  502    0  0.00000000000E+00 -0.00000000000E+00 -0.58861079271E+03  0.58861079271E+03  0.00000000000E+00 0. -1.
         23    2    1    2    0    0 -0.63693372666E+02  0.12885086845E+02 -0.11423801857E+03  0.15780059003E+03  0.87337449825E+02 0.  0.
         23    2    1    2    0    0  0.48102871363E+02  0.37380316364E+02 -0.18677421426E+03  0.21310131843E+03  0.82561434814E+02 0.  0.
        -11    1    4    4    0    0  0.43504203968E+02  0.60468594044E+02 -0.11040041181E+03  0.13318152108E+03  0.00000000000E+00 0.  1.
         11    1    4    4    0    0  0.45986673953E+01 -0.23088277679E+02 -0.76373802450E+02  0.79919797351E+02  0.00000000000E+00 0. -1.
        -11    1    3    3    0    0 -0.33305034776E+02 -0.23770955250E+02 -0.84364663840E+01  0.41778674225E+02  0.00000000000E+00 0. -1.
         11    1    3    3    0    0 -0.30388337890E+02  0.36656042095E+02 -0.10580155218E+03  0.11602191580E+03  0.00000000000E+00 0.  1.
         21    1    1    2  502  501  0.15590501303E+02 -0.50265403209E+02 -0.24991313857E+03  0.25539430557E+03  0.00000000000E+00 0.  1.
<scales pt_clust_5="13000.00000" pt_clust_6="13000.00000" pt_clust_7="13000.00000" pt_clust_8="13000.00000" pt_clust_9="52.62770"></scales>
<clustering>
<clus scale="   52.628">  2  9  1 -1</clus>
<clus scale="   82.561">  5  6 -1 -1</clus>
<clus scale="   87.337">  7  8 -1 -1</clus>
<clus scale="  100.820">  2  5  1 -1</clus>
<clus scale="   52.628">  2  5  1 -1</clus>
</clustering>
</event>
<event>
 9    1  0.1803370E-005  0.9771443E+02  0.7546771E-02  0.1285487E+00
          2   -1    0    0  502    0  0.00000000000E+00  0.00000000000E+00  0.16428707176E+03  0.16428707176E+03  0.00000000000E+00 0. -1.
         -2   -1    0    0    0  501 -0.00000000000E+00 -0.00000000000E+00 -0.13905759791E+03  0.13905759791E+03  0.00000000000E+00 0.  1.
         23    2    1    2    0    0 -0.23514012135E+02  0.19732388729E+02 -0.49806807233E+02  0.10747322560E+03  0.90152649674E+02 0.  0.
         23    2    1    2    0    0  0.11632905594E+02 -0.48724171670E+02 -0.11050656006E+02  0.10426006427E+03  0.90767144968E+02 0.  0.
        -11    1    3    3    0    0 -0.44634963752E+02  0.43963612319E+02 -0.27951780531E+02  0.68603070136E+02  0.00000000000E+00 0.  1.
         11    1    3    3    0    0  0.21120951617E+02 -0.24231223590E+02 -0.21855026702E+02  0.38870155467E+02  0.00000000000E+00 0. -1.
        -13    1    4    4    0    0  0.12077298351E+02  0.23254653751E+02 -0.18232030865E+02  0.31922515659E+02  0.00000000000E+00 0.  1.
         13    1    4    4    0    0 -0.44439275680E+00 -0.71978825421E+02  0.71813748591E+01  0.72337548609E+02  0.00000000000E+00 0. -1.
         21    1    1    2  502  501  0.11881106541E+02  0.28991782940E+02  0.86086937087E+02  0.91611379794E+02  0.00000000000E+00 0. -1.
<scales pt_clust_5="13000.00000" pt_clust_6="13000.00000" pt_clust_7="13000.00000" pt_clust_8="13000.00000" pt_clust_9="31.33184"></scales>
<clustering>
<clus scale="   31.332">  1  9  2 -1</clus>
<clus scale="   90.153">  5  6 -1 -1</clus>
<clus scale="   90.767">  7  8 -1 -1</clus>
<clus scale="   97.144">  2  5  1 -1</clus>
<clus scale="   31.332">  1  5  2 -1</clus>
</clustering>
</event>
<event>
 9    1  0.1803370E-005  0.1968387E+03  0.7546771E-02  0.1152743E+00
          1   -1    0    0  502    0  0.00000000000E+00  0.00000000000E+00  0.12415536460E+04  0.12415536460E+04  0.00000000000E+00 0. -1.
         -1   -1    0    0    0  501 -0.00000000000E+00 -0.00000000000E+00 -0.36099751498E+02  0.36099751498E+02  0.00000000000E+00 0.  1.
         23    2    1    2    0    0 -0.17367792316E+03 -0.38027884853E+02  0.53753964071E+03  0.57395593444E+03  0.94161607490E+02 0.  0.
         23    2    1    2    0    0  0.16899139295E+03  0.14460392363E+02  0.63039134533E+03  0.65914009635E+03  0.91133004543E+02 0.  0.
        -13    1    3    3    0    0 -0.24579202265E+02  0.13572328651E+01  0.14310154936E+02  0.28473844126E+02  0.00000000000E+00 0.  1.
         13    1    3    3    0    0 -0.14909872090E+03 -0.39385117718E+02  0.52322948578E+03  0.54548209032E+03  0.00000000000E+00 0. -1.
        -13    1    4    4    0    0  0.11124023303E+03  0.40842934970E+02  0.29720830537E+03  0.31996142199E+03  0.00000000000E+00 0.  1.
         13    1    4    4    0    0  0.57751159925E+02 -0.26382542607E+02  0.33318303996E+03  0.33917867437E+03  0.00000000000E+00 0. -1.
         21    1    1    2  502  501  0.46865302078E+01  0.23567492490E+02  0.37522908437E+02  0.44557366678E+02  0.00000000000E+00 0.  1.
<scales pt_clust_5="13000.00000" pt_clust_6="13000.00000" pt_clust_7="13000.00000" pt_clust_8="13000.00000" pt_clust_9="24.02895"></scales>
<clustering>
<clus scale="   24.029">  2  9  1 -1</clus>
<clus scale="   91.133">  7  8 -1 -1</clus>
<clus scale="   94.162">  5  6 -1 -1</clus>
<clus scale="  195.408">  1  7  2 -1</clus>
<clus scale="  195.408">  1  5  2 -1</clus>
</clustering>
</event>
<event>
 9    1  0.1803370E-005  0.1025523E+03  0.7546771E-02  0.1277563E+00
          1   -1    0    0  502    0  0.00000000000E+00  0.00000000000E+00  0.17763672135E+03  0.17763672135E+03  0.00000000000E+00 0. -1.
         -1   -1    0    0    0  501 -0.00000000000E+00 -0.00000000000E+00 -0.17515349603E+03  0.17515349603E+03  0.00000000000E+00 0.  1.
         23    2    1    2    0    0  0.20354079359E+02  0.26394399293E+02 -0.55964679122E+02  0.11643878939E+03  0.96514213998E+02 0.  0.
         23    2    1    2    0    0  0.44020240287E+02 -0.43096756899E+02 -0.40301741484E+02  0.11729465856E+03  0.91316452787E+02 0.  0.
        -11    1    3    3    0    0 -0.96696140945E+01 -0.28453775266E+02  0.33687759651E+01  0.30240162287E+02  0.00000000000E+00 0. -1.
         11    1    3    3    0    0  0.30023693453E+02  0.54848174559E+02 -0.59333455087E+02  0.86198627098E+02  0.00000000000E+00 0.  1.
        -13    1    4    4    0    0 -0.25993110104E+02  0.19193247732E+01 -0.35459783616E+01  0.26303983406E+02  0.00000000000E+00 0.  1.
         13    1    4    4    0    0  0.70013350391E+02 -0.45016081672E+02 -0.36755763122E+02  0.90990675153E+02  0.00000000000E+00 0. -1.
         21    1    1    2  502  501 -0.64374319646E+02  0.16702357606E+02  0.98749645923E+02  0.11905676944E+03  0.00000000000E+00 0. -1.
<scales pt_clust_5="13000.00000" pt_clust_6="13000.00000" pt_clust_7="13000.00000" pt_clust_8="13000.00000" pt_clust_9="66.50580"></scales>
<clustering>
<clus scale="   66.506">  1  9  2 -1</clus>
<clus scale="   91.316">  7  8 -1 -1</clus>
<clus scale="   96.514">  5  6 -1 -1</clus>
<clus scale="   97.676">  1  7  2 -1</clus>
<clus scale="   66.506">  1  5  2 -1</clus>
</clustering>
</event>
<event>
 9    1  0.1803370E-005  0.1462295E+03  0.7546771E-02  0.1207108E+00
          1   -1    0    0  502    0  0.00000000000E+00  0.00000000000E+00  0.52904452480E+02  0.52904452480E+02  0.00000000000E+00 0. -1.
         -1   -1    0    0    0  501 -0.00000000000E+00 -0.00000000000E+00 -0.49365017334E+03  0.49365017334E+03  0.00000000000E+00 0.  1.
         23    2    1    2    0    0 -0.86027639526E+02  0.84670656628E+02 -0.30524472848E+03  0.33840016786E+03  0.82282771532E+02 0.  0.
         23    2    1    2    0    0  0.74345508195E+02 -0.66707627609E+02 -0.10946475007E+03  0.17443460448E+03  0.92020310611E+02 0.  0.
        -11    1    3    3    0    0 -0.34088130684E+02  0.72550321946E+02 -0.24577802550E+03  0.25851960794E+03  0.00000000000E+00 0. -1.
         11    1    3    3    0    0 -0.51939508842E+02  0.12120334682E+02 -0.59466702975E+02  0.79880559927E+02  0.00000000000E+00 0.  1.
        -13    1    4    4    0    0  0.49261666333E+02 -0.57581621277E+02 -0.12302865767E+03  0.14449361746E+03  0.00000000000E+00 0.  1.
         13    1    4    4    0    0  0.25083841862E+02 -0.91260063320E+01  0.13563907609E+02  0.29940987021E+02  0.00000000000E+00 0. -1.
         21    1    1    2  502  501  0.11682131332E+02 -0.17963029020E+02 -0.26036242313E+02  0.33719853467E+02  0.00000000000E+00 0. -1.
<scales pt_clust_5="13000.00000" pt_clust_6="13000.00000" pt_clust_7="13000.00000" pt_clust_8="13000.00000" pt_clust_9="21.42761"></scales>
<clustering>
<clus scale="   21.428">  1  9  2 -1</clus>
<clus scale="   82.283">  5  6 -1 -1</clus>
<clus scale="   92.020">  7  8 -1 -1</clus>
<clus scale="  140.306">  2  5  1 -1</clus>
<clus scale="   21.428">  1  5  2 -1</clus>
</clustering>
</event>
<event>
 9    1  0.1803370E-005  0.1484491E+03  0.7546771E-02  0.1202909E+00
         -1   -1    0    0    0  501 -0.00000000000E+00  0.00000000000E+00  0.73590806084E+02  0.73590806084E+02  0.00000000000E+00 0.  1.
          1   -1    0    0  502    0  0.00000000000E+00 -0.00000000000E+00 -0.46994803355E+03  0.46994803355E+03  0.00000000000E+00 0. -1.
         23    2    1    2    0    0  0.86123162696E+02 -0.66170566720E+02 -0.90073501830E+02  0.16777302844E+03  0.90767892386E+02 0.  0.
         23    2    1    2    0    0 -0.68540026302E+02  0.11341479005E+03 -0.19500742559E+03  0.25360363097E+03  0.93414430356E+02 0.  0.
        -11    1    3    3    0    0  0.47761784963E+02 -0.83161987834E+02 -0.44170653204E+02  0.10558480444E+03  0.00000000000E+00 0.  1.
         11    1    3    3    0    0  0.38361377734E+02  0.16991421114E+02 -0.45902848626E+02  0.62188224007E+02  0.00000000000E+00 0. -1.
        -13    1    4    4    0    0 -0.73126356728E+02  0.81206956237E+02 -0.83732452934E+02  0.13767046693E+03  0.00000000000E+00 0.  1.
         13    1    4    4    0    0  0.45863304268E+01  0.32207833817E+02 -0.11127497266E+03  0.11593316404E+03  0.00000000000E+00 0. -1.
         21    1    1    2  502  501 -0.17583136395E+02 -0.47244223334E+02 -0.11127630005E+03  0.12216218022E+03  0.00000000000E+00 0.  1.
<scales pt_clust_5="13000.00000" pt_clust_6="13000.00000" pt_clust_7="13000.00000" pt_clust_8="13000.00000" pt_clust_9="50.41015"></scales>
<clustering>
<clus scale="   50.410">  2  9  1 -1</clus>
<clus scale="   90.768">  5  6 -1 -1</clus>
<clus scale="   93.414">  7  8 -1 -1</clus>
<clus scale="  146.798">  1  5  2 -1</clus>
<clus scale="   50.410">  2  5  1 -1</clus>
</clustering>
</event>
<event>
 9    1  0.1803370E-005  0.1148568E+03  0.7546771E-02  0.1260477E+00
         -2   -1    0    0    0  501 -0.00000000000E+00  0.00000000000E+00  0.23321928624E+02  0.23321928624E+02  0.00000000000E+00 0.  1.
          2   -1    0    0  502    0  0.00000000000E+00 -0.00000000000E+00 -0.69788477818E+03  0.69788477818E+03  0.00000000000E+00 0. -1.
         23    2    1    2    0    0 -0.20143484144E+02 -0.15908410096E+01 -0.18486533259E+03  0.21616897008E+03  0.11020681334E+03 0.  0.
         23    2    1    2    0    0  0.34315794945E+02 -0.14477426177E+02 -0.44030335338E+03  0.45119698078E+03  0.91238713352E+02 0.  0.
        -13    1    3    3    0    0  0.18938376962E+02  0.30029206632E+02 -0.15203914513E+03  0.15612916776E+03  0.00000000000E+00 0. -1.
         13    1    3    3    0    0 -0.39081861106E+02 -0.31620047642E+02 -0.32826187457E+02  0.60039802326E+02  0.00000000000E+00 0.  1.
        -13    1    4    4    0    0  0.64831952712E+02 -0.14257810623E+02 -0.33721638250E+03  0.34368787567E+03  0.00000000000E+00 0. -1.
         13    1    4    4    0    0 -0.30516157767E+02 -0.21961555386E+00 -0.10308697088E+03  0.10750910511E+03  0.00000000000E+00 0.  1.
         21    1    1    2  502  501 -0.14172310801E+02  0.16068267186E+02 -0.49394163585E+02  0.53840755939E+02  0.00000000000E+00 0.  1.
<scales pt_clust_5="13000.00000" pt_clust_6="13000.00000" pt_clust_7="13000.00000" pt_clust_8="13000.00000" pt_clust_9="21.42530"></scales>
<clustering>
<clus scale="   21.425">  1  9  2 -1</clus>
<clus scale="   91.239">  7  8 -1 -1</clus>
<clus scale="   96.804">  2  7  1 -1</clus>
<clus scale="  110.207">  5  6 -1 -1</clus>
<clus scale="   96.804">  2  5  1 -1</clus>
</clustering>
</event>
<event>
 9    1  0.1803370E-005  0.1072118E+03  0.7546771E-02  0.1268782E+00
          4   -1    0    0  502    0  0.00000000000E+00  0.00000000000E+00  0.31325967945E+03  0.31325967945E+03  0.00000000000E+00 0. -1.
         -4   -1    0    0    0  501 -0.00000000000E+00 -0.00000000000E+00 -0.45360992420E+02  0.45360992420E+02  0.00000000000E+00 0.  1.
         23    2    1    2    0    0  0.95150125961E+01 -0.44328399454E+02  0.88218439955E+02  0.13921016523E+03  0.97680266649E+02 0.  0.
         23    2    1    2    0    0  0.14221014552E+02  0.43994053874E+02  0.14821629747E+03  0.17999615778E+03  0.91064987490E+02 0.  0.
        -11    1    3    3    0    0 -0.35668198169E+02  0.29787975866E+01  0.98433096107E+01  0.37121211453E+02  0.00000000000E+00 0.  1.
         11    1    3    3    0    0  0.45183210765E+02 -0.47307197040E+02  0.78375130344E+02  0.10208895378E+03  0.00000000000E+00 0. -1.
        -13    1    4    4    0    0  0.13844373185E+02 -0.17050388638E+02  0.26185298640E+01  0.22118750422E+02  0.00000000000E+00 0. -1.
         13    1    4    4    0    0  0.37664136728E+00  0.61044442512E+02  0.14559776761E+03  0.15787740736E+03  0.00000000000E+00 0.  1.
         21    1    1    2  502  501 -0.23736027148E+02  0.33434557964E+00  0.31463949602E+02  0.39414348863E+02  0.00000000000E+00 0. -1.
<scales pt_clust_5="13000.00000" pt_clust_6="13000.00000" pt_clust_7="13000.00000" pt_clust_8="13000.00000" pt_clust_9="23.73838"></scales>
<clustering>
<clus scale="   23.738">  1  9  2 -1</clus>
<clus scale="   91.065">  7  8 -1 -1</clus>
<clus scale="   97.680">  5  6 -1 -1</clus>
<clus scale="  101.221">  1  7  2 -1</clus>
<clus scale="   23.738">  1  5  2 -1</clus>
</clustering>
</event>
<event>
 9    1  0.1803370E-005  0.2100048E+03  0.7546771E-02  0.1141592E+00
          2   -1    0    0  502    0  0.00000000000E+00  0.00000000000E+00  0.16235590878E+04  0.16235590878E+04  0.00000000000E+00 0. -1.
         -2   -1    0    0    0  501 -0.00000000000E+00 -0.00000000000E+00 -0.37744195674E+02  0.37744195674E+02  0.00000000000E+00 0.  1.
         23    2    1    2    0    0 -0.42658188368E+02 -0.19780133108E+03  0.48974616768E+03  0.53801194315E+03  0.93061563499E+02 0.  0.
         23    2    1    2    0    0 -0.24882832955E+01  0.16731062184E+03  0.85854818515E+03  0.87960323261E+03  0.92724456658E+02 0.  0.
        -11    1    4    4    0    0 -0.45531634849E+02  0.11418418338E+03  0.55270028288E+03  0.56620558122E+03  0.00000000000E+00 0. -1.
         11    1    4    4    0    0  0.43043351554E+02  0.53126438454E+02  0.30584790227E+03  0.31339765140E+03  0.00000000000E+00 0.  1.
        -13    1    3    3    0    0  0.21014553551E+02 -0.12166379046E+03  0.27324023763E+03  0.29983981862E+03  0.00000000000E+00 0.  1.
         13    1    3    3    0    0 -0.63672741920E+02 -0.76137540617E+02  0.21650593005E+03  0.23817212453E+03  0.00000000000E+00 0. -1.
         21    1    1    2  502  501  0.45146471664E+02  0.30490709243E+02  0.23752053929E+03  0.24368810770E+03  0.00000000000E+00 0. -1.
<scales pt_clust_5="13000.00000" pt_clust_6="13000.00000" pt_clust_7="13000.00000" pt_clust_8="13000.00000" pt_clust_9="54.47832"></scales>
<clustering>
<clus scale="   54.478">  1  9  2 -1</clus>
<clus scale="   92.724">  5  6 -1 -1</clus>
<clus scale="   93.062">  7  8 -1 -1</clus>
<clus scale="  209.856">  1  5  2 -1</clus>
<clus scale="   54.478">  1  5  2 -1</clus>
</clustering>
</event>
<event>
 9    1  0.1803370E-005  0.1069440E+03  0.7546771E-02  0.1266354E+00
          2   -1    0    0  502    0  0.00000000000E+00  0.00000000000E+00  0.39608937518E+02  0.39608937518E+02  0.00000000000E+00 0. -1.
         -2   -1    0    0    0  501 -0.00000000000E+00 -0.00000000000E+00 -0.62488539894E+03  0.62488539894E+03  0.00000000000E+00 0.  1.
         23    2    1    2    0    0 -0.69719408968E+02  0.61213110106E+00 -0.38614360811E+03  0.40318677550E+03  0.92690448063E+02 0.  0.
         23    2    1    2    0    0  0.31182739845E+02  0.57968070510E+01 -0.19946241428E+03  0.22224020929E+03  0.92733433455E+02 0.  0.
        -11    1    3    3    0    0 -0.20620569762E+01  0.33733481015E+02 -0.19179547226E+03  0.19475036072E+03  0.00000000000E+00 0.  1.
         11    1    3    3    0    0 -0.67657351992E+02 -0.33121349914E+02 -0.19434813585E+03  0.20843641478E+03  0.00000000000E+00 0. -1.
        -13    1    4    4    0    0  0.49195587793E+02 -0.18576632887E+02 -0.61172780945E+02  0.80668496182E+02  0.00000000000E+00 0. -1.
         13    1    4    4    0    0 -0.18012847948E+02  0.24373439938E+02 -0.13828963333E+03  0.14157171311E+03  0.00000000000E+00 0.  1.
         21    1    1    2  502  501  0.38536669123E+02 -0.64089381521E+01  0.32956097247E+00  0.39067351660E+02  0.00000000000E+00 0. -1.
<scales pt_clust_5="13000.00000" pt_clust_6="13000.00000" pt_clust_7="13000.00000" pt_clust_8="13000.00000" pt_clust_9="39.06596"></scales>
<clustering>
<clus scale="   39.066">  1  9  2 -1</clus>
<clus scale="   92.690">  5  6 -1 -1</clus>
<clus scale="   92.733">  7  8 -1 -1</clus>
<clus scale="  106.907">  2  5  1 -1</clus>
<clus scale="   39.066">  1  5  2 -1</clus>
</clustering>
</event>
<event>
 9    1  0.1803370E-005  0.1056053E+03  0.7546771E-02  0.1271634E+00
          1   -1    0    0  502    0  0.00000000000E+00  0.00000000000E+00  0.15214414469E+03  0.15214414469E+03  0.00000000000E+00 0. -1.
         -1   -1    0    0    0  501 -0.00000000000E+00 -0.00000000000E+00 -0.11514965890E+03  0.11514965890E+03  0.00000000000E+00 0.  1.
         23    2    1    2    0    0  0.51109924731E+02  0.65335040296E+01 -0.18295942969E+02  0.10662786791E+03  0.91541518480E+02 0.  0.
         23    2    1    2    0    0 -0.28679463615E+02  0.23656241981E+01  0.13433167805E+01  0.10156761963E+03  0.97396452940E+02 0.  0.
        -11    1    4    4    0    0 -0.50715368462E+02 -0.13439506923E+02  0.31353284962E+02  0.61120351950E+02  0.00000000000E+00 0.  1.
         11    1    4    4    0    0  0.22035904847E+02  0.15805131121E+02 -0.30009968182E+02  0.40447267676E+02  0.00000000000E+00 0. -1.
        -13    1    3    3    0    0  0.21929644464E+02  0.17781487539E+02 -0.52914585977E+02  0.59975361729E+02  0.00000000000E+00 0.  1.
         13    1    3    3    0    0  0.29180280267E+02 -0.11247983509E+02  0.34618643008E+02  0.46652506184E+02  0.00000000000E+00 0. -1.
         21    1    1    2  502  501 -0.22430461116E+02 -0.88991282276E+01  0.53947111980E+02  0.59098316051E+02  0.00000000000E+00 0. -1.
<scales pt_clust_5="13000.00000" pt_clust_6="13000.00000" pt_clust_7="13000.00000" pt_clust_8="13000.00000" pt_clust_9="24.13131"></scales>
<clustering>
<clus scale="   24.131">  1  9  2 -1</clus>
<clus scale="   91.542">  7  8 -1 -1</clus>
<clus scale="   97.396">  5  6 -1 -1</clus>
<clus scale="  100.231">  2  7  1 -1</clus>
<clus scale="   24.131">  1  5  2 -1</clus>
</clustering>
</event>
<event>
 9    1  0.1803370E-005  0.1611592E+03  0.7546771E-02  0.1211592E+00
         -2   -1    0    0    0  501 -0.00000000000E+00  0.00000000000E+00  0.40522683233E+03  0.40522683233E+03  0.00000000000E+00 0.  1.
          2   -1    0    0  502    0  0.00000000000E+00 -0.00000000000E+00 -0.42990548942E+03  0.42990548942E+03  0.00000000000E+00 0. -1.
         23    2    1    2    0    0 -0.17140869644E+02 -0.12941248641E+03  0.33061164766E+03  0.36746470761E+03  0.93192535770E+02 0.  0.
         23    2    1    2    0    0 -0.14504451596E+02 -0.17259787177E+02 -0.15852121662E+02  0.96544370016E+02  0.92527002821E+02 0.  0.
        -11    1    4    4    0    0 -0.43757668592E+02 -0.38793607978E+02 -0.14226764118E+02  0.60183705418E+02  0.00000000000E+00 0.  1.
         11    1    4    4    0    0  0.29253216996E+02  0.21533820800E+02 -0.16253575441E+01  0.36360664598E+02  0.00000000000E+00 0. -1.
        -13    1    3    3    0    0 -0.46293279129E+02 -0.51144413876E+02  0.94382546112E+02  0.11690544801E+03  0.00000000000E+00 0. -1.
         13    1    3    3    0    0  0.29152409485E+02 -0.78268072530E+02  0.23622910155E+03  0.25055925960E+03  0.00000000000E+00 0.  1.
         21    1    1    2  502  501  0.31645321241E+02  0.14667227358E+03 -0.33943818309E+03  0.37112324413E+03  0.00000000000E+00 0. -1.
<scales pt_clust_5="13000.00000" pt_clust_6="13000.00000" pt_clust_7="13000.00000" pt_clust_8="13000.00000" pt_clust_9="131.48165"></scales>
<clustering>
<clus scale="   92.527">  5  6 -1 -1</clus>
<clus scale="   93.193">  7  8 -1 -1</clus>
<clus scale="   95.234">  2  5  1 -1</clus>
<clus scale="  131.482">  2  9  1 -1</clus>
<clus scale="   95.234">  2  5  1 -1</clus>
</clustering>
</event>
<event>
 9    1  0.1803370E-005  0.1123387E+03  0.7546771E-02  0.1256949E+00
          1   -1    0    0  502    0  0.00000000000E+00  0.00000000000E+00  0.15868644526E+03  0.15868644526E+03  0.00000000000E+00 0. -1.
         -1   -1    0    0    0  501 -0.00000000000E+00 -0.00000000000E+00 -0.13440124833E+03  0.13440124833E+03  0.00000000000E+00 0.  1.
         23    2    1    2    0    0 -0.23953064088E+02  0.47194183959E+02 -0.46270141332E+02  0.11587295583E+03  0.92111756229E+02 0.  0.
         23    2    1    2    0    0  0.44223076238E+02 -0.75042996765E+02  0.57976015620E+02  0.14054500739E+03  0.93832557681E+02 0.  0.
        -13    1    4    4    0    0  0.38198031830E+02 -0.50570135377E+02 -0.13463804867E+02  0.64789677181E+02  0.00000000000E+00 0. -1.
         13    1    4    4    0    0  0.60250444081E+01 -0.24472861388E+02  0.71439820486E+02  0.75755330213E+02  0.00000000000E+00 0.  1.
        -13    1    3    3    0    0 -0.18059423080E+02  0.70170061174E+02 -0.10879927870E+02  0.73269045835E+02  0.00000000000E+00 0. -1.
         13    1    3    3    0    0 -0.58936410079E+01 -0.22975877215E+02 -0.35390213463E+02  0.42603909997E+02  0.00000000000E+00 0.  1.
         21    1    1    2  502  501 -0.20270012150E+02  0.27848812806E+02  0.12579322642E+02  0.36669730370E+02  0.00000000000E+00 0.  1.
<scales pt_clust_5="13000.00000" pt_clust_6="13000.00000" pt_clust_7="13000.00000" pt_clust_8="13000.00000" pt_clust_9="34.44459"></scales>
<clustering>
<clus scale="   34.445">  1  9  2 -1</clus>
<clus scale="   92.112">  7  8 -1 -1</clus>
<clus scale="   93.833">  5  6 -1 -1</clus>
<clus scale="  110.905">  2  7  1 -1</clus>
<clus scale="   34.445">  1  5  2 -1</clus>
</clustering>
</event>
<event>
 9    1  0.1803370E-005  0.1203627E+03  0.7546771E-02  0.1252809E+00
         -1   -1    0    0    0  501 -0.00000000000E+00  0.00000000000E+00  0.31758015751E+03  0.31758015751E+03  0.00000000000E+00 0.  1.
          1   -1    0    0  502    0  0.00000000000E+00 -0.00000000000E+00 -0.19730464944E+03  0.19730464944E+03  0.00000000000E+00 0. -1.
         23    2    1    2    0    0 -0.35501464041E+02 -0.36941106783E+01  0.28300299322E+03  0.30759138169E+03  0.11509892924E+03 0.  0.
         23    2    1    2    0    0  0.25830938630E+02  0.22538048939E+02 -0.15784442214E+03  0.18555734063E+03  0.91331615670E+02 0.  0.
        -11    1    4    4    0    0 -0.27245395679E+02 -0.11937543191E+02 -0.26836922026E+02  0.40062911863E+02  0.00000000000E+00 0.  1.
         11    1    4    4    0    0  0.53076334309E+02  0.34475592130E+02 -0.13100750011E+03  0.14549442876E+03  0.00000000000E+00 0. -1.
        -13    1    3    3    0    0 -0.58399371003E+01  0.54312583179E+02  0.11237777533E+03  0.12495089414E+03  0.00000000000E+00 0. -1.
         13    1    3    3    0    0 -0.29661526941E+02 -0.58006693857E+02  0.17062521789E+03  0.18264048755E+03  0.00000000000E+00 0.  1.
         21    1    1    2  502  501  0.96705254111E+01 -0.18843938261E+02 -0.48830630132E+01  0.21736084636E+02  0.00000000000E+00 0. -1.
<scales pt_clust_5="13000.00000" pt_clust_6="13000.00000" pt_clust_7="13000.00000" pt_clust_8="13000.00000" pt_clust_9="21.18049"></scales>
<clustering>
<clus scale="   21.180">  2  9  1 -1</clus>
<clus scale="   91.332">  5  6 -1 -1</clus>
<clus scale="   97.882">  2  5  1 -1</clus>
<clus scale="  115.099">  7  8 -1 -1</clus>
<clus scale="   21.180">  2  5  1 -1</clus>
</clustering>
</event>
<event>
 9    1  0.1803370E-005  0.1355978E+03  0.7546771E-02  0.1219538E+00
         -1   -1    0    0    0  501 -0.00000000000E+00  0.00000000000E+00  0.46917121371E+02  0.46917121371E+02  0.00000000000E+00 0.  1.
          1   -1    0    0  502    0  0.00000000000E+00 -0.00000000000E+00 -0.10093043476E+04  0.10093043476E+04  0.00000000000E+00 0. -1.
         23    2    1    2    0    0 -0.25510553987E+02 -0.10599082356E+03 -0.15918396353E+03  0.21274757958E+03  0.89650183111E+02 0.  0.
         23    2    1    2    0    0  0.11106009736E+03  0.43476011260E+02 -0.41825803672E+03  0.44421250492E+03  0.90335239296E+02 0.  0.
        -11    1    3    3    0    0 -0.59141071353E+02 -0.66874400562E+02 -0.10731677119E+03  0.13959491807E+03  0.00000000000E+00 0.  1.
         11    1    3    3    0    0  0.33630517366E+02 -0.39116422993E+02 -0.51867192336E+02  0.73152661516E+02  0.00000000000E+00 0. -1.
        -11    1    4    4    0    0  0.11354916906E+03  0.86856693752E+01 -0.29877688016E+03  0.31974439598E+03  0.00000000000E+00 0.  1.
         11    1    4    4    0    0 -0.24890717024E+01  0.34790341885E+02 -0.11948115657E+03  0.12446810893E+03  0.00000000000E+00 0. -1.
         21    1    1    2  502  501 -0.85549543368E+02  0.62514812295E+02 -0.38494522594E+03  0.39926138444E+03  0.00000000000E+00 0. -1.
<scales pt_clust_5="13000.00000" pt_clust_6="13000.00000" pt_clust_7="13000.00000" pt_clust_8="13000.00000" pt_clust_9="105.95672"></scales>
<clustering>
<clus scale="   89.650">  5  6 -1 -1</clus>
<clus scale="   90.335">  7  8 -1 -1</clus>
<clus scale="  105.957">  2  9  1 -1</clus>
<clus scale="  135.142">  1  5  2 -1</clus>
<clus scale="  105.957">  2  5  1 -1</clus>
</clustering>
</event>
<event>
 9    1  0.1803370E-005  0.1184177E+03  0.7546771E-02  0.1248392E+00
          1   -1    0    0  502    0  0.00000000000E+00  0.00000000000E+00  0.16926391629E+03  0.16926391629E+03  0.00000000000E+00 0. -1.
         -1   -1    0    0    0  501 -0.00000000000E+00 -0.00000000000E+00 -0.20788210209E+03  0.20788210209E+03  0.00000000000E+00 0.  1.
         23    2    1    2    0    0  0.55037022526E+02 -0.14795259050E+02 -0.10900267960E+03  0.15797464462E+03  0.99128354381E+02 0.  0.
         23    2    1    2    0    0 -0.73685394460E+02  0.37463476213E+02 -0.19174731161E+02  0.12492454560E+03  0.91681090584E+02 0.  0.
        -11    1    3    3    0    0  0.14427899371E+02  0.38336350887E+02 -0.17268428294E+02  0.44452656786E+02  0.00000000000E+00 0. -1.
         11    1    3    3    0    0  0.40609123155E+02 -0.53131609937E+02 -0.91734251307E+02  0.11352198783E+03  0.00000000000E+00 0.  1.
        -13    1    4    4    0    0 -0.50145681684E+02  0.67925255874E+02 -0.78395674529E+01  0.84793210783E+02  0.00000000000E+00 0. -1.
         13    1    4    4    0    0 -0.23539712777E+02 -0.30461779660E+02 -0.11335163708E+02  0.40131334814E+02  0.00000000000E+00 0.  1.
         21    1    1    2  502  501  0.18648371934E+02 -0.22668217163E+02  0.89559224957E+02  0.94246828169E+02  0.00000000000E+00 0. -1.
<scales pt_clust_5="13000.00000" pt_clust_6="13000.00000" pt_clust_7="13000.00000" pt_clust_8="13000.00000" pt_clust_9="29.35319"></scales>
<clustering>
<clus scale="   29.353">  1  9  2 -1</clus>
<clus scale="   91.681">  7  8 -1 -1</clus>
<clus scale="   99.128">  5  6 -1 -1</clus>
<clus scale="  112.257">  1  7  2 -1</clus>
<clus scale="   29.353">  1  5  2 -1</clus>
</clustering>
</event>
<event>
 9    1  0.1803370E-005  0.2047862E+03  0.7546771E-02  0.1147084E+00
         -2   -1    0    0    0  501 -0.00000000000E+00  0.00000000000E+00  0.21135705850E+03  0.21135705850E+03  0.00000000000E+00 0.  1.
          2   -1    0    0  502    0  0.00000000000E+00 -0.00000000000E+00 -0.27959758653E+03  0.27959758653E+03  0.00000000000E+00 0. -1.
         23    2    1    2    0    0  0.37365463631E+02 -0.15557011498E+03 -0.14861125917E+01  0.18626322989E+03  0.95360074098E+02 0.  0.
         23    2    1    2    0    0 -0.79472839450E+02  0.17466530660E+03  0.39488973115E+01  0.22021292157E+03  0.10795478450E+03 0.  0.
        -13    1    4    4    0    0  0.40128451438E+01  0.38642245287E+02 -0.38882948294E+02  0.54965532063E+02  0.00000000000E+00 0. -1.
         13    1    4    4    0    0 -0.83485684594E+02  0.13602306131E+03  0.42831845605E+02  0.16524738950E+03  0.00000000000E+00 0.  1.
        -13    1    3    3    0    0  0.28537963739E+02 -0.36241418068E+02 -0.39484662002E+02  0.60719801477E+02  0.00000000000E+00 0. -1.
         13    1    3    3    0    0  0.88274998921E+01 -0.11932869691E+03  0.37998549410E+02  0.12554342842E+03  0.00000000000E+00 0.  1.
         21    1    1    2  502  501  0.42107375819E+02 -0.19095191614E+02 -0.70703312756E+02  0.84478493569E+02  0.00000000000E+00 0. -1.
<scales pt_clust_5="13000.00000" pt_clust_6="13000.00000" pt_clust_7="13000.00000" pt_clust_8="13000.00000" pt_clust_9="46.23481"></scales>
<clustering>
<clus scale="   46.235">  2  9  1 -1</clus>
<clus scale="   95.360">  7  8 -1 -1</clus>
<clus scale="  107.955">  5  6 -1 -1</clus>
<clus scale="  198.436">  1  7  2 -1</clus>
<clus scale="   46.235">  2  5  1 -1</clus>
</clustering>
</event>
<event>
 9    1  0.1803370E-005  0.1410160E+03  0.7546771E-02  0.1212604E+00
         -2   -1    0    0    0  501 -0.00000000000E+00  0.00000000000E+00  0.37134663918E+02  0.37134663918E+02  0.00000000000E+00 0.  1.
          2   -1    0    0  502    0  0.00000000000E+00 -0.00000000000E+00 -0.64220736807E+03  0.64220736807E+03  0.00000000000E+00 0. -1.
         23    2    1    2    0    0 -0.90672480885E+02 -0.63060633141E+02 -0.22313094274E+03  0.26613067188E+03  0.94021139458E+02 0.  0.
         23    2    1    2    0    0  0.70292537734E+02  0.69701654012E+02 -0.30557707743E+03  0.33389547141E+03  0.91156317071E+02 0.  0.
        -11    1    4    4    0    0  0.34810578577E+02  0.75482465644E+02 -0.12733665936E+03  0.15206578779E+03  0.00000000000E+00 0. -1.
         11    1    4    4    0    0  0.35481959158E+02 -0.57808116318E+01 -0.17824041807E+03  0.18182968361E+03  0.00000000000E+00 0.  1.
        -13    1    3    3    0    0 -0.28300150196E+02 -0.50674131695E+02 -0.18042501057E+03  0.18953086969E+03  0.00000000000E+00 0. -1.
         13    1    3    3    0    0 -0.62372330689E+02 -0.12386501446E+02 -0.42705932168E+02  0.76599802192E+02  0.00000000000E+00 0.  1.
         21    1    1    2  502  501  0.20379943151E+02 -0.66410208713E+01 -0.76364683974E+02  0.79315888695E+02  0.00000000000E+00 0. -1.
<scales pt_clust_5="13000.00000" pt_clust_6="13000.00000" pt_clust_7="13000.00000" pt_clust_8="13000.00000" pt_clust_9="21.43467"></scales>
<clustering>
<clus scale="   21.435">  2  9  1 -1</clus>
<clus scale="   91.156">  5  6 -1 -1</clus>
<clus scale="   94.021">  7  8 -1 -1</clus>
<clus scale="  139.122">  2  5  1 -1</clus>
<clus scale="   21.435">  2  5  1 -1</clus>
</clustering>
</event>
<event>
 9    1  0.1803370E-005  0.1017393E+03  0.7546771E-02  0.1277262E+00
          1   -1    0    0  502    0  0.00000000000E+00  0.00000000000E+00  0.13911016745E+03  0.13911016745E+03  0.00000000000E+00 0. -1.
         -1   -1    0    0    0  501 -0.00000000000E+00 -0.00000000000E+00 -0.92403372893E+02  0.92403372893E+02  0.00000000000E+00 0.  1.
         23    2    1    2    0    0 -0.30811101997E+01 -0.40118434089E+02  0.12642546307E+02  0.10061568225E+03  0.91349327007E+02 0.  0.
         23    2    1    2    0    0  0.24412189207E+02  0.46246247185E+02  0.27140612926E+02  0.10764916456E+03  0.90094724592E+02 0.  0.
        -11    1    4    4    0    0  0.56224104861E+02  0.34696856145E+02  0.32083776157E+02  0.73446514459E+02  0.00000000000E+00 0. -1.
         11    1    4    4    0    0 -0.31811915654E+02  0.11549391040E+02 -0.49431632312E+01  0.34202650098E+02  0.00000000000E+00 0.  1.
        -13    1    3    3    0    0 -0.87695728084E+01  0.25155367038E+02  0.21844938277E+02  0.34451403838E+02  0.00000000000E+00 0.  1.
         13    1    3    3    0    0  0.56884626086E+01 -0.65273801128E+02 -0.92023919698E+01  0.66164278417E+02  0.00000000000E+00 0. -1.
         21    1    1    2  502  501 -0.21331079007E+02 -0.61278130953E+01  0.69236353274E+01  0.23248693535E+02  0.00000000000E+00 0.  1.
<scales pt_clust_5="13000.00000" pt_clust_6="13000.00000" pt_clust_7="13000.00000" pt_clust_8="13000.00000" pt_clust_9="22.19381"></scales>
<clustering>
<clus scale="   22.194">  1  9  2 -1</clus>
<clus scale="   90.095">  5  6 -1 -1</clus>
<clus scale="   91.349">  7  8 -1 -1</clus>
<clus scale="  100.614">  1  5  2 -1</clus>
<clus scale="   22.194">  1  5  2 -1</clus>
</clustering>
</event>
<event>
 9    1  0.1803370E-005  0.1921754E+03  0.7546771E-02  0.1156868E+00
         -2   -1    0    0    0  501 -0.00000000000E+00  0.00000000000E+00  0.13366706424E+03  0.13366706424E+03  0.00000000000E+00 0.  1.
          2   -1    0    0  502    0  0.00000000000E+00 -0.00000000000E+00 -0.42129437354E+03  0.42129437354E+03  0.00000000000E+00 0. -1.
         23    2    1    2    0    0 -0.16122046906E+03  0.64223957302E+02 -0.16501129143E+02  0.19826938727E+03  0.94454784589E+02 0.  0.
         23    2    1    2    0    0  0.15660368041E+03 -0.20820662664E+02 -0.18317915840E+03  0.25850936691E+03  0.91182651859E+02 0.  0.
        -11    1    4    4    0    0  0.56704118441E+02  0.20161591191E+02 -0.21136152066E+02  0.63785450784E+02  0.00000000000E+00 0.  1.
         11    1    4    4    0    0  0.99899561965E+02 -0.40982253855E+02 -0.16204300633E+03  0.19472391613E+03  0.00000000000E+00 0. -1.
        -11    1    3    3    0    0 -0.13914749458E+03  0.64546141713E+02  0.20933052802E+02  0.15481092454E+03  0.00000000000E+00 0.  1.
         11    1    3    3    0    0 -0.22072974480E+02 -0.32218441136E+00 -0.37434181945E+02  0.43458462732E+02  0.00000000000E+00 0. -1.
         21    1    1    2  502  501  0.46167886513E+01 -0.43403294637E+02 -0.87947021761E+02  0.98182683603E+02  0.00000000000E+00 0. -1.
<scales pt_clust_5="13000.00000" pt_clust_6="13000.00000" pt_clust_7="13000.00000" pt_clust_8="13000.00000" pt_clust_9="43.64815"></scales>
<clustering>
<clus scale="   43.648">  2  9  1 -1</clus>
<clus scale="   91.183">  5  6 -1 -1</clus>
<clus scale="   94.455">  7  8 -1 -1</clus>
<clus scale="  190.588">  2  5  1 -1</clus>
<clus scale="   43.648">  2  5  1 -1</clus>
</clustering>
</event>
<event>
 9    1  0.1803370E-005  0.3323794E+03  0.7546771E-02  0.1070145E+00
         -1   -1    0    0    0  501 -0.00000000000E+00  0.00000000000E+00  0.90502746060E+02  0.90502746060E+02  0.00000000000E+00 0.  1.
          1   -1    0    0  502    0  0.00000000000E+00 -0.00000000000E+00 -0.24814811457E+04  0.24814811457E+04  0.00000000000E+00 0. -1.
         23    2    1    2    0    0  0.27418401042E+03 -0.11361795405E+03 -0.38709523875E+03  0.49581253910E+03  0.88890038875E+02 0.  0.
         23    2    1    2    0    0 -0.39434359474E+03  0.10921165279E+03 -0.16507289346E+04  0.17031088261E+04  0.90772254195E+02 0.  0.
        -13    1    4    4    0    0 -0.34228551817E+03  0.10808989803E+03 -0.15315648261E+04  0.15730650395E+04  0.00000000000E+00 0. -1.
         13    1    4    4    0    0 -0.52058076563E+02  0.11217547625E+01 -0.11916410852E+03  0.13004378658E+03  0.00000000000E+00 0.  1.
        -13    1    3    3    0    0  0.11990670682E+03 -0.17078880912E+02 -0.20665178142E+03  0.23952925767E+03  0.00000000000E+00 0. -1.
         13    1    3    3    0    0  0.15427730360E+03 -0.96539073141E+02 -0.18044345733E+03  0.25628328144E+03  0.00000000000E+00 0.  1.
         21    1    1    2  502  501  0.12015958431E+03  0.44063012626E+01 -0.35315422634E+03  0.37306252663E+03  0.00000000000E+00 0.  1.
<scales pt_clust_5="13000.00000" pt_clust_6="13000.00000" pt_clust_7="13000.00000" pt_clust_8="13000.00000" pt_clust_9="120.24035"></scales>
<clustering>
<clus scale="   88.890">  7  8 -1 -1</clus>
<clus scale="   90.772">  5  6 -1 -1</clus>
<clus scale="  120.240">  2  9  1 -1</clus>
<clus scale="  331.870">  1  7  2 -1</clus>
<clus scale="  120.240">  2  5  1 -1</clus>
</clustering>
</event>
<event>
 9    1  0.1803370E-005  0.1004219E+03  0.7546771E-02  0.1279771E+00
          4   -1    0    0  502    0  0.00000000000E+00  0.00000000000E+00  0.86978294328E+02  0.86978294328E+02  0.00000000000E+00 0. -1.
         -4   -1    0    0    0  501 -0.00000000000E+00 -0.00000000000E+00 -0.16186544745E+03  0.16186544745E+03  0.00000000000E+00 0.  1.
         23    2    1    2    0    0  0.10590959543E+02 -0.29925175514E+02 -0.62228339162E+02  0.11504915705E+03  0.91412569094E+02 0.  0.
         23    2    1    2    0    0 -0.12405905328E+02  0.51648354779E+02 -0.24257955160E+02  0.10910186065E+03  0.92159148061E+02 0.  0.
        -11    1    4    4    0    0 -0.37344027909E+02 -0.96070384677E-01  0.14225242066E+02  0.39961771255E+02  0.00000000000E+00 0. -1.
         11    1    4    4    0    0  0.24938122581E+02  0.51744425164E+02 -0.38483197226E+02  0.69140089399E+02  0.00000000000E+00 0.  1.
        -11    1    3    3    0    0 -0.36904465597E+02 -0.68055845003E+01 -0.61815505009E+01  0.38032448357E+02  0.00000000000E+00 0.  1.
         11    1    3    3    0    0  0.47495425141E+02 -0.23119591014E+02 -0.56046788661E+02  0.77016708688E+02  0.00000000000E+00 0. -1.
         21    1    1    2  502  501  0.18149457851E+01 -0.21723179265E+02  0.11599141203E+02  0.24692724075E+02  0.00000000000E+00 0. -1.
<scales pt_clust_5="13000.00000" pt_clust_6="13000.00000" pt_clust_7="13000.00000" pt_clust_8="13000.00000" pt_clust_9="21.79887"></scales>
<clustering>
<clus scale="   21.799">  1  9  2 -1</clus>
<clus scale="   91.413">  7  8 -1 -1</clus>
<clus scale="   92.159">  5  6 -1 -1</clus>
<clus scale="   99.737">  2  7  1 -1</clus>
<clus scale="   21.799">  1  5  2 -1</clus>
</clustering>
</event>
<event>
 9    1  0.1803370E-005  0.1159078E+03  0.7546771E-02  0.1255252E+00
          1   -1    0    0  502    0  0.00000000000E+00  0.00000000000E+00  0.38334636802E+03  0.38334636802E+03  0.00000000000E+00 0. -1.
         -1   -1    0    0    0  501 -0.00000000000E+00 -0.00000000000E+00 -0.58339729674E+02  0.58339729674E+02  0.00000000000E+00 0.  1.
         23    2    1    2    0    0 -0.37175864708E+02 -0.14050171280E+02  0.91411182440E+02  0.13462884310E+03  0.90495684373E+02 0.  0.
         23    2    1    2    0    0  0.74730523213E+02 -0.39688419976E+02  0.15510406862E+03  0.20478757950E+03  0.10354158022E+03 0.  0.
        -11    1    3    3    0    0  0.12004241241E+02 -0.23328220895E+02  0.78748976000E+02  0.83004270486E+02  0.00000000000E+00 0. -1.
         11    1    3    3    0    0 -0.49180105949E+02  0.92780496145E+01  0.12662206439E+02  0.51624572615E+02  0.00000000000E+00 0.  1.
        -11    1    4    4    0    0  0.47204061763E+02 -0.32564955256E+02  0.11618941110E+02  0.58512388007E+02  0.00000000000E+00 0.  1.
         11    1    4    4    0    0  0.27526461449E+02 -0.71234647197E+01  0.14348512751E+03  0.14627519149E+03  0.00000000000E+00 0. -1.
         21    1    1    2  502  501 -0.37554658505E+02  0.53738591256E+02  0.78491387290E+02  0.10226967510E+03  0.00000000000E+00 0.  1.
<scales pt_clust_5="13000.00000" pt_clust_6="13000.00000" pt_clust_7="13000.00000" pt_clust_8="13000.00000" pt_clust_9="65.56057"></scales>
<clustering>
<clus scale="   65.561">  1  9  2 -1</clus>
<clus scale="   90.496">  5  6 -1 -1</clus>
<clus scale="  103.542">  7  8 -1 -1</clus>
<clus scale="  104.419">  2  5  1 -1</clus>
<clus scale="   65.561">  1  5  2 -1</clus>
</clustering>
</event>
<event>
 9    1  0.1803370E-005  0.1671075E+03  0.7546771E-02  0.1182181E+00
         -1   -1    0    0    0  501 -0.00000000000E+00  0.00000000000E+00  0.68054657537E+02  0.68054657537E+02  0.00000000000E+00 0.  1.
          1   -1    0    0  502    0  0.00000000000E+00 -0.00000000000E+00 -0.48142604875E+03  0.48142604875E+03  0.00000000000E+00 0. -1.
         23    2    1    2    0    0  0.12817192940E+03 -0.60165464679E+01 -0.16666666885E+03  0.22743436032E+03  0.86512238638E+02 0.  0.
         23    2    1    2    0    0 -0.14620894737E+03  0.29366297250E+02 -0.20211880831E+03  0.26858188477E+03  0.95104050633E+02 0.  0.
        -11    1    4    4    0    0 -0.86492870316E+02 -0.28018102157E+02 -0.80452114036E+02  0.12140252599E+03  0.00000000000E+00 0.  1.
         11    1    4    4    0    0 -0.59716077053E+02  0.57384399407E+02 -0.12166669427E+03  0.14717935878E+03  0.00000000000E+00 0. -1.
        -13    1    3    3    0    0  0.11604847375E+03  0.17800373258E+02 -0.95260233180E+02  0.15119065306E+03  0.00000000000E+00 0.  1.
         13    1    3    3    0    0  0.12123455645E+02 -0.23816919725E+02 -0.71406435668E+02  0.76243707260E+02  0.00000000000E+00 0. -1.
         21    1    1    2  502  501  0.18037017971E+02 -0.23349750783E+02 -0.44585914052E+02  0.53464461194E+02  0.00000000000E+00 0.  1.
<scales pt_clust_5="13000.00000" pt_clust_6="13000.00000" pt_clust_7="13000.00000" pt_clust_8="13000.00000" pt_clust_9="29.50500"></scales>
<clustering>
<clus scale="   29.505">  2  9  1 -1</clus>
<clus scale="   86.512">  7  8 -1 -1</clus>
<clus scale="   95.104">  5  6 -1 -1</clus>
<clus scale="  162.372">  1  7  2 -1</clus>
<clus scale="   29.505">  2  5  1 -1</clus>
</clustering>
</event>
<event>
 9    1  0.1803370E-005  0.1236728E+03  0.7546771E-02  0.1239234E+00
         -1   -1    0    0    0  501 -0.00000000000E+00  0.00000000000E+00  0.52159215976E+03  0.52159215976E+03  0.00000000000E+00 0.  1.
          1   -1    0    0  502    0  0.00000000000E+00 -0.00000000000E+00 -0.56441492685E+02  0.56441492685E+02  0.00000000000E+00 0. -1.
         23    2    1    2    0    0  0.91587665968E+02  0.38802598646E+02  0.37138782984E+03  0.39684496358E+03  0.98300878661E+02 0.  0.
         23    2    1    2    0    0 -0.63818264161E+02 -0.28055317548E+02  0.44330782895E+02  0.12348104878E+03  0.91774067214E+02 0.  0.
        -11    1    4    4    0    0 -0.20928495758E+02 -0.52523597093E+02 -0.85828678192E+00  0.56546147902E+02  0.00000000000E+00 0. -1.
         11    1    4    4    0    0 -0.42889768403E+02  0.24468279545E+02  0.45189069677E+02  0.66934900880E+02  0.00000000000E+00 0.  1.
        -11    1    3    3    0    0  0.65488737344E+02 -0.18149896402E+02  0.26316059697E+03  0.27179347538E+03  0.00000000000E+00 0. -1.
         11    1    3    3    0    0  0.26098928624E+02  0.56952495049E+02  0.10822723287E+03  0.12505148821E+03  0.00000000000E+00 0.  1.
         21    1    1    2  502  501 -0.27769401808E+02 -0.10747281098E+02  0.49432054341E+02  0.57707640084E+02  0.00000000000E+00 0. -1.
<scales pt_clust_5="13000.00000" pt_clust_6="13000.00000" pt_clust_7="13000.00000" pt_clust_8="13000.00000" pt_clust_9="29.77656"></scales>
<clustering>
<clus scale="   29.777">  1  9  2 -1</clus>
<clus scale="   91.774">  5  6 -1 -1</clus>
<clus scale="   98.301">  7  8 -1 -1</clus>
<clus scale="  118.551">  2  5  1 -1</clus>
<clus scale="  118.551">  2  5  1 -1</clus>
</clustering>
</event>
<event>
 9    1  0.1803370E-005  0.1001548E+03  0.7546771E-02  0.1280201E+00
          3   -1    0    0  502    0  0.00000000000E+00  0.00000000000E+00  0.19218066064E+03  0.19218066064E+03  0.00000000000E+00 0. -1.
         -3   -1    0    0    0  501 -0.00000000000E+00 -0.00000000000E+00 -0.13764115591E+03  0.13764115591E+03  0.00000000000E+00 0.  1.
         23    2    1    2    0    0 -0.34360343841E+02 -0.27053501376E+02 -0.85970164263E+02  0.13251237108E+03  0.90863271903E+02 0.  0.
         23    2    1    2    0    0  0.43789997097E+01  0.44142030751E+02  0.12190335996E+03  0.15810366058E+03  0.90380549911E+02 0.  0.
        -13    1    4    4    0    0  0.28027793563E+02  0.60944221653E+02  0.10479197885E+03  0.12442312565E+03  0.00000000000E+00 0. -1.
         13    1    4    4    0    0 -0.23648793853E+02 -0.16802190902E+02  0.17111381110E+02  0.33680534932E+02  0.00000000000E+00 0.  1.
        -13    1    3    3    0    0 -0.60060700161E+02 -0.38546796562E+02 -0.70819853882E+02  0.10054150851E+03  0.00000000000E+00 0.  1.
         13    1    3    3    0    0  0.25700356320E+02  0.11493295186E+02 -0.15150310381E+02  0.31970862575E+02  0.00000000000E+00 0. -1.
         21    1    1    2  502  501  0.29981344132E+02 -0.17088529374E+02  0.18606309033E+02  0.39205784878E+02  0.00000000000E+00 0. -1.
<scales pt_clust_5="13000.00000" pt_clust_6="13000.00000" pt_clust_7="13000.00000" pt_clust_8="13000.00000" pt_clust_9="34.50940"></scales>
<clustering>
<clus scale="   34.509">  1  9  2 -1</clus>
<clus scale="   90.381">  5  6 -1 -1</clus>
<clus scale="   90.863">  7  8 -1 -1</clus>
<clus scale="   99.717">  1  5  2 -1</clus>
<clus scale="   34.509">  1  5  2 -1</clus>
</clustering>
</event>
<event>
 9    1  0.1803370E-005  0.1187507E+03  0.7546771E-02  0.1245616E+00
         -2   -1    0    0    0  501 -0.00000000000E+00  0.00000000000E+00  0.21490479817E+03  0.21490479817E+03  0.00000000000E+00 0.  1.
          2   -1    0    0  502    0  0.00000000000E+00 -0.00000000000E+00 -0.18640930557E+03  0.18640930557E+03  0.00000000000E+00 0. -1.
         23    2    1    2    0    0  0.16494210189E+02  0.70625460172E+02  0.15722988414E+03  0.19547316713E+03  0.90711123937E+02 0.  0.
         23    2    1    2    0    0 -0.40370264374E+02 -0.83870575454E+02 -0.91774075589E+02  0.15988917933E+03  0.92076256679E+02 0.  0.
        -11    1    4    4    0    0 -0.23900669692E+02  0.14462338659E+02 -0.36260388298E+02  0.45773540509E+02  0.00000000000E+00 0.  1.
         11    1    4    4    0    0 -0.16469594682E+02 -0.98332914112E+02 -0.55513687291E+02  0.11411563882E+03  0.00000000000E+00 0. -1.
        -13    1    3    3    0    0 -0.35306551697E+02  0.44226893423E+02  0.92758060303E+02  0.10865831052E+03  0.00000000000E+00 0.  1.
         13    1    3    3    0    0  0.51800761886E+02  0.26398566748E+02  0.64471823838E+02  0.86814856605E+02  0.00000000000E+00 0. -1.
         21    1    1    2  502  501  0.23876054185E+02  0.13245115282E+02 -0.36960315956E+02  0.45951757287E+02  0.00000000000E+00 0. -1.
<scales pt_clust_5="13000.00000" pt_clust_6="13000.00000" pt_clust_7="13000.00000" pt_clust_8="13000.00000" pt_clust_9="27.30383"></scales>
<clustering>
<clus scale="   27.304">  2  9  1 -1</clus>
<clus scale="   90.711">  7  8 -1 -1</clus>
<clus scale="   92.076">  5  6 -1 -1</clus>
<clus scale="  117.695">  1  7  2 -1</clus>
<clus scale="   27.304">  2  5  1 -1</clus>
</clustering>
</event>
<event>
 9    1  0.1803370E-005  0.9499296E+02  0.7546771E-02  0.1291598E+00
         -1   -1    0    0    0  501 -0.00000000000E+00  0.00000000000E+00  0.33328663562E+02  0.33328663562E+02  0.00000000000E+00 0.  1.
          1   -1    0    0  502    0  0.00000000000E+00 -0.00000000000E+00 -0.93304711592E+03  0.93304711592E+03  0.00000000000E+00 0. -1.
         23    2    1    2    0    0 -0.53077094904E+01 -0.98686372808E+01 -0.89044771277E+02  0.12818134539E+03  0.91520075565E+02 0.  0.
         23    2    1    2    0    0  0.85298743586E+02  0.24461258588E+02 -0.40408327329E+03  0.42355330029E+03  0.90773771593E+02 0.  0.
        -11    1    3    3    0    0 -0.40797520655E+02 -0.78546839180E+01 -0.11863072746E+02  0.43207247610E+02  0.00000000000E+00 0. -1.
         11    1    3    3    0    0  0.35489811165E+02 -0.20139533628E+01 -0.77181698531E+02  0.84974097776E+02  0.00000000000E+00 0.  1.
        -13    1    4    4    0    0 -0.18724062031E+02  0.91916399260E+01 -0.49609846651E+02  0.53816481010E+02  0.00000000000E+00 0. -1.
         13    1    4    4    0    0  0.10402280562E+03  0.15269618662E+02 -0.35447342663E+03  0.36973681928E+03  0.00000000000E+00 0.  1.
         21    1    1    2  502  501 -0.79991034096E+02 -0.14592621307E+02 -0.40659040779E+03  0.41464113380E+03  0.00000000000E+00 0. -1.
<scales pt_clust_5="13000.00000" pt_clust_6="13000.00000" pt_clust_7="13000.00000" pt_clust_8="13000.00000" pt_clust_9="81.31119"></scales>
<clustering>
<clus scale="   81.311">  2  9  1 -1</clus>
<clus scale="   90.774">  7  8 -1 -1</clus>
<clus scale="   91.520">  5  6 -1 -1</clus>
<clus scale="   94.274">  2  7  1 -1</clus>
<clus scale="   81.311">  2  5  1 -1</clus>
</clustering>
</event>
<event>
 9    1  0.1803370E-005  0.9586328E+02  0.7546771E-02  0.1292967E+00
         -3   -1    0    0    0  501 -0.00000000000E+00  0.00000000000E+00  0.18984458489E+03  0.18984458489E+03  0.00000000000E+00 0.  1.
          3   -1    0    0  502    0  0.00000000000E+00 -0.00000000000E+00 -0.40358874498E+03  0.40358874498E+03  0.00000000000E+00 0. -1.
         23    2    1    2    0    0 -0.24096719986E+02  0.26760408277E+02  0.15159221569E+03  0.17967424159E+03  0.89475481930E+02 0.  0.
         23    2    1    2    0    0 -0.53952062231E+02 -0.52608217865E+02 -0.22091207043E+03  0.24757214041E+03  0.82531038027E+02 0.  0.
        -13    1    3    3    0    0 -0.44202534480E+02  0.48388817582E+01  0.27988535210E+02  0.52541763716E+02  0.00000000000E+00 0. -1.
         13    1    3    3    0    0  0.20105814494E+02  0.21921526519E+02  0.12360368048E+03  0.12713247787E+03  0.00000000000E+00 0.  1.
        -13    1    4    4    0    0  0.18852164980E+02 -0.11655993294E+02 -0.86702103995E+02  0.89490341051E+02  0.00000000000E+00 0.  1.
         13    1    4    4    0    0 -0.72804227212E+02 -0.40952224571E+02 -0.13420996643E+03  0.15808179936E+03  0.00000000000E+00 0. -1.
         21    1    1    2  502  501  0.78048782218E+02  0.25847809588E+02 -0.14442430536E+03  0.16618694788E+03  0.00000000000E+00 0.  1.
<scales pt_clust_5="13000.00000" pt_clust_6="13000.00000" pt_clust_7="13000.00000" pt_clust_8="13000.00000" pt_clust_9="82.21753"></scales>
<clustering>
<clus scale="   82.218">  2  9  1 -1</clus>
<clus scale="   82.531">  7  8 -1 -1</clus>
<clus scale="   89.416">  2  7  1 -1</clus>
<clus scale="   89.475">  5  6 -1 -1</clus>
<clus scale="   82.218">  2  5  1 -1</clus>
</clustering>
</event>
<event>
 9    1  0.1803370E-005  0.9810639E+02  0.7546771E-02  0.1284992E+00
          1   -1    0    0  502    0  0.00000000000E+00  0.00000000000E+00  0.44890907586E+02  0.44890907586E+02  0.00000000000E+00 0. -1.
         -1   -1    0    0    0  501 -0.00000000000E+00 -0.00000000000E+00 -0.44656835455E+03  0.44656835455E+03  0.00000000000E+00 0.  1.
         23    2    1    2    0    0  0.33724804970E+02  0.34285423664E+02 -0.26433813701E+03  0.28423789035E+03  0.92755996498E+02 0.  0.
         23    2    1    2    0    0  0.66854069633E+01  0.69769826075E+01 -0.56742829591E+02  0.10806813661E+03  0.91463656646E+02 0.  0.
        -11    1    4    4    0    0 -0.20395824417E+02 -0.33264362639E+02 -0.90746172552E+01  0.40060655932E+02  0.00000000000E+00 0.  1.
         11    1    4    4    0    0  0.27081231380E+02  0.40241345246E+02 -0.47668212336E+02  0.68007480674E+02  0.00000000000E+00 0. -1.
        -13    1    3    3    0    0 -0.65538896015E+01 -0.28695850471E+02 -0.84487625942E+02  0.89468230342E+02  0.00000000000E+00 0.  1.
         13    1    3    3    0    0  0.40278694571E+02  0.62981274135E+02 -0.17985051107E+03  0.19476966001E+03  0.00000000000E+00 0. -1.
         21    1    1    2  502  501 -0.40410211933E+02 -0.41262406271E+02 -0.80596480355E+02  0.99153235173E+02  0.00000000000E+00 0.  1.
<scales pt_clust_5="13000.00000" pt_clust_6="13000.00000" pt_clust_7="13000.00000" pt_clust_8="13000.00000" pt_clust_9="57.75441"></scales>
<clustering>
<clus scale="   57.754">  1  9  2 -1</clus>
<clus scale="   91.464">  5  6 -1 -1</clus>
<clus scale="   92.756">  7  8 -1 -1</clus>
<clus scale="   96.885">  1  5  2 -1</clus>
<clus scale="   57.754">  1  5  2 -1</clus>
</clustering>
</event>
<event>
 9    1  0.1803370E-005  0.1072438E+03  0.7546771E-02  0.1266206E+00
         -1   -1    0    0    0  501 -0.00000000000E+00  0.00000000000E+00  0.11768193011E+03  0.11768193011E+03  0.00000000000E+00 0.  1.
          1   -1    0    0  502    0  0.00000000000E+00 -0.00000000000E+00 -0.32522583615E+03  0.32522583615E+03  0.00000000000E+00 0. -1.
         23    2    1    2    0    0  0.87221547444E+01  0.30616480431E+02  0.11267864746E+02  0.97110834661E+02  0.91050011397E+02 0.  0.
         23    2    1    2    0    0 -0.64723152328E+01 -0.96861049010E+02 -0.18873524111E+02  0.13515812433E+03  0.92127927257E+02 0.  0.
        -13    1    3    3    0    0  0.31233127194E+02  0.27388718142E+02  0.41872068746E+02  0.58982372425E+02  0.00000000000E+00 0.  1.
         13    1    3    3    0    0 -0.22510972450E+02  0.32277622885E+01 -0.30604204000E+02  0.38128462236E+02  0.00000000000E+00 0. -1.
        -13    1    4    4    0    0  0.25443097483E+02 -0.76573522359E+02  0.17633812736E+02  0.82594230354E+02  0.00000000000E+00 0.  1.
         13    1    4    4    0    0 -0.31915412716E+02 -0.20287526650E+02 -0.36507336848E+02  0.52563893978E+02  0.00000000000E+00 0. -1.
         21    1    1    2  502  501 -0.22498395116E+01  0.66244568579E+02 -0.19993824667E+03  0.21063880726E+03  0.00000000000E+00 0. -1.
<scales pt_clust_5="13000.00000" pt_clust_6="13000.00000" pt_clust_7="13000.00000" pt_clust_8="13000.00000" pt_clust_9="66.28276"></scales>
<clustering>
<clus scale="   66.283">  2  9  1 -1</clus>
<clus scale="   91.050">  5  6 -1 -1</clus>
<clus scale="   92.128">  7  8 -1 -1</clus>
<clus scale="  106.319">  1  5  2 -1</clus>
<clus scale="   66.283">  2  5  1 -1</clus>
</clustering>
</event>
<event>
 9    1  0.1803370E-005  0.1447871E+03  0.7546771E-02  0.1223808E+00
         -1   -1    0    0    0  501 -0.00000000000E+00  0.00000000000E+00  0.60709980525E+02  0.60709980525E+02  0.00000000000E+00 0.  1.
          1   -1    0    0  502    0  0.00000000000E+00 -0.00000000000E+00 -0.11813234545E+04  0.11813234545E+04  0.00000000000E+00 0. -1.
         23    2    1    2    0    0 -0.38245360868E+02  0.16600008502E+02 -0.17365894220E+02  0.10299060636E+03  0.92559293460E+02 0.  0.
         23    2    1    2    0    0  0.14124683564E+03 -0.96392346827E+01 -0.51478092763E+03  0.54158926826E+03  0.90972240931E+02 0.  0.
        -13    1    4    4    0    0  0.80307305704E+02 -0.49259118209E+02 -0.25563887488E+03  0.27244624869E+03  0.00000000000E+00 0. -1.
         13    1    4    4    0    0  0.60939529939E+02  0.39619883526E+02 -0.25914205274E+03  0.26914301956E+03  0.00000000000E+00 0.  1.
        -13    1    3    3    0    0 -0.65980192148E+02  0.27711459029E+02 -0.10443770002E+02  0.72321387219E+02  0.00000000000E+00 0.  1.
         13    1    3    3    0    0  0.27734831280E+02 -0.11111450528E+02 -0.69221242174E+01  0.30669219140E+02  0.00000000000E+00 0. -1.
         21    1    1    2  502  501 -0.10300147477E+03 -0.69607738191E+01 -0.58846665217E+03  0.59745356045E+03  0.00000000000E+00 0.  1.
<scales pt_clust_5="13000.00000" pt_clust_6="13000.00000" pt_clust_7="13000.00000" pt_clust_8="13000.00000" pt_clust_9="112.63815"></scales>
<clustering>
<clus scale="   90.972">  5  6 -1 -1</clus>
<clus scale="   92.559">  7  8 -1 -1</clus>
<clus scale="  101.516">  1  7  2 -1</clus>
<clus scale="  112.638">  2  9  1 -1</clus>
<clus scale="  112.638">  2  5  1 -1</clus>
</clustering>
</event>
<event>
 9    1  0.1803370E-005  0.9915931E+02  0.7546771E-02  0.1282455E+00
         -1   -1    0    0    0  501 -0.00000000000E+00  0.00000000000E+00  0.42787512668E+02  0.42787512668E+02  0.00000000000E+00 0.  1.
          1   -1    0    0  502    0  0.00000000000E+00 -0.00000000000E+00 -0.33017983087E+03  0.33017983087E+03  0.00000000000E+00 0. -1.
         23    2    1    2    0    0 -0.40812125813E+02 -0.32771306346E+02 -0.81053069955E+02  0.13198271952E+03  0.90056926272E+02 0.  0.
         23    2    1    2    0    0  0.25071158908E+02  0.57986088947E+01 -0.16203513172E+03  0.18677983467E+03  0.89270016550E+02 0.  0.
        -13    1    3    3    0    0 -0.58293812175E+02 -0.51832598145E+02 -0.56469641103E+02  0.96299569753E+02  0.00000000000E+00 0.  1.
         13    1    3    3    0    0  0.17481686362E+02  0.19061291799E+02 -0.24583428852E+02  0.35683149766E+02  0.00000000000E+00 0. -1.
        -13    1    4    4    0    0  0.31354687968E+02 -0.36813012435E+02 -0.68995874012E+02  0.84254050186E+02  0.00000000000E+00 0. -1.
         13    1    4    4    0    0 -0.62835290600E+01  0.42611621330E+02 -0.93039257706E+02  0.10252578449E+03  0.00000000000E+00 0.  1.
         21    1    1    2  502  501  0.15740966904E+02  0.26972697451E+02 -0.44304116533E+02  0.54204789351E+02  0.00000000000E+00 0. -1.
<scales pt_clust_5="13000.00000" pt_clust_6="13000.00000" pt_clust_7="13000.00000" pt_clust_8="13000.00000" pt_clust_9="31.22986"></scales>
<clustering>
<clus scale="   31.230">  2  9  1 -1</clus>
<clus scale="   89.270">  7  8 -1 -1</clus>
<clus scale="   90.057">  5  6 -1 -1</clus>
<clus scale="   98.445">  2  7  1 -1</clus>
<clus scale="   31.230">  2  5  1 -1</clus>
</clustering>
</event>
<event>
 9    1  0.1803370E-005  0.9154409E+02  0.7546771E-02  0.1301332E+00
          1   -1    0    0  502    0  0.00000000000E+00  0.00000000000E+00  0.30743057798E+03  0.30743057798E+03  0.00000000000E+00 0. -1.
         -1   -1    0    0    0  501 -0.00000000000E+00 -0.00000000000E+00 -0.76206501325E+02  0.76206501325E+02  0.00000000000E+00 0.  1.
         23    2    1    2    0    0 -0.16000714142E+01 -0.23765747346E+02  0.73863322226E-01  0.94385458487E+02  0.91330380173E+02 0.  0.
         23    2    1    2    0    0  0.11331074319E+02 -0.37803274800E+02  0.77794322917E+02  0.12371169805E+03  0.87721985416E+02 0.  0.
        -11    1    4    4    0    0 -0.16816535274E+02 -0.15011371898E+02 -0.12956769311E+02  0.26000288765E+02  0.00000000000E+00 0.  1.
         11    1    4    4    0    0  0.28147609594E+02 -0.22791902902E+02  0.90751092228E+02  0.97711409284E+02  0.00000000000E+00 0. -1.
        -13    1    3    3    0    0  0.50883856331E+01  0.31565620672E+02 -0.16846081440E+02  0.36139597903E+02  0.00000000000E+00 0.  1.
         13    1    3    3    0    0 -0.66884570473E+01 -0.55331368017E+02  0.16919944762E+02  0.58245860583E+02  0.00000000000E+00 0. -1.
         21    1    1    2  502  501 -0.97310029052E+01  0.61569022145E+02  0.15335589042E+03  0.16553992277E+03  0.00000000000E+00 0.  1.
<scales pt_clust_5="13000.00000" pt_clust_6="13000.00000" pt_clust_7="13000.00000" pt_clust_8="13000.00000" pt_clust_9="62.33327"></scales>
<clustering>
<clus scale="   62.333">  1  9  2 -1</clus>
<clus scale="   87.722">  5  6 -1 -1</clus>
<clus scale="   87.944">  1  5  2 -1</clus>
<clus scale="   91.330">  7  8 -1 -1</clus>
<clus scale="   62.333">  1  5  2 -1</clus>
</clustering>
</event>
<event>
 9    1  0.1803370E-005  0.9445070E+02  0.7546771E-02  0.1292990E+00
          1   -1    0    0  502    0  0.00000000000E+00  0.00000000000E+00  0.22107258171E+03  0.22107258171E+03  0.00000000000E+00 0. -1.
         -1   -1    0    0    0  501 -0.00000000000E+00 -0.00000000000E+00 -0.15238527400E+03  0.15238527400E+03  0.00000000000E+00 0.  1.
         23    2    1    2    0    0  0.97090077695E+01  0.52925524358E+01 -0.53818996009E+02  0.10515950089E+03  0.89664710743E+02 0.  0.
         23    2    1    2    0    0 -0.47270674423E+02  0.61468280931E+02 -0.51235077266E+01  0.11944521766E+03  0.90708563379E+02 0.  0.
        -11    1    3    3    0    0 -0.16629151005E+02 -0.34962525632E+02 -0.97615022087E+01  0.39927356375E+02  0.00000000000E+00 0.  1.
         11    1    3    3    0    0  0.26338158775E+02  0.40255078068E+02 -0.44057493800E+02  0.65232144514E+02  0.00000000000E+00 0. -1.
        -13    1    4    4    0    0 -0.43785683494E+02  0.28062018840E+02 -0.43961984197E+02  0.68097863659E+02  0.00000000000E+00 0.  1.
         13    1    4    4    0    0 -0.34849909289E+01  0.33406262090E+02  0.38838476471E+02  0.51347354004E+02  0.00000000000E+00 0. -1.
         21    1    1    2  502  501  0.37561666653E+02 -0.66760833366E+02  0.12762981145E+03  0.14885313716E+03  0.00000000000E+00 0. -1.
<scales pt_clust_5="13000.00000" pt_clust_6="13000.00000" pt_clust_7="13000.00000" pt_clust_8="13000.00000" pt_clust_9="76.60214"></scales>
<clustering>
<clus scale="   76.602">  1  9  2 -1</clus>
<clus scale="   89.665">  5  6 -1 -1</clus>
<clus scale="   90.709">  7  8 -1 -1</clus>
<clus scale="   93.449">  2  5  1 -1</clus>
<clus scale="   76.602">  1  5  2 -1</clus>
</clustering>
</event>
<event>
 9    1  0.1803370E-005  0.1493256E+03  0.7546771E-02  0.1205500E+00
         -3   -1    0    0    0  501 -0.00000000000E+00  0.00000000000E+00  0.31795550575E+03  0.31795550575E+03  0.00000000000E+00 0.  1.
          3   -1    0    0  502    0  0.00000000000E+00 -0.00000000000E+00 -0.90202740655E+02  0.90202740655E+02  0.00000000000E+00 0. -1.
         23    2    1    2    0    0 -0.79939036449E+02  0.11468571682E+02  0.16163239287E+03  0.20185432405E+03  0.89990888585E+02 0.  0.
         23    2    1    2    0    0  0.11347356507E+03 -0.14860799418E+02  0.37690052888E+02  0.16220908279E+03  0.10860088914E+03 0.  0.
        -11    1    4    4    0    0  0.12211979562E+03  0.82103304354E+01  0.52808960908E+02  0.13330206435E+03  0.00000000000E+00 0.  1.
         11    1    4    4    0    0 -0.86462305462E+01 -0.23071129853E+02 -0.15118908020E+02  0.28907018440E+02  0.00000000000E+00 0. -1.
        -11    1    3    3    0    0 -0.72914757651E+02  0.45543229627E+02  0.11037818760E+03  0.13990744064E+03  0.00000000000E+00 0.  1.
         11    1    3    3    0    0 -0.70242787982E+01 -0.34074657945E+02  0.51254205262E+02  0.61946883406E+02  0.00000000000E+00 0. -1.
         21    1    1    2  502  501 -0.33534528621E+02  0.33922277361E+01  0.28430319342E+02  0.44094839570E+02  0.00000000000E+00 0.  1.
<scales pt_clust_5="13000.00000" pt_clust_6="13000.00000" pt_clust_7="13000.00000" pt_clust_8="13000.00000" pt_clust_9="33.70566"></scales>
<clustering>
<clus scale="   33.706">  1  9  2 -1</clus>
<clus scale="   89.991">  7  8 -1 -1</clus>
<clus scale="  108.601">  5  6 -1 -1</clus>
<clus scale="  136.390">  1  7  2 -1</clus>
<clus scale="  149.326">  2  5  1 -1</clus>
</clustering>
</event>
<event>
 9    1  0.1803370E-005  0.9795027E+02  0.7546771E-02  0.1288403E+00
          1   -1    0    0  502    0  0.00000000000E+00  0.00000000000E+00  0.13948363472E+03  0.13948363472E+03  0.00000000000E+00 0. -1.
         -1   -1    0    0    0  501 -0.00000000000E+00 -0.00000000000E+00 -0.11250801950E+03  0.11250801950E+03  0.00000000000E+00 0.  1.
         23    2    1    2    0    0  0.34998687529E+01  0.14007589324E+02 -0.46006853204E+02  0.10270208726E+03  0.90678699519E+02 0.  0.
         23    2    1    2    0    0 -0.19057257992E+02  0.11377153323E+02  0.50081922780E+02  0.11172825028E+03  0.97377534484E+02 0.  0.
        -11    1    3    3    0    0 -0.30133531782E+02  0.25505038924E+02 -0.53388579000E+02  0.66399375869E+02  0.00000000000E+00 0.  1.
         11    1    3    3    0    0  0.33633400535E+02 -0.11497449600E+02  0.73817257955E+01  0.36302711394E+02  0.00000000000E+00 0. -1.
        -11    1    4    4    0    0 -0.13081076816E+02  0.30733001372E+02 -0.19895607998E+02  0.38877592024E+02  0.00000000000E+00 0.  1.
         11    1    4    4    0    0 -0.59761811764E+01 -0.19355848049E+02  0.69977530778E+02  0.72850658260E+02  0.00000000000E+00 0. -1.
         21    1    1    2  502  501  0.15557389239E+02 -0.25384742648E+02  0.22900545645E+02  0.37561316671E+02  0.00000000000E+00 0. -1.
<scales pt_clust_5="13000.00000" pt_clust_6="13000.00000" pt_clust_7="13000.00000" pt_clust_8="13000.00000" pt_clust_9="29.77276"></scales>
<clustering>
<clus scale="   29.773">  1  9  2 -1</clus>
<clus scale="   90.679">  5  6 -1 -1</clus>
<clus scale="   91.293">  2  5  1 -1</clus>
<clus scale="   97.378">  7  8 -1 -1</clus>
<clus scale="   29.773">  1  5  2 -1</clus>
</clustering>
</event>
<event>
 9    1  0.1803370E-005  0.1230254E+03  0.7546771E-02  0.1246162E+00
          1   -1    0    0  502    0  0.00000000000E+00  0.00000000000E+00  0.12933322434E+03  0.12933322434E+03  0.00000000000E+00 0. -1.
         -1   -1    0    0    0  501 -0.00000000000E+00 -0.00000000000E+00 -0.26868239269E+03  0.26868239269E+03  0.00000000000E+00 0.  1.
         23    2    1    2    0    0 -0.35933731735E+02 -0.53566163451E+02 -0.13761816107E+03  0.17291314591E+03  0.82459874048E+02 0.  0.
         23    2    1    2    0    0 -0.32903945151E+02 -0.31724566804E+02  0.22847751787E+02  0.11277593898E+03  0.10053494371E+03 0.  0.
        -13    1    4    4    0    0 -0.45686126424E+02 -0.62117083567E+02  0.11818990383E+02  0.78009247864E+02  0.00000000000E+00 0. -1.
         13    1    4    4    0    0  0.12782181273E+02  0.30392516763E+02  0.11028761404E+02  0.34766691119E+02  0.00000000000E+00 0.  1.
        -13    1    3    3    0    0 -0.46349721483E+02  0.33798947194E+01 -0.54536989088E+02  0.71651961234E+02  0.00000000000E+00 0. -1.
         13    1    3    3    0    0  0.10415989748E+02 -0.56946058171E+02 -0.83081171980E+02  0.10126118467E+03  0.00000000000E+00 0.  1.
         21    1    1    2  502  501  0.68837676886E+02  0.85290730255E+02 -0.24578759071E+02  0.11232653215E+03  0.00000000000E+00 0.  1.
<scales pt_clust_5="13000.00000" pt_clust_6="13000.00000" pt_clust_7="13000.00000" pt_clust_8="13000.00000" pt_clust_9="70.90816"></scales>
<clustering>
<clus scale="   82.460">  7  8 -1 -1</clus>
<clus scale="  100.535">  5  6 -1 -1</clus>
<clus scale="  104.691">  2  7  1 -1</clus>
<clus scale="   70.908">  2  9  1 -1</clus>
<clus scale="  123.025">  1  5  2 -1</clus>
</clustering>
</event>
<event>
 9    1  0.1803370E-005  0.1054420E+03  0.7546771E-02  0.1270328E+00
          1   -1    0    0  502    0  0.00000000000E+00  0.00000000000E+00  0.47190052881E+03  0.47190052881E+03  0.00000000000E+00 0. -1.
         -1   -1    0    0    0  501 -0.00000000000E+00 -0.00000000000E+00 -0.32171456743E+02  0.32171456743E+02  0.00000000000E+00 0.  1.
         23    2    1    2    0    0 -0.37184700759E+02  0.23584316422E+02  0.13037845392E+03  0.16458729051E+03  0.90285729766E+02 0.  0.
         23    2    1    2    0    0  0.40452983120E+02 -0.44738437802E+02  0.20494401137E+03  0.23290646997E+03  0.92765318399E+02 0.  0.
        -11    1    3    3    0    0 -0.33897741599E+02 -0.11198304429E+02  0.12404548999E+03  0.12908037223E+03  0.00000000000E+00 0. -1.
         11    1    3    3    0    0 -0.32869591592E+01  0.34782620851E+02  0.63329639309E+01  0.35506918283E+02  0.00000000000E+00 0.  1.
        -13    1    4    4    0    0  0.40339038763E+02 -0.71635366240E+02  0.16975593569E+03  0.18861585682E+03  0.00000000000E+00 0.  1.
         13    1    4    4    0    0  0.11394435712E+00  0.26896928437E+02  0.35188075686E+02  0.44290613150E+02  0.00000000000E+00 0. -1.
         21    1    1    2  502  501 -0.32682823611E+01  0.21154121380E+02  0.10440660677E+03  0.10657822507E+03  0.00000000000E+00 0. -1.
<scales pt_clust_5="13000.00000" pt_clust_6="13000.00000" pt_clust_7="13000.00000" pt_clust_8="13000.00000" pt_clust_9="21.40511"></scales>
<clustering>
<clus scale="   21.405">  1  9  2 -1</clus>
<clus scale="   90.286">  5  6 -1 -1</clus>
<clus scale="   92.765">  7  8 -1 -1</clus>
<clus scale="  103.267">  2  5  1 -1</clus>
<clus scale="   21.405">  1  5  2 -1</clus>
</clustering>
</event>
<event>
 9    1  0.1803370E-005  0.1556756E+03  0.7546771E-02  0.1195757E+00
          4   -1    0    0  502    0  0.00000000000E+00  0.00000000000E+00  0.50364953213E+03  0.50364953213E+03  0.00000000000E+00 0. -1.
         -4   -1    0    0    0  501 -0.00000000000E+00 -0.00000000000E+00 -0.61280883998E+02  0.61280883998E+02  0.00000000000E+00 0.  1.
         23    2    1    2    0    0  0.42435460445E+02  0.11978624757E+03  0.11968145261E+03  0.19688382602E+03  0.91049862359E+02 0.  0.
         23    2    1    2    0    0 -0.62053044722E+02 -0.10981540601E+03  0.23823770759E+03  0.28077698885E+03  0.78539852243E+02 0.  0.
        -11    1    4    4    0    0 -0.29139676485E+01 -0.78536753813E+02  0.15671659269E+03  0.17531857669E+03  0.00000000000E+00 0.  1.
         11    1    4    4    0    0 -0.59139077073E+02 -0.31278652199E+02  0.81521114899E+02  0.10545841216E+03  0.00000000000E+00 0. -1.
        -13    1    3    3    0    0  0.66971052076E+02  0.66823808897E+02  0.53682454949E+02  0.10877660236E+03  0.00000000000E+00 0.  1.
         13    1    3    3    0    0 -0.24535591631E+02  0.52962438677E+02  0.65998997666E+02  0.88107223655E+02  0.00000000000E+00 0. -1.
         21    1    1    2  502  501  0.19617584277E+02 -0.99708415615E+01  0.84449487927E+02  0.87269601267E+02  0.00000000000E+00 0.  1.
<scales pt_clust_5="13000.00000" pt_clust_6="13000.00000" pt_clust_7="13000.00000" pt_clust_8="13000.00000" pt_clust_9="22.00607"></scales>
<clustering>
<clus scale="   22.006">  1  9  2 -1</clus>
<clus scale="   78.540">  5  6 -1 -1</clus>
<clus scale="   91.050">  7  8 -1 -1</clus>
<clus scale="  148.705">  1  5  2 -1</clus>
<clus scale="   22.006">  1  5  2 -1</clus>
</clustering>
</event>
<event>
 9    1  0.1803370E-005  0.1047872E+03  0.7546771E-02  0.1270943E+00
         -1   -1    0    0    0  501 -0.00000000000E+00  0.00000000000E+00  0.17166181117E+03  0.17166181117E+03  0.00000000000E+00 0.  1.
          1   -1    0    0  502    0  0.00000000000E+00 -0.00000000000E+00 -0.32306875765E+03  0.32306875765E+03  0.00000000000E+00 0. -1.
         23    2    1    2    0    0  0.92008247766E+01  0.47031759761E+02  0.13253947987E+03  0.16902439288E+03  0.93305359242E+02 0.  0.
         23    2    1    2    0    0  0.26521647815E+02 -0.50329159330E+02 -0.13870841739E+03  0.17610321093E+03  0.92389900767E+02 0.  0.
        -11    1    3    3    0    0  0.36712995821E+02  0.59310565973E+02  0.11400607162E+03  0.13365242858E+03  0.00000000000E+00 0.  1.
         11    1    3    3    0    0 -0.27512171044E+02 -0.12278806212E+02  0.18533408243E+02  0.35371964303E+02  0.00000000000E+00 0. -1.
        -13    1    4    4    0    0 -0.29487754573E+02  0.17296163484E+01 -0.23119523111E+02  0.37510419770E+02  0.00000000000E+00 0.  1.
         13    1    4    4    0    0  0.56009402388E+02 -0.52058775679E+02 -0.11558889428E+03  0.13859279116E+03  0.00000000000E+00 0. -1.
         21    1    1    2  502  501 -0.35722472592E+02  0.32973995693E+01 -0.14523800896E+03  0.14960296500E+03  0.00000000000E+00 0. -1.
<scales pt_clust_5="13000.00000" pt_clust_6="13000.00000" pt_clust_7="13000.00000" pt_clust_8="13000.00000" pt_clust_9="35.87433"></scales>
<clustering>
<clus scale="   35.874">  2  9  1 -1</clus>
<clus scale="   92.390">  7  8 -1 -1</clus>
<clus scale="   93.305">  5  6 -1 -1</clus>
<clus scale="  103.973">  2  7  1 -1</clus>
<clus scale="   35.874">  2  5  1 -1</clus>
</clustering>
</event>
<event>
 9    1  0.1803370E-005  0.1323435E+03  0.7546771E-02  0.1224142E+00
         -1   -1    0    0    0  501 -0.00000000000E+00  0.00000000000E+00  0.30099015572E+03  0.30099015572E+03  0.00000000000E+00 0.  1.
          1   -1    0    0  502    0  0.00000000000E+00 -0.00000000000E+00 -0.93770779208E+02  0.93770779208E+02  0.00000000000E+00 0. -1.
         23    2    1    2    0    0  0.30531730139E+02 -0.95986179467E+02  0.20790792762E+03  0.24828364619E+03  0.90958943503E+02 0.  0.
         23    2    1    2    0    0 -0.34599751482E+02  0.72355525287E+02 -0.64846526371E+01  0.12180845400E+03  0.91448258065E+02 0.  0.
        -11    1    4    4    0    0 -0.34230755509E+02  0.21939810702E+02 -0.43287569359E+02  0.59387823478E+02  0.00000000000E+00 0. -1.
         11    1    4    4    0    0 -0.36899597302E+00  0.50415714585E+02  0.36802916722E+02  0.62420630519E+02  0.00000000000E+00 0.  1.
        -13    1    3    3    0    0 -0.26925535357E+02 -0.18630853962E+02  0.23784330244E+02  0.40469587826E+02  0.00000000000E+00 0. -1.
         13    1    3    3    0    0  0.57457265497E+02 -0.77355325505E+02  0.18412359738E+03  0.20781405836E+03  0.00000000000E+00 0.  1.
         21    1    1    2  502  501  0.40680213430E+01  0.23630654180E+02  0.57961015266E+01  0.24668834742E+02  0.00000000000E+00 0. -1.
<scales pt_clust_5="13000.00000" pt_clust_6="13000.00000" pt_clust_7="13000.00000" pt_clust_8="13000.00000" pt_clust_9="23.97825"></scales>
<clustering>
<clus scale="   23.978">  2  9  1 -1</clus>
<clus scale="   90.959">  7  8 -1 -1</clus>
<clus scale="   91.448">  5  6 -1 -1</clus>
<clus scale="  132.006">  1  7  2 -1</clus>
<clus scale="   23.978">  2  5  1 -1</clus>
</clustering>
</event>
<event>
 9    1  0.1803370E-005  0.9346597E+02  0.7546771E-02  0.1295243E+00
         -1   -1    0    0    0  501 -0.00000000000E+00  0.00000000000E+00  0.11301122068E+03  0.11301122068E+03  0.00000000000E+00 0.  1.
          1   -1    0    0  502    0  0.00000000000E+00 -0.00000000000E+00 -0.18618871634E+03  0.18618871634E+03  0.00000000000E+00 0. -1.
         23    2    1    2    0    0 -0.21882887919E+02  0.16163488879E+02  0.67233455362E+02  0.11531003002E+03  0.89643440067E+02 0.  0.
         23    2    1    2    0    0 -0.39696209255E+00  0.84229871918E+00 -0.10939544641E+03  0.14208619837E+03  0.90665633105E+02 0.  0.
        -13    1    4    4    0    0  0.48456245172E+01  0.24134778538E+02 -0.11496424031E+03  0.11757016697E+03  0.00000000000E+00 0. -1.
         13    1    4    4    0    0 -0.52425866097E+01 -0.23292479819E+02  0.55687938921E+01  0.24516031405E+02  0.00000000000E+00 0.  1.
        -13    1    3    3    0    0  0.31159471881E+02  0.13907683743E+02  0.47895599445E+02  0.58807523338E+02  0.00000000000E+00 0.  1.
         13    1    3    3    0    0 -0.53042359800E+02  0.22558051363E+01  0.19337855917E+02  0.56502506683E+02  0.00000000000E+00 0. -1.
         21    1    1    2  502  501  0.22279850012E+02 -0.17005787598E+02 -0.31015504610E+02  0.41803708623E+02  0.00000000000E+00 0.  1.
<scales pt_clust_5="13000.00000" pt_clust_6="13000.00000" pt_clust_7="13000.00000" pt_clust_8="13000.00000" pt_clust_9="28.02835"></scales>
<clustering>
<clus scale="   28.028">  2  9  1 -1</clus>
<clus scale="   89.643">  7  8 -1 -1</clus>
<clus scale="   90.666">  5  6 -1 -1</clus>
<clus scale="   92.475">  1  7  2 -1</clus>
<clus scale="   28.028">  2  5  1 -1</clus>
</clustering>
</event>
<event>
 9    1  0.1803370E-005  0.1939428E+03  0.7546771E-02  0.1155117E+00
          2   -1    0    0  502    0  0.00000000000E+00  0.00000000000E+00  0.17141673624E+04  0.17141673624E+04  0.00000000000E+00 0. -1.
         -2   -1    0    0    0  501 -0.00000000000E+00 -0.00000000000E+00 -0.29633551417E+02  0.29633551417E+02  0.00000000000E+00 0.  1.
         23    2    1    2    0    0 -0.16483061347E+03 -0.83271751212E+02  0.66546891298E+03  0.69648962446E+03  0.90253017392E+02 0.  0.
         23    2    1    2    0    0  0.15637001464E+03  0.26001101942E+02  0.80209593058E+03  0.82275162730E+03  0.91840729478E+02 0.  0.
        -11    1    4    4    0    0  0.42564273939E+02 -0.24562592888E+02  0.12527395146E+03  0.13456820315E+03  0.00000000000E+00 0.  1.
         11    1    4    4    0    0  0.11380574070E+03  0.50563694830E+02  0.67682197912E+03  0.68818342414E+03  0.00000000000E+00 0. -1.
        -13    1    3    3    0    0 -0.99852969457E+02 -0.83708319910E+02  0.33013420754E+03  0.35491730491E+03  0.00000000000E+00 0. -1.
         13    1    3    3    0    0 -0.64977644008E+02  0.43656869769E+00  0.33533470544E+03  0.34157231955E+03  0.00000000000E+00 0.  1.
         21    1    1    2  502  501  0.84605988271E+01  0.57270649271E+02  0.21696896747E+03  0.22455966211E+03  0.00000000000E+00 0. -1.
<scales pt_clust_5="13000.00000" pt_clust_6="13000.00000" pt_clust_7="13000.00000" pt_clust_8="13000.00000" pt_clust_9="57.89222"></scales>
<clustering>
<clus scale="   57.892">  1  9  2 -1</clus>
<clus scale="   90.253">  7  8 -1 -1</clus>
<clus scale="   91.841">  5  6 -1 -1</clus>
<clus scale="  193.196">  2  7  1 -1</clus>
<clus scale="   57.892">  1  5  2 -1</clus>
</clustering>
</event>
<event>
 9    1  0.1803370E-005  0.9470621E+02  0.7546771E-02  0.1294766E+00
          1   -1    0    0  502    0  0.00000000000E+00  0.00000000000E+00  0.14524922058E+03  0.14524922058E+03  0.00000000000E+00 0. -1.
         -1   -1    0    0    0  501 -0.00000000000E+00 -0.00000000000E+00 -0.38079032165E+03  0.38079032165E+03  0.00000000000E+00 0.  1.
         23    2    1    2    0    0  0.15636399248E+02  0.16344883133E+02 -0.33090612855E+03  0.34275146022E+03  0.86417853389E+02 0.  0.
         23    2    1    2    0    0 -0.38043341387E+02 -0.37363509344E+02  0.10682515611E+03  0.15049801871E+03  0.91622660971E+02 0.  0.
        -11    1    4    4    0    0 -0.95684417767E+00 -0.53705821804E+02  0.93509558179E+02  0.10783908530E+03  0.00000000000E+00 0. -1.
         11    1    4    4    0    0 -0.37086497209E+02  0.16342312460E+02  0.13315597930E+02  0.42658933414E+02  0.00000000000E+00 0.  1.
        -13    1    3    3    0    0  0.46550408867E+02  0.29768304978E+02 -0.19004776437E+03  0.19791726880E+03  0.00000000000E+00 0.  1.
         13    1    3    3    0    0 -0.30914009619E+02 -0.13423421845E+02 -0.14085836418E+03  0.14483419142E+03  0.00000000000E+00 0. -1.
         21    1    1    2  502  501  0.22406942139E+02  0.21018626212E+02 -0.11460128633E+02  0.32790063314E+02  0.00000000000E+00 0. -1.
<scales pt_clust_5="13000.00000" pt_clust_6="13000.00000" pt_clust_7="13000.00000" pt_clust_8="13000.00000" pt_clust_9="30.72220"></scales>
<clustering>
<clus scale="   30.722">  1  9  2 -1</clus>
<clus scale="   86.418">  7  8 -1 -1</clus>
<clus scale="   89.681">  2  7  1 -1</clus>
<clus scale="   91.623">  5  6 -1 -1</clus>
<clus scale="   30.722">  1  5  2 -1</clus>
</clustering>
</event>
<event>
 9    1  0.1803370E-005  0.1120668E+03  0.7546771E-02  0.1257555E+00
         -4   -1    0    0    0  501 -0.00000000000E+00  0.00000000000E+00  0.24366374498E+03  0.24366374498E+03  0.00000000000E+00 0.  1.
          4   -1    0    0  502    0  0.00000000000E+00 -0.00000000000E+00 -0.12383586881E+03  0.12383586881E+03  0.00000000000E+00 0. -1.
         23    2    1    2    0    0 -0.15262923835E+02  0.67772693632E+02  0.14586782459E+03  0.18663014485E+03  0.93419986464E+02 0.  0.
         23    2    1    2    0    0 -0.47403427653E+02 -0.43086849667E+02 -0.17581778192E+02  0.11298719478E+03  0.91397077048E+02 0.  0.
        -11    1    4    4    0    0  0.26929574597E+02 -0.33089626208E+01 -0.16040320568E+01  0.27179480135E+02  0.00000000000E+00 0. -1.
         11    1    4    4    0    0 -0.74333002250E+02 -0.39777887047E+02 -0.15977746135E+02  0.85807714647E+02  0.00000000000E+00 0.  1.
        -11    1    3    3    0    0  0.90627256921E+01  0.59693955748E+02  0.14903712412E+03  0.16080287844E+03  0.00000000000E+00 0.  1.
         11    1    3    3    0    0 -0.24325649527E+02  0.80787378847E+01 -0.31692995290E+01  0.25827266410E+02  0.00000000000E+00 0. -1.
         21    1    1    2  502  501  0.62666351488E+02 -0.24685843965E+02 -0.84581702342E+01  0.67882274157E+02  0.00000000000E+00 0. -1.
<scales pt_clust_5="13000.00000" pt_clust_6="13000.00000" pt_clust_7="13000.00000" pt_clust_8="13000.00000" pt_clust_9="67.35327"></scales>
<clustering>
<clus scale="   67.353">  2  9  1 -1</clus>
<clus scale="   91.397">  5  6 -1 -1</clus>
<clus scale="   93.420">  7  8 -1 -1</clus>
<clus scale="  110.386">  2  5  1 -1</clus>
<clus scale="   67.353">  2  5  1 -1</clus>
</clustering>
</event>
<event>
 9    1  0.1803370E-005  0.9782346E+02  0.7546771E-02  0.1285302E+00
         -1   -1    0    0    0  501 -0.00000000000E+00  0.00000000000E+00  0.18117895262E+03  0.18117895262E+03  0.00000000000E+00 0.  1.
          1   -1    0    0  502    0  0.00000000000E+00 -0.00000000000E+00 -0.25410730083E+03  0.25410730083E+03  0.00000000000E+00 0. -1.
         23    2    1    2    0    0  0.36986061764E+02  0.64274199829E+01  0.14790957758E+03  0.17729786601E+03  0.90266326285E+02 0.  0.
         23    2    1    2    0    0 -0.22639457486E+02  0.24512716044E+02 -0.14016848470E+03  0.17040599310E+03  0.90981207387E+02 0.  0.
        -11    1    4    4    0    0  0.14341710935E+02 -0.28213330223E+02 -0.57239012420E+02  0.65406278121E+02  0.00000000000E+00 0.  1.
         11    1    4    4    0    0 -0.36981168421E+02  0.52726046267E+02 -0.82929472284E+02  0.10499971498E+03  0.00000000000E+00 0. -1.
        -13    1    3    3    0    0  0.29619656193E+02  0.38703225807E+02  0.13171662461E+03  0.14044405619E+03  0.00000000000E+00 0.  1.
         13    1    3    3    0    0  0.73664055706E+01 -0.32275805824E+02  0.16192952972E+02  0.36853809825E+02  0.00000000000E+00 0. -1.
         21    1    1    2  502  501 -0.14346604278E+02 -0.30940136027E+02 -0.80669441087E+02  0.87582394332E+02  0.00000000000E+00 0. -1.
<scales pt_clust_5="13000.00000" pt_clust_6="13000.00000" pt_clust_7="13000.00000" pt_clust_8="13000.00000" pt_clust_9="34.10450"></scales>
<clustering>
<clus scale="   34.105">  2  9  1 -1</clus>
<clus scale="   90.266">  7  8 -1 -1</clus>
<clus scale="   90.981">  5  6 -1 -1</clus>
<clus scale="   97.159">  1  7  2 -1</clus>
<clus scale="   34.105">  2  5  1 -1</clus>
</clustering>
</event>
<event>
 9    1  0.1803370E-005  0.1265196E+03  0.7546771E-02  0.1233343E+00
          1   -1    0    0  502    0  0.00000000000E+00  0.00000000000E+00  0.47193669384E+03  0.47193669384E+03  0.00000000000E+00 0. -1.
         -1   -1    0    0    0  501 -0.00000000000E+00 -0.00000000000E+00 -0.62021033784E+02  0.62021033784E+02  0.00000000000E+00 0.  1.
         23    2    1    2    0    0 -0.78236207661E+02 -0.55210735205E+02  0.68879943414E+02  0.14909683804E+03  0.91193700640E+02 0.  0.
         23    2    1    2    0    0  0.38904016927E+02  0.60806995156E+02  0.15613279461E+03  0.19573809898E+03  0.93407390738E+02 0.  0.
        -11    1    3    3    0    0 -0.52803599905E+02 -0.23829542510E+02  0.87243238026E+02  0.10472559305E+03  0.00000000000E+00 0. -1.
         11    1    3    3    0    0 -0.25432607756E+02 -0.31381192695E+02 -0.18363294612E+02  0.44371244982E+02  0.00000000000E+00 0.  1.
        -13    1    4    4    0    0  0.11074662406E+01 -0.20582389978E+02  0.63521489774E+02  0.66782040414E+02  0.00000000000E+00 0. -1.
         13    1    4    4    0    0  0.37796550687E+02  0.81389385134E+02  0.92611304838E+02  0.12895605856E+03  0.00000000000E+00 0.  1.
         21    1    1    2  502  501  0.39332190734E+02 -0.55962599506E+01  0.18490292203E+03  0.18912279061E+03  0.00000000000E+00 0. -1.
<scales pt_clust_5="13000.00000" pt_clust_6="13000.00000" pt_clust_7="13000.00000" pt_clust_8="13000.00000" pt_clust_9="39.72832"></scales>
<clustering>
<clus scale="   39.728">  1  9  2 -1</clus>
<clus scale="   91.194">  5  6 -1 -1</clus>
<clus scale="   93.407">  7  8 -1 -1</clus>
<clus scale="  124.894">  2  5  1 -1</clus>
<clus scale="   39.728">  1  5  2 -1</clus>
</clustering>
</event>
<event>
 9    1  0.1803370E-005  0.1084670E+03  0.7546771E-02  0.1270294E+00
         -3   -1    0    0    0  501 -0.00000000000E+00  0.00000000000E+00  0.17444101818E+03  0.17444101818E+03  0.00000000000E+00 0.  1.
          3   -1    0    0  502    0  0.00000000000E+00 -0.00000000000E+00 -0.83755290282E+02  0.83755290282E+02  0.00000000000E+00 0. -1.
         23    2    1    2    0    0 -0.17870783800E+02 -0.21544974233E+02  0.52620329083E+02  0.10913143914E+03  0.91417838239E+02 0.  0.
         23    2    1    2    0    0  0.31349344382E+02 -0.59423273578E+01  0.42667839377E+02  0.11810673948E+03  0.10540666366E+03 0.  0.
        -13    1    3    3    0    0 -0.13070859280E+02  0.30676560731E+02 -0.20082355677E+01  0.33405564666E+02  0.00000000000E+00 0.  1.
         13    1    3    3    0    0 -0.47999245196E+01 -0.52221534964E+02  0.54628564651E+02  0.75725874476E+02  0.00000000000E+00 0. -1.
        -13    1    4    4    0    0 -0.29666528463E+02  0.11117620754E+02  0.44616832109E+02  0.54720801435E+02  0.00000000000E+00 0.  1.
         13    1    4    4    0    0  0.61015872845E+02 -0.17059948112E+02 -0.19489927324E+01  0.63385938041E+02  0.00000000000E+00 0. -1.
         21    1    1    2  502  501 -0.13478560583E+02  0.27487301591E+02 -0.46024405640E+01  0.30958129841E+02  0.00000000000E+00 0. -1.
<scales pt_clust_5="13000.00000" pt_clust_6="13000.00000" pt_clust_7="13000.00000" pt_clust_8="13000.00000" pt_clust_9="30.61410"></scales>
<clustering>
<clus scale="   30.614">  2  9  1 -1</clus>
<clus scale="   91.418">  5  6 -1 -1</clus>
<clus scale="   94.930">  1  5  2 -1</clus>
<clus scale="  105.407">  7  8 -1 -1</clus>
<clus scale="   30.614">  2  5  1 -1</clus>
</clustering>
</event>
<event>
 9    1  0.1803370E-005  0.9602844E+02  0.7546771E-02  0.1289020E+00
          1   -1    0    0  502    0  0.00000000000E+00  0.00000000000E+00  0.74504524851E+02  0.74504524851E+02  0.00000000000E+00 0. -1.
         -1   -1    0    0    0  501 -0.00000000000E+00 -0.00000000000E+00 -0.27506259480E+03  0.27506259480E+03  0.00000000000E+00 0.  1.
         23    2    1    2    0    0 -0.96693390138E+01 -0.47507213082E+02 -0.13531169055E+03  0.17040944804E+03  0.91540673858E+02 0.  0.
         23    2    1    2    0    0  0.20360219483E+02 -0.21296842962E+02 -0.29177113101E+02  0.10074029456E+03  0.91810723561E+02 0.  0.
        -13    1    4    4    0    0  0.65421437211E+01  0.36371874834E+02 -0.83406899470E+01  0.37885089840E+02  0.00000000000E+00 0.  1.
         13    1    4    4    0    0  0.13818075762E+02 -0.57668717796E+02 -0.20836423154E+02  0.62855204716E+02  0.00000000000E+00 0. -1.
        -13    1    3    3    0    0  0.18691054687E+02 -0.66527348790E+02 -0.83964131783E+02  0.10874382322E+03  0.00000000000E+00 0. -1.
         13    1    3    3    0    0 -0.28360393701E+02  0.19020135709E+02 -0.51347558764E+02  0.61665624818E+02  0.00000000000E+00 0.  1.
         21    1    1    2  502  501 -0.10690880469E+02  0.68804056044E+02 -0.36069266303E+02  0.78417377060E+02  0.00000000000E+00 0.  1.
<scales pt_clust_5="13000.00000" pt_clust_6="13000.00000" pt_clust_7="13000.00000" pt_clust_8="13000.00000" pt_clust_9="69.62969"></scales>
<clustering>
<clus scale="   69.630">  1  9  2 -1</clus>
<clus scale="   91.541">  7  8 -1 -1</clus>
<clus scale="   91.811">  5  6 -1 -1</clus>
<clus scale="   95.770">  2  7  1 -1</clus>
<clus scale="   69.630">  1  5  2 -1</clus>
</clustering>
</event>
<event>
 9    1  0.1803370E-005  0.1036375E+03  0.7546771E-02  0.1273561E+00
         -1   -1    0    0    0  501 -0.00000000000E+00  0.00000000000E+00  0.14161700482E+03  0.14161700482E+03  0.00000000000E+00 0.  1.
          1   -1    0    0  502    0  0.00000000000E+00 -0.00000000000E+00 -0.11179268555E+03  0.11179268555E+03  0.00000000000E+00 0. -1.
         23    2    1    2    0    0  0.40691672885E+02 -0.81324956399E+01  0.14717515495E+02  0.10222372698E+03  0.92255814818E+02 0.  0.
         23    2    1    2    0    0 -0.28175278267E+02  0.47069369232E+02  0.17948769550E+02  0.11018819481E+03  0.93861110801E+02 0.  0.
        -11    1    3    3    0    0 -0.14153605982E+02 -0.30087904782E+02  0.25838126807E+02  0.42109563918E+02  0.00000000000E+00 0.  1.
         11    1    3    3    0    0  0.54845278867E+02  0.21955409142E+02 -0.11120611312E+02  0.60114163061E+02  0.00000000000E+00 0. -1.
        -11    1    4    4    0    0 -0.24601735694E+02 -0.25097478789E+02  0.13983630491E+02  0.37824208682E+02  0.00000000000E+00 0.  1.
         11    1    4    4    0    0 -0.35735425727E+01  0.72166848022E+02  0.39651390596E+01  0.72363986123E+02  0.00000000000E+00 0. -1.
         21    1    1    2  502  501 -0.12516394619E+02 -0.38936873592E+02 -0.28419657786E+01  0.40997768584E+02  0.00000000000E+00 0.  1.
<scales pt_clust_5="13000.00000" pt_clust_6="13000.00000" pt_clust_7="13000.00000" pt_clust_8="13000.00000" pt_clust_9="40.89915"></scales>
<clustering>
<clus scale="   40.899">  2  9  1 -1</clus>
<clus scale="   92.256">  5  6 -1 -1</clus>
<clus scale="   93.861">  7  8 -1 -1</clus>
<clus scale="  102.186">  1  5  2 -1</clus>
<clus scale="   40.899">  2  5  1 -1</clus>
</clustering>
</event>
<event>
 9    1  0.1803370E-005  0.9179519E+02  0.7546771E-02  0.1298837E+00
         -3   -1    0    0    0  501 -0.00000000000E+00  0.00000000000E+00  0.10108476529E+03  0.10108476529E+03  0.00000000000E+00 0.  1.
          3   -1    0    0  502    0  0.00000000000E+00 -0.00000000000E+00 -0.46770413722E+03  0.46770413722E+03  0.00000000000E+00 0. -1.
         23    2    1    2    0    0 -0.11620905575E+02 -0.14764342420E+02  0.56339787711E+02  0.10802638366E+03  0.90235783554E+02 0.  0.
         23    2    1    2    0    0 -0.37692871314E+02  0.24995300286E+02 -0.13432673006E+03  0.16776900272E+03  0.89762187363E+02 0.  0.
        -11    1    4    4    0    0  0.20931141800E+02  0.29633281032E+02 -0.79418096527E+02  0.87312531161E+02  0.00000000000E+00 0. -1.
         11    1    4    4    0    0 -0.58624013114E+02 -0.46379807462E+01 -0.54908633533E+02  0.80456471557E+02  0.00000000000E+00 0.  1.
        -13    1    3    3    0    0  0.11826001567E+02  0.30840991832E+02  0.16734365902E+01  0.33072972051E+02  0.00000000000E+00 0. -1.
         13    1    3    3    0    0 -0.23446907142E+02 -0.45605334252E+02  0.54666351121E+02  0.74953411608E+02  0.00000000000E+00 0.  1.
         21    1    1    2  502  501  0.49313776889E+02 -0.10230957866E+02 -0.28863242958E+03  0.29299351613E+03  0.00000000000E+00 0. -1.
<scales pt_clust_5="13000.00000" pt_clust_6="13000.00000" pt_clust_7="13000.00000" pt_clust_8="13000.00000" pt_clust_9="50.36389"></scales>
<clustering>
<clus scale="   50.364">  2  9  1 -1</clus>
<clus scale="   89.762">  5  6 -1 -1</clus>
<clus scale="   90.236">  7  8 -1 -1</clus>
<clus scale="   91.330">  2  5  1 -1</clus>
<clus scale="   50.364">  2  5  1 -1</clus>
</clustering>
</event>
<event>
 9    1  0.1803370E-005  0.1147236E+03  0.7546771E-02  0.1252302E+00
         -1   -1    0    0    0  501 -0.00000000000E+00  0.00000000000E+00  0.46053712801E+02  0.46053712801E+02  0.00000000000E+00 0.  1.
          1   -1    0    0  502    0  0.00000000000E+00 -0.00000000000E+00 -0.41784730342E+03  0.41784730342E+03  0.00000000000E+00 0. -1.
         23    2    1    2    0    0  0.41448894128E+02  0.79637938458E+02 -0.12489933559E+03  0.17883616010E+03  0.91226728886E+02 0.  0.
         23    2    1    2    0    0 -0.25827792632E+02 -0.54140729521E+02 -0.21762188932E+03  0.24321992967E+03  0.90544762472E+02 0.  0.
        -11    1    4    4    0    0 -0.39567661931E+02  0.10867318133E+02 -0.66568849736E+02  0.78199170259E+02  0.00000000000E+00 0. -1.
         11    1    4    4    0    0  0.13739869298E+02 -0.65008047654E+02 -0.15105303958E+03  0.16502075941E+03  0.00000000000E+00 0.  1.
        -13    1    3    3    0    0 -0.22151751969E+02  0.35237146337E+02 -0.14835462828E+02  0.44186508739E+02  0.00000000000E+00 0. -1.
         13    1    3    3    0    0  0.63600646097E+02  0.44400792121E+02 -0.11006387276E+03  0.13464965136E+03  0.00000000000E+00 0.  1.
         21    1    1    2  502  501 -0.15621101496E+02 -0.25497208937E+02 -0.29272365709E+02  0.41844926451E+02  0.00000000000E+00 0. -1.
<scales pt_clust_5="13000.00000" pt_clust_6="13000.00000" pt_clust_7="13000.00000" pt_clust_8="13000.00000" pt_clust_9="29.90195"></scales>
<clustering>
<clus scale="   29.902">  1  9  2 -1</clus>
<clus scale="   90.545">  5  6 -1 -1</clus>
<clus scale="   91.227">  7  8 -1 -1</clus>
<clus scale="  114.182">  2  5  1 -1</clus>
<clus scale="  114.182">  2  5  1 -1</clus>
</clustering>
</event>
<event>
 9    1  0.1803370E-005  0.1127808E+03  0.7546771E-02  0.1257733E+00
         -1   -1    0    0    0  501 -0.00000000000E+00  0.00000000000E+00  0.16859850138E+02  0.16859850138E+02  0.00000000000E+00 0.  1.
          1   -1    0    0  502    0  0.00000000000E+00 -0.00000000000E+00 -0.10493345048E+04  0.10493345048E+04  0.00000000000E+00 0. -1.
         23    2    1    2    0    0 -0.10296110691E+02 -0.69246340164E+02 -0.35782355470E+03  0.37771393398E+03  0.98635967561E+02 0.  0.
         23    2    1    2    0    0 -0.88083432673E+01  0.47745879047E+02 -0.58466415282E+03  0.59400872867E+03  0.93042690563E+02 0.  0.
        -11    1    4    4    0    0 -0.24001435722E+02 -0.22535911819E+02 -0.17068157937E+03  0.17382789699E+03  0.00000000000E+00 0. -1.
         11    1    4    4    0    0  0.15193092455E+02  0.70281790866E+02 -0.41398257345E+03  0.42018083167E+03  0.00000000000E+00 0.  1.
        -11    1    3    3    0    0 -0.41977123517E+02 -0.19984836564E+02 -0.70279546363E+02  0.84265575582E+02  0.00000000000E+00 0.  1.
         11    1    3    3    0    0  0.31681012826E+02 -0.49261503601E+02 -0.28754400834E+03  0.29344835839E+03  0.00000000000E+00 0. -1.
         21    1    1    2  502  501  0.19104453959E+02  0.21500461118E+02 -0.89986947134E+02  0.94471692288E+02  0.00000000000E+00 0. -1.
<scales pt_clust_5="13000.00000" pt_clust_6="13000.00000" pt_clust_7="13000.00000" pt_clust_8="13000.00000" pt_clust_9="28.76195"></scales>
<clustering>
<clus scale="   28.762">  1  9  2 -1</clus>
<clus scale="   93.043">  5  6 -1 -1</clus>
<clus scale="   98.636">  7  8 -1 -1</clus>
<clus scale="  107.923">  2  5  1 -1</clus>
<clus scale="  107.923">  2  5  1 -1</clus>
</clustering>
</event>
<event>
 9    1  0.1803370E-005  0.9864513E+02  0.7546771E-02  0.1283266E+00
          2   -1    0    0  502    0  0.00000000000E+00  0.00000000000E+00  0.49710218169E+03  0.49710218169E+03  0.00000000000E+00 0. -1.
         -2   -1    0    0    0  501 -0.00000000000E+00 -0.00000000000E+00 -0.34278864719E+02  0.34278864719E+02  0.00000000000E+00 0.  1.
         23    2    1    2    0    0 -0.14759046323E+01  0.48337709180E+02  0.96723866094E+02  0.14098165815E+03  0.90452248395E+02 0.  0.
         23    2    1    2    0    0  0.24456373242E+02 -0.29405749485E+02  0.32555838189E+03  0.34009929571E+03  0.90644683408E+02 0.  0.
        -11    1    3    3    0    0  0.43762920295E+02  0.31764001766E+02  0.45630928820E+02  0.70755400259E+02  0.00000000000E+00 0.  1.
         11    1    3    3    0    0 -0.45238824927E+02  0.16573707414E+02  0.51092937274E+02  0.70226257892E+02  0.00000000000E+00 0. -1.
        -13    1    4    4    0    0 -0.34051680945E+02 -0.65797488315E+01  0.94700560504E+02  0.10085140668E+03  0.00000000000E+00 0. -1.
         13    1    4    4    0    0  0.58508054187E+02 -0.22826000654E+02  0.23085782138E+03  0.23924788903E+03  0.00000000000E+00 0.  1.
         21    1    1    2  502  501 -0.22980468610E+02 -0.18931959695E+02  0.40541068988E+02  0.50300092546E+02  0.00000000000E+00 0. -1.
<scales pt_clust_5="13000.00000" pt_clust_6="13000.00000" pt_clust_7="13000.00000" pt_clust_8="13000.00000" pt_clust_9="29.77450"></scales>
<clustering>
<clus scale="   29.775">  2  9  1 -1</clus>
<clus scale="   90.452">  5  6 -1 -1</clus>
<clus scale="   90.645">  7  8 -1 -1</clus>
<clus scale="   98.468">  2  5  1 -1</clus>
<clus scale="   98.645">  1  5  2 -1</clus>
</clustering>
</event>
<event>
 9    1  0.1803370E-005  0.1088587E+03  0.7546771E-02  0.1262874E+00
         -1   -1    0    0    0  501 -0.00000000000E+00  0.00000000000E+00  0.40408220583E+03  0.40408220583E+03  0.00000000000E+00 0.  1.
          1   -1    0    0  502    0  0.00000000000E+00 -0.00000000000E+00 -0.41640422295E+02  0.41640422295E+02  0.00000000000E+00 0. -1.
         23    2    1    2    0    0 -0.62995272893E+02 -0.21043114710E+02  0.25596145043E+03  0.27971629957E+03  0.91179641684E+02 0.  0.
         23    2    1    2    0    0  0.39025959766E+02  0.26793124486E+02  0.90628386402E+02  0.13669976276E+03  0.90732704479E+02 0.  0.
        -11    1    3    3    0    0 -0.99576124382E+01 -0.48895825182E+02  0.85020395737E+02  0.98582064581E+02  0.00000000000E+00 0. -1.
         11    1    3    3    0    0 -0.53037660455E+02  0.27852710472E+02  0.17094105469E+03  0.18113423499E+03  0.00000000000E+00 0.  1.
        -13    1    4    4    0    0  0.16315229794E+02  0.39185208208E+02  0.10043175922E+03  0.10903304786E+03  0.00000000000E+00 0. -1.
         13    1    4    4    0    0  0.22710729972E+02 -0.12392083722E+02 -0.98033728186E+01  0.27666714902E+02  0.00000000000E+00 0.  1.
         21    1    1    2  502  501  0.23969313127E+02 -0.57500097759E+01  0.15851946707E+02  0.29306565793E+02  0.00000000000E+00 0. -1.
<scales pt_clust_5="13000.00000" pt_clust_6="13000.00000" pt_clust_7="13000.00000" pt_clust_8="13000.00000" pt_clust_9="24.64935"></scales>
<clustering>
<clus scale="   24.649">  2  9  1 -1</clus>
<clus scale="   90.733">  7  8 -1 -1</clus>
<clus scale="   91.180">  5  6 -1 -1</clus>
<clus scale="  108.485">  2  7  1 -1</clus>
<clus scale="   24.649">  2  5  1 -1</clus>
</clustering>
</event>
<event>
 9    1  0.1803370E-005  0.1001855E+03  0.7546771E-02  0.1283943E+00
          2   -1    0    0  502    0  0.00000000000E+00  0.00000000000E+00  0.11350314210E+04  0.11350314210E+04  0.00000000000E+00 0. -1.
         -2   -1    0    0    0  501 -0.00000000000E+00 -0.00000000000E+00 -0.10755901488E+02  0.10755901488E+02  0.00000000000E+00 0.  1.
         23    2    1    2    0    0  0.44927385976E+00 -0.41167425351E+02  0.47099108267E+03  0.48054053137E+03  0.85974668209E+02 0.  0.
         23    2    1    2    0    0  0.20306621530E+02  0.26019266435E+02  0.53857645126E+03  0.54769596863E+03  0.93898450990E+02 0.  0.
        -11    1    3    3    0    0  0.23226516117E+02 -0.60899840104E+02  0.31897135917E+03  0.32556257393E+03  0.00000000000E+00 0. -1.
         11    1    3    3    0    0 -0.22777242257E+02  0.19732414753E+02  0.15201972350E+03  0.15497795743E+03  0.00000000000E+00 0.  1.
        -13    1    4    4    0    0  0.55363782522E+02  0.31972452245E+02  0.33871682870E+03  0.34469765906E+03  0.00000000000E+00 0. -1.
         13    1    4    4    0    0 -0.35057160992E+02 -0.59531858101E+01  0.19985962257E+03  0.20299830957E+03  0.00000000000E+00 0.  1.
         21    1    1    2  502  501 -0.20755895390E+02  0.15148158917E+02  0.11470798553E+03  0.11755082244E+03  0.00000000000E+00 0. -1.
<scales pt_clust_5="13000.00000" pt_clust_6="13000.00000" pt_clust_7="13000.00000" pt_clust_8="13000.00000" pt_clust_9="25.69580"></scales>
<clustering>
<clus scale="   25.696">  2  9  1 -1</clus>
<clus scale="   85.975">  5  6 -1 -1</clus>
<clus scale="   92.800">  2  5  1 -1</clus>
<clus scale="   93.898">  7  8 -1 -1</clus>
<clus scale="  100.185">  1  5  2 -1</clus>
</clustering>
</event>
<event>
 9    1  0.1803370E-005  0.9430589E+02  0.7546771E-02  0.1294132E+00
          2   -1    0    0  502    0  0.00000000000E+00  0.00000000000E+00  0.22570558479E+02  0.22570558479E+02  0.00000000000E+00 0. -1.
         -2   -1    0    0    0  501 -0.00000000000E+00 -0.00000000000E+00 -0.57951635124E+03  0.57951635124E+03  0.00000000000E+00 0.  1.
         23    2    1    2    0    0  0.49381088843E+01 -0.13041469726E+02 -0.33355776158E+03  0.34569168421E+03  0.89707833360E+02 0.  0.
         23    2    1    2    0    0 -0.29875424244E+02  0.18318443831E+02 -0.19301710403E+03  0.21674539110E+03  0.92167541772E+02 0.  0.
        -11    1    3    3    0    0  0.38301406244E+02 -0.33238652961E+02 -0.21430156264E+03  0.22022026592E+03  0.00000000000E+00 0.  1.
         11    1    3    3    0    0 -0.33363297360E+02  0.20197183235E+02 -0.11925619894E+03  0.12547141829E+03  0.00000000000E+00 0. -1.
        -13    1    4    4    0    0 -0.48891640465E+02 -0.14032184939E+02 -0.60621577505E+02  0.79134508153E+02  0.00000000000E+00 0.  1.
         13    1    4    4    0    0  0.19016216220E+02  0.32350628770E+02 -0.13239552652E+03  0.13761088294E+03  0.00000000000E+00 0. -1.
         21    1    1    2  502  501  0.24937315360E+02 -0.52769741055E+01 -0.30370927148E+02  0.39649834412E+02  0.00000000000E+00 0. -1.
<scales pt_clust_5="13000.00000" pt_clust_6="13000.00000" pt_clust_7="13000.00000" pt_clust_8="13000.00000" pt_clust_9="25.48953"></scales>
<clustering>
<clus scale="   25.490">  1  9  2 -1</clus>
<clus scale="   89.708">  5  6 -1 -1</clus>
<clus scale="   91.903">  2  5  1 -1</clus>
<clus scale="   92.168">  7  8 -1 -1</clus>
<clus scale="   25.490">  1  5  2 -1</clus>
</clustering>
</event>
<event>
 9    1  0.1803370E-005  0.1780152E+03  0.7546771E-02  0.1170788E+00
         -1   -1    0    0    0  501 -0.00000000000E+00  0.00000000000E+00  0.18378911332E+03  0.18378911332E+03  0.00000000000E+00 0.  1.
          1   -1    0    0  502    0  0.00000000000E+00 -0.00000000000E+00 -0.10587814861E+04  0.10587814861E+04  0.00000000000E+00 0. -1.
         23    2    1    2    0    0  0.14414296045E+03 -0.21074609962E+02  0.93957118050E+02  0.19350995857E+03  0.86004835921E+02 0.  0.
         23    2    1    2    0    0 -0.24698335285E+03 -0.26841313234E+02 -0.81900652313E+03  0.86103145278E+03  0.94245663367E+02 0.  0.
        -11    1    3    3    0    0  0.32593402446E+02 -0.72306638295E+01 -0.15327330877E+02  0.36736078373E+02  0.00000000000E+00 0.  1.
         11    1    3    3    0    0  0.11154955800E+03 -0.13843946132E+02  0.10928444893E+03  0.15677388020E+03  0.00000000000E+00 0. -1.
        -13    1    4    4    0    0 -0.20040608733E+03  0.19992687889E+01 -0.72535524481E+03  0.75253360596E+03  0.00000000000E+00 0.  1.
         13    1    4    4    0    0 -0.46577265521E+02 -0.28840582023E+02 -0.93651278312E+02  0.10849784682E+03  0.00000000000E+00 0. -1.
         21    1    1    2  502  501  0.10284039240E+03  0.47915923196E+02 -0.14994296770E+03  0.18802918807E+03  0.00000000000E+00 0. -1.
<scales pt_clust_5="13000.00000" pt_clust_6="13000.00000" pt_clust_7="13000.00000" pt_clust_8="13000.00000" pt_clust_9="113.45520"></scales>
<clustering>
<clus scale="   86.005">  5  6 -1 -1</clus>
<clus scale="   94.246">  7  8 -1 -1</clus>
<clus scale="  113.455">  2  9  1 -1</clus>
<clus scale="  173.793">  1  5  2 -1</clus>
<clus scale="  113.455">  2  5  1 -1</clus>
</clustering>
</event>
<event>
 9    1  0.1803370E-005  0.1211015E+03  0.7546771E-02  0.1242504E+00
          1   -1    0    0  502    0  0.00000000000E+00  0.00000000000E+00  0.10772962932E+03  0.10772962932E+03  0.00000000000E+00 0. -1.
         -1   -1    0    0    0  501 -0.00000000000E+00 -0.00000000000E+00 -0.18710944238E+03  0.18710944238E+03  0.00000000000E+00 0.  1.
         23    2    1    2    0    0 -0.46965772568E+02 -0.43136935142E+02 -0.94030402954E+02  0.14766228611E+03  0.94317840795E+02 0.  0.
         23    2    1    2    0    0  0.49291580903E+02  0.64720701521E+02  0.23114626781E+02  0.12387639341E+03  0.90513235056E+02 0.  0.
        -11    1    3    3    0    0 -0.46455796728E+02 -0.12023588839E+02 -0.10436912845E+03  0.11487220165E+03  0.00000000000E+00 0.  1.
         11    1    3    3    0    0 -0.50997584059E+00 -0.31113346303E+02  0.10338725501E+02  0.32790084454E+02  0.00000000000E+00 0. -1.
        -11    1    4    4    0    0 -0.62635202344E+01  0.60354035134E+02 -0.60509057341E+01  0.60979133340E+02  0.00000000000E+00 0.  1.
         11    1    4    4    0    0  0.55555101137E+02  0.43666663869E+01  0.29165532515E+02  0.62897260072E+02  0.00000000000E+00 0. -1.
         21    1    1    2  502  501 -0.23258083347E+01 -0.21583766379E+02 -0.84640368800E+01  0.23300392182E+02  0.00000000000E+00 0. -1.
<scales pt_clust_5="13000.00000" pt_clust_6="13000.00000" pt_clust_7="13000.00000" pt_clust_8="13000.00000" pt_clust_9="21.70872"></scales>
<clustering>
<clus scale="   21.709">  2  9  1 -1</clus>
<clus scale="   90.513">  7  8 -1 -1</clus>
<clus scale="   94.318">  5  6 -1 -1</clus>
<clus scale="  118.162">  1  7  2 -1</clus>
<clus scale="  118.162">  1  5  2 -1</clus>
</clustering>
</event>
<event>
 9    1  0.1803370E-005  0.1288951E+03  0.7546771E-02  0.1229442E+00
         -1   -1    0    0    0  501 -0.00000000000E+00  0.00000000000E+00  0.18231883105E+03  0.18231883105E+03  0.00000000000E+00 0.  1.
          1   -1    0    0  502    0  0.00000000000E+00 -0.00000000000E+00 -0.13188328559E+03  0.13188328559E+03  0.00000000000E+00 0. -1.
         23    2    1    2    0    0  0.17080175182E+02 -0.80924164700E+02  0.68895370733E+02  0.14079097637E+03  0.90747309056E+02 0.  0.
         23    2    1    2    0    0 -0.38157101102E+02  0.98734742486E+02 -0.69620350251E-01  0.14025012213E+03  0.92008576619E+02 0.  0.
        -11    1    3    3    0    0  0.28833525959E+02 -0.97843853624E+02  0.54422828313E+02  0.11561416934E+03  0.00000000000E+00 0.  1.
         11    1    3    3    0    0 -0.11753350777E+02  0.16919688924E+02  0.14472542420E+02  0.25176807023E+02  0.00000000000E+00 0. -1.
        -13    1    4    4    0    0 -0.20472884154E+02  0.17855516033E+02  0.39937227484E+02  0.48300523573E+02  0.00000000000E+00 0.  1.
         13    1    4    4    0    0 -0.17684216949E+02  0.80879226453E+02 -0.40006847834E+02  0.91949598554E+02  0.00000000000E+00 0. -1.
         21    1    1    2  502  501  0.21076925920E+02 -0.17810577786E+02 -0.18390204918E+02  0.33161018142E+02  0.00000000000E+00 0.  1.
<scales pt_clust_5="13000.00000" pt_clust_6="13000.00000" pt_clust_7="13000.00000" pt_clust_8="13000.00000" pt_clust_9="27.59445"></scales>
<clustering>
<clus scale="   27.594">  2  9  1 -1</clus>
<clus scale="   90.747">  5  6 -1 -1</clus>
<clus scale="   92.009">  7  8 -1 -1</clus>
<clus scale="  127.998">  1  5  2 -1</clus>
<clus scale="   27.594">  2  5  1 -1</clus>
</clustering>
</event>
<event>
 9    1  0.1803370E-005  0.9318907E+02  0.7546771E-02  0.1298018E+00
          2   -1    0    0  502    0  0.00000000000E+00  0.00000000000E+00  0.16497465257E+03  0.16497465257E+03  0.00000000000E+00 0. -1.
         -2   -1    0    0    0  501 -0.00000000000E+00 -0.00000000000E+00 -0.70347449404E+02  0.70347449404E+02  0.00000000000E+00 0.  1.
         23    2    1    2    0    0 -0.50166164535E+01  0.15344328459E+02  0.27085671885E+02  0.91492138762E+02  0.85886919710E+02 0.  0.
         23    2    1    2    0    0 -0.21485133160E+02 -0.28246233061E+02  0.48228694704E+02  0.10859095739E+03  0.90589891291E+02 0.  0.
        -11    1    4    4    0    0 -0.36608888022E+01 -0.55309143831E+02  0.65782516185E+01  0.55819144498E+02  0.00000000000E+00 0. -1.
         11    1    4    4    0    0 -0.17824244358E+02  0.27062910770E+02  0.41650443085E+02  0.52771812888E+02  0.00000000000E+00 0.  1.
        -13    1    3    3    0    0  0.40433101952E+02  0.94062721269E+01  0.14292112133E+02  0.43904192943E+02  0.00000000000E+00 0.  1.
         13    1    3    3    0    0 -0.45449718405E+02  0.59380563321E+01  0.12793559752E+02  0.47587945819E+02  0.00000000000E+00 0. -1.
         21    1    1    2  502  501  0.26501749614E+02  0.12901904602E+02  0.19312836578E+02  0.35239005826E+02  0.00000000000E+00 0.  1.
<scales pt_clust_5="13000.00000" pt_clust_6="13000.00000" pt_clust_7="13000.00000" pt_clust_8="13000.00000" pt_clust_9="29.47545"></scales>
<clustering>
<clus scale="   29.475">  1  9  2 -1</clus>
<clus scale="   85.887">  7  8 -1 -1</clus>
<clus scale="   88.624">  2  7  1 -1</clus>
<clus scale="   90.590">  5  6 -1 -1</clus>
<clus scale="   29.475">  1  5  2 -1</clus>
</clustering>
</event>
<event>
 9    1  0.1803370E-005  0.1477799E+03  0.7546771E-02  0.1203468E+00
         -1   -1    0    0    0  501 -0.00000000000E+00  0.00000000000E+00  0.13106720664E+03  0.13106720664E+03  0.00000000000E+00 0.  1.
          1   -1    0    0  502    0  0.00000000000E+00 -0.00000000000E+00 -0.56748266694E+03  0.56748266694E+03  0.00000000000E+00 0. -1.
         23    2    1    2    0    0 -0.11418148906E+03 -0.50678193566E+02  0.62436114230E+02  0.16736451853E+03  0.92232976521E+02 0.  0.
         23    2    1    2    0    0  0.60347194429E+02  0.20557958696E+02 -0.24359630332E+03  0.26858182631E+03  0.93448514652E+02 0.  0.
        -11    1    3    3    0    0 -0.63929028325E+02 -0.15437739323E+02 -0.16081320571E+02  0.67704160355E+02  0.00000000000E+00 0. -1.
         11    1    3    3    0    0 -0.50252460731E+02 -0.35240454243E+02  0.78517434801E+02  0.99660358180E+02  0.00000000000E+00 0.  1.
        -13    1    4    4    0    0  0.20874102543E+02  0.10206990350E+02 -0.17334569933E+01  0.23300551112E+02  0.00000000000E+00 0.  1.
         13    1    4    4    0    0  0.39473091886E+02  0.10350968346E+02 -0.24186284633E+03  0.24528127520E+03  0.00000000000E+00 0. -1.
         21    1    1    2  502  501  0.53834294628E+02  0.30120234869E+02 -0.25525527121E+03  0.26260352874E+03  0.00000000000E+00 0. -1.
<scales pt_clust_5="13000.00000" pt_clust_6="13000.00000" pt_clust_7="13000.00000" pt_clust_8="13000.00000" pt_clust_9="61.68760"></scales>
<clustering>
<clus scale="   61.688">  2  9  1 -1</clus>
<clus scale="   92.233">  5  6 -1 -1</clus>
<clus scale="   93.449">  7  8 -1 -1</clus>
<clus scale="  147.014">  1  5  2 -1</clus>
<clus scale="   61.688">  2  5  1 -1</clus>
</clustering>
</event>
<event>
 9    1  0.1803370E-005  0.1082077E+03  0.7546771E-02  0.1265626E+00
         -3   -1    0    0    0  501 -0.00000000000E+00  0.00000000000E+00  0.11448938017E+03  0.11448938017E+03  0.00000000000E+00 0.  1.
          3   -1    0    0  502    0  0.00000000000E+00 -0.00000000000E+00 -0.14579049167E+03  0.14579049167E+03  0.00000000000E+00 0. -1.
         23    2    1    2    0    0 -0.93425825364E+01  0.67628255761E+02  0.83625633331E+01  0.11222023306E+03  0.88671209627E+02 0.  0.
         23    2    1    2    0    0  0.19124878813E+02 -0.39379788285E+02 -0.56468873883E+01  0.10277375727E+03  0.92811794142E+02 0.  0.
        -11    1    4    4    0    0 -0.32359124301E+02 -0.79626942383E+00 -0.18329437177E+02  0.37198323050E+02  0.00000000000E+00 0. -1.
         11    1    4    4    0    0  0.51484003114E+02 -0.38583518861E+02  0.12682549789E+02  0.65575434223E+02  0.00000000000E+00 0.  1.
        -11    1    3    3    0    0 -0.62872954779E+01  0.23607443512E+02  0.47386374605E+02  0.53313318897E+02  0.00000000000E+00 0.  1.
         11    1    3    3    0    0 -0.30552870585E+01  0.44020812249E+02 -0.39023811272E+02  0.58906914163E+02  0.00000000000E+00 0. -1.
         21    1    1    2  502  501 -0.97822962767E+01 -0.28248467476E+02 -0.34016787447E+02  0.45285881502E+02  0.00000000000E+00 0. -1.
<scales pt_clust_5="13000.00000" pt_clust_6="13000.00000" pt_clust_7="13000.00000" pt_clust_8="13000.00000" pt_clust_9="29.89430"></scales>
<clustering>
<clus scale="   29.894">  2  9  1 -1</clus>
<clus scale="   88.671">  7  8 -1 -1</clus>
<clus scale="   92.812">  5  6 -1 -1</clus>
<clus scale="  104.678">  1  7  2 -1</clus>
<clus scale="   29.894">  2  5  1 -1</clus>
</clustering>
</event>
<event>
 9    1  0.1803370E-005  0.1426752E+03  0.7546771E-02  0.1211711E+00
          1   -1    0    0  502    0  0.00000000000E+00  0.00000000000E+00  0.45296280616E+03  0.45296280616E+03  0.00000000000E+00 0. -1.
         -1   -1    0    0    0  501 -0.00000000000E+00 -0.00000000000E+00 -0.11520627446E+03  0.11520627446E+03  0.00000000000E+00 0.  1.
         23    2    1    2    0    0 -0.57486541166E+02 -0.11262353109E+03 -0.97347520062E+01  0.16120226318E+03  0.99512019813E+02 0.  0.
         23    2    1    2    0    0  0.10754637605E+02  0.64076415107E+02  0.98559251031E+02  0.14907565788E+03  0.91039423360E+02 0.  0.
        -11    1    4    4    0    0  0.37890658898E+02  0.13863813686E+02  0.66581244918E+01  0.40893006534E+02  0.00000000000E+00 0.  1.
         11    1    4    4    0    0 -0.27136021294E+02  0.50212601421E+02  0.91901126539E+02  0.10818265135E+03  0.00000000000E+00 0. -1.
        -11    1    3    3    0    0  0.18231564437E+02 -0.14900768203E+02 -0.27616056770E+02  0.36291451148E+02  0.00000000000E+00 0.  1.
         11    1    3    3    0    0 -0.75718105603E+02 -0.97722762892E+02  0.17881304764E+02  0.12491081204E+03  0.00000000000E+00 0. -1.
         21    1    1    2  502  501  0.46731903562E+02  0.48547115987E+02  0.24893203268E+03  0.25789115956E+03  0.00000000000E+00 0. -1.
<scales pt_clust_5="13000.00000" pt_clust_6="13000.00000" pt_clust_7="13000.00000" pt_clust_8="13000.00000" pt_clust_9="67.38467"></scales>
<clustering>
<clus scale="   67.385">  1  9  2 -1</clus>
<clus scale="   91.039">  5  6 -1 -1</clus>
<clus scale="   99.512">  7  8 -1 -1</clus>
<clus scale="  136.900">  1  5  2 -1</clus>
<clus scale="   67.385">  1  5  2 -1</clus>
</clustering>
</event>
<event>
 9    1  0.1803370E-005  0.9856236E+02  0.7546771E-02  0.1285444E+00
         -4   -1    0    0    0  501 -0.00000000000E+00  0.00000000000E+00  0.27713510155E+03  0.27713510155E+03  0.00000000000E+00 0.  1.
          4   -1    0    0  502    0  0.00000000000E+00 -0.00000000000E+00 -0.69207299648E+02  0.69207299648E+02  0.00000000000E+00 0. -1.
         23    2    1    2    0    0  0.30630516971E+02 -0.35399415686E+02  0.15734244110E+03  0.18942273195E+03  0.94514445486E+02 0.  0.
         23    2    1    2    0    0 -0.34954032197E+01 -0.49660486349E+01  0.58062980411E+02  0.10770991511E+03  0.90516499243E+02 0.  0.
        -11    1    3    3    0    0  0.76520768686E+01  0.32666665149E+02  0.46677692364E+02  0.57484539284E+02  0.00000000000E+00 0. -1.
         11    1    3    3    0    0  0.22978440102E+02 -0.68066080835E+02  0.11066474874E+03  0.13193819266E+03  0.00000000000E+00 0.  1.
        -11    1    4    4    0    0 -0.34684835257E+02  0.28554824465E+02  0.29396993190E+02  0.53689840805E+02  0.00000000000E+00 0. -1.
         11    1    4    4    0    0  0.31189432037E+02 -0.33520873100E+02  0.28665987220E+02  0.54020074301E+02  0.00000000000E+00 0.  1.
         21    1    1    2  502  501 -0.27135113751E+02  0.40365464321E+02 -0.74776196095E+01  0.49209754147E+02  0.00000000000E+00 0. -1.
<scales pt_clust_5="13000.00000" pt_clust_6="13000.00000" pt_clust_7="13000.00000" pt_clust_8="13000.00000" pt_clust_9="48.63831"></scales>
<clustering>
<clus scale="   48.638">  2  9  1 -1</clus>
<clus scale="   90.516">  7  8 -1 -1</clus>
<clus scale="   94.514">  5  6 -1 -1</clus>
<clus scale="   94.735">  2  7  1 -1</clus>
<clus scale="   48.638">  2  5  1 -1</clus>
</clustering>
</event>
<event>
 9    1  0.3264430E-005  0.1316055E+03  0.7546771E-02  0.1227488E+00
          2   -1    0    0  502    0  0.00000000000E+00  0.00000000000E+00  0.18662447212E+03  0.18662447212E+03  0.00000000000E+00 0. -1.
         -2   -1    0    0    0  501 -0.00000000000E+00 -0.00000000000E+00 -0.31804453437E+03  0.31804453437E+03  0.00000000000E+00 0.  1.
         23    2    1    2    0    0 -0.51665825097E+02 -0.76791122275E+02 -0.26821388672E+03  0.29963770151E+03  0.96321488751E+02 0.  0.
         23    2    1    2    0    0  0.16160667750E+02  0.65054795757E+02  0.12317540987E+03  0.16523408429E+03  0.87388943125E+02 0.  0.
        -11    1    3    3    0    0  0.16717722813E+02 -0.56699055973E+02 -0.15462626870E+03  0.16554017089E+03  0.00000000000E+00 0.  1.
         11    1    3    3    0    0 -0.68383547910E+02 -0.20092066302E+02 -0.11358761801E+03  0.13409753062E+03  0.00000000000E+00 0. -1.
        -11    1    4    4    0    0  0.15076587979E+02 -0.19754246340E+02  0.34598062254E+02  0.42597648588E+02  0.00000000000E+00 0.  1.
         11    1    4    4    0    0  0.10840797712E+01  0.84809042096E+02  0.88577347617E+02  0.12263643570E+03  0.00000000000E+00 0. -1.
         21    1    1    2  502  501  0.35505157347E+02  0.11736326518E+02  0.13618414600E+02  0.39797220689E+02  0.00000000000E+00 0. -1.
<scales pt_clust_5="13000.00000" pt_clust_6="13000.00000" pt_clust_7="13000.00000" pt_clust_8="13000.00000" pt_clust_9="37.39462"></scales>
<clustering>
<clus scale="   37.395">  1  9  2 -1</clus>
<clus scale="   87.389">  7  8 -1 -1</clus>
<clus scale="   96.321">  5  6 -1 -1</clus>
<clus scale="  125.216">  1  7  2 -1</clus>
<clus scale="   37.395">  1  5  2 -1</clus>
</clustering>
</event>
<event>
 9    1  0.1803370E-005  0.9425542E+02  0.7546771E-02  0.1310372E+00
         -2   -1    0    0    0  501 -0.00000000000E+00  0.00000000000E+00  0.31794017286E+03  0.31794017286E+03  0.00000000000E+00 0.  1.
          2   -1    0    0  502    0  0.00000000000E+00 -0.00000000000E+00 -0.64645246155E+02  0.64645246155E+02  0.00000000000E+00 0. -1.
         23    2    1    2    0    0  0.18304017810E+02 -0.24289522684E+02  0.20159945650E+03  0.21373135290E+03  0.64138384565E+02 0.  0.
         23    2    1    2    0    0 -0.70349992756E+01 -0.52976917149E+01  0.83466645329E+02  0.12400095470E+03  0.91279784899E+02 0.  0.
        -11    1    3    3    0    0  0.36127889684E+01 -0.43969793623E+02  0.10169311883E+03  0.11085073483E+03  0.00000000000E+00 0. -1.
         11    1    3    3    0    0  0.14691228842E+02  0.19680270939E+02  0.99906337666E+02  0.10288061807E+03  0.00000000000E+00 0.  1.
        -11    1    4    4    0    0 -0.24419348459E+02  0.14480457931E+02 -0.74471982628E+01  0.29350451495E+02  0.00000000000E+00 0. -1.
         11    1    4    4    0    0  0.17384349183E+02 -0.19778149645E+02  0.90913843591E+02  0.94650503202E+02  0.00000000000E+00 0.  1.
         21    1    1    2  502  501 -0.11269018535E+02  0.29587214399E+02 -0.31771175122E+02  0.44853111411E+02  0.00000000000E+00 0. -1.
<scales pt_clust_5="13000.00000" pt_clust_6="13000.00000" pt_clust_7="13000.00000" pt_clust_8="13000.00000" pt_clust_9="31.66061"></scales>
<clustering>
<clus scale="   31.661">  2  9  1 -1</clus>
<clus scale="   64.138">  5  6 -1 -1</clus>
<clus scale="   68.307">  1  5  2 -1</clus>
<clus scale="   91.280">  7  8 -1 -1</clus>
<clus scale="   31.661">  2  5  1 -1</clus>
</clustering>
</event>
<event>
 9    1  0.1803370E-005  0.9508435E+02  0.7546771E-02  0.1292829E+00
          2   -1    0    0  502    0  0.00000000000E+00  0.00000000000E+00  0.31139453680E+03  0.31139453680E+03  0.00000000000E+00 0. -1.
         -2   -1    0    0    0  501 -0.00000000000E+00 -0.00000000000E+00 -0.92609264290E+02  0.92609264290E+02  0.00000000000E+00 0.  1.
         23    2    1    2    0    0  0.25349557916E+02 -0.36030818686E+01 -0.42914340407E+02  0.10568547619E+03  0.93124631431E+02 0.  0.
         23    2    1    2    0    0  0.19910386106E+02  0.19446767698E+02  0.15437575328E+03  0.18076877892E+03  0.89838065331E+02 0.  0.
        -11    1    3    3    0    0  0.83689621869E+01 -0.41866753233E+02 -0.47151662609E+02  0.63609306246E+02  0.00000000000E+00 0.  1.
         11    1    3    3    0    0  0.16980595729E+02  0.38263671364E+02  0.42373222019E+01  0.42076169942E+02  0.00000000000E+00 0. -1.
        -13    1    4    4    0    0 -0.17443797871E+02 -0.28119952377E+02  0.46111819316E+02  0.56756653236E+02  0.00000000000E+00 0. -1.
         13    1    4    4    0    0  0.37354183977E+02  0.47566720075E+02  0.10826393397E+03  0.12401212569E+03  0.00000000000E+00 0.  1.
         21    1    1    2  502  501 -0.45259944021E+02 -0.15843685830E+02  0.10732385963E+03  0.11754954598E+03  0.00000000000E+00 0. -1.
<scales pt_clust_5="13000.00000" pt_clust_6="13000.00000" pt_clust_7="13000.00000" pt_clust_8="13000.00000" pt_clust_9="47.95294"></scales>
<clustering>
<clus scale="   47.953">  1  9  2 -1</clus>
<clus scale="   89.838">  7  8 -1 -1</clus>
<clus scale="   91.868">  1  7  2 -1</clus>
<clus scale="   93.125">  5  6 -1 -1</clus>
<clus scale="   47.953">  1  5  2 -1</clus>
</clustering>
</event>
<event>
 9    1  0.1803370E-005  0.1028986E+03  0.7546771E-02  0.1283484E+00
          2   -1    0    0  502    0  0.00000000000E+00  0.00000000000E+00  0.58332315357E+02  0.58332315357E+02  0.00000000000E+00 0. -1.
         -2   -1    0    0    0  501 -0.00000000000E+00 -0.00000000000E+00 -0.22645003116E+03  0.22645003116E+03  0.00000000000E+00 0.  1.
         23    2    1    2    0    0  0.25066952356E+02  0.66841528364E+01 -0.11004581802E+03  0.13732263927E+03  0.77938406405E+02 0.  0.
         23    2    1    2    0    0 -0.43870921084E+02  0.12533976500E+02 -0.34405302973E+02  0.11164025101E+03  0.95906529961E+02 0.  0.
        -11    1    3    3    0    0  0.55996045868E+01 -0.21754421175E+02 -0.98420115568E+02  0.10095112461E+03  0.00000000000E+00 0.  1.
         11    1    3    3    0    0  0.19467347769E+02  0.28438574012E+02 -0.11625702453E+02  0.36371514658E+02  0.00000000000E+00 0. -1.
        -13    1    4    4    0    0 -0.81159163205E+01  0.43456015024E+02  0.11572186820E+02  0.45696923828E+02  0.00000000000E+00 0.  1.
         13    1    4    4    0    0 -0.35755004764E+02 -0.30922038524E+02 -0.45977489793E+02  0.65943327182E+02  0.00000000000E+00 0. -1.
         21    1    1    2  502  501  0.18803968728E+02 -0.19218129337E+02 -0.23666594804E+02  0.35819456232E+02  0.00000000000E+00 0. -1.
<scales pt_clust_5="13000.00000" pt_clust_6="13000.00000" pt_clust_7="13000.00000" pt_clust_8="13000.00000" pt_clust_9="26.88728"></scales>
<clustering>
<clus scale="   26.887">  2  9  1 -1</clus>
<clus scale="   77.938">  5  6 -1 -1</clus>
<clus scale="   86.397">  2  5  1 -1</clus>
<clus scale="   95.907">  7  8 -1 -1</clus>
<clus scale="  102.899">  1  5  2 -1</clus>
</clustering>
</event>
<event>
 9    1  0.1803370E-005  0.9335376E+02  0.7546771E-02  0.1298062E+00
         -4   -1    0    0    0  501 -0.00000000000E+00  0.00000000000E+00  0.22758395273E+03  0.22758395273E+03  0.00000000000E+00 0.  1.
          4   -1    0    0  502    0  0.00000000000E+00 -0.00000000000E+00 -0.59822463308E+02  0.59822463308E+02  0.00000000000E+00 0. -1.
         23    2    1    2    0    0 -0.20884980808E+02 -0.13596635110E+02  0.95009567773E+02  0.13463626262E+03  0.92081780693E+02 0.  0.
         23    2    1    2    0    0  0.76303378339E+01 -0.24954146123E+02  0.64455780939E+02  0.11116878030E+03  0.86735336243E+02 0.  0.
        -11    1    3    3    0    0 -0.53388628856E+02  0.10806507233E+02  0.59454428543E+02  0.80634703218E+02  0.00000000000E+00 0. -1.
         11    1    3    3    0    0  0.32503648048E+02 -0.24403142343E+02  0.35555139230E+02  0.54001559407E+02  0.00000000000E+00 0.  1.
        -11    1    4    4    0    0  0.47683970618E+01 -0.55993924566E+02  0.54907469770E+02  0.78567725151E+02  0.00000000000E+00 0.  1.
         11    1    4    4    0    0  0.28619407721E+01  0.31039778443E+02  0.95483111689E+01  0.32601055151E+02  0.00000000000E+00 0. -1.
         21    1    1    2  502  501  0.13254642974E+02  0.38550781233E+02  0.82961407101E+01  0.41601373111E+02  0.00000000000E+00 0. -1.
<scales pt_clust_5="13000.00000" pt_clust_6="13000.00000" pt_clust_7="13000.00000" pt_clust_8="13000.00000" pt_clust_9="40.76577"></scales>
<clustering>
<clus scale="   40.766">  2  9  1 -1</clus>
<clus scale="   86.735">  7  8 -1 -1</clus>
<clus scale="   88.085">  2  7  1 -1</clus>
<clus scale="   92.082">  5  6 -1 -1</clus>
<clus scale="   40.766">  2  5  1 -1</clus>
</clustering>
</event>
<event>
 9    1  0.1803370E-005  0.9396758E+02  0.7546771E-02  0.1296655E+00
          1   -1    0    0  502    0  0.00000000000E+00  0.00000000000E+00  0.17426914822E+03  0.17426914822E+03  0.00000000000E+00 0. -1.
         -1   -1    0    0    0  501 -0.00000000000E+00 -0.00000000000E+00 -0.99208220339E+02  0.99208220339E+02  0.00000000000E+00 0.  1.
         23    2    1    2    0    0 -0.62635170064E+01 -0.29856088530E+02 -0.51173040249E+02  0.10349547980E+03  0.84628698584E+02 0.  0.
         23    2    1    2    0    0  0.63863400748E+00  0.95581233280E+01  0.88221822330E+02  0.12652420901E+03  0.90186029719E+02 0.  0.
        -11    1    4    4    0    0 -0.17809942378E+02  0.45907123593E+02  0.55956695764E+02  0.74537305055E+02  0.00000000000E+00 0. -1.
         11    1    4    4    0    0  0.18448576386E+02 -0.36349000265E+02  0.32265126566E+02  0.51986903959E+02  0.00000000000E+00 0.  1.
        -13    1    3    3    0    0  0.14861191044E+02 -0.50731742623E+02 -0.11778139400E+02  0.54159849303E+02  0.00000000000E+00 0.  1.
         13    1    3    3    0    0 -0.21124708051E+02  0.20875654093E+02 -0.39394900850E+02  0.49335630502E+02  0.00000000000E+00 0. -1.
         21    1    1    2  502  501  0.56248829989E+01  0.20297965202E+02  0.38012145803E+02  0.43457679743E+02  0.00000000000E+00 0. -1.
<scales pt_clust_5="13000.00000" pt_clust_6="13000.00000" pt_clust_7="13000.00000" pt_clust_8="13000.00000" pt_clust_9="21.06292"></scales>
<clustering>
<clus scale="   21.063">  1  9  2 -1</clus>
<clus scale="   84.629">  7  8 -1 -1</clus>
<clus scale="   88.648">  2  7  1 -1</clus>
<clus scale="   90.186">  5  6 -1 -1</clus>
<clus scale="   21.063">  1  5  2 -1</clus>
</clustering>
</event>
<event>
 9    1  0.1803370E-005  0.3265422E+03  0.7546771E-02  0.1115790E+00
          2   -1    0    0  502    0  0.00000000000E+00  0.00000000000E+00  0.30897699181E+03  0.30897699181E+03  0.00000000000E+00 0. -1.
         -2   -1    0    0    0  501 -0.00000000000E+00 -0.00000000000E+00 -0.17715836692E+04  0.17715836692E+04  0.00000000000E+00 0.  1.
         23    2    1    2    0    0  0.20025042469E+03 -0.24828459706E+03 -0.16332994548E+04  0.16662961914E+04  0.84441781968E+02 0.  0.
         23    2    1    2    0    0 -0.26790124214E+02  0.46705903599E+02  0.15888509269E+02  0.10655225510E+03  0.90563713225E+02 0.  0.
        -11    1    4    4    0    0 -0.41115904149E+02  0.20743919308E+02  0.45434666578E+02  0.64692632419E+02  0.00000000000E+00 0. -1.
         11    1    4    4    0    0  0.14325779935E+02  0.25961984290E+02 -0.29546157309E+02  0.41859622678E+02  0.00000000000E+00 0.  1.
        -13    1    3    3    0    0  0.14848560712E+03 -0.18407409047E+03 -0.13737110482E+04  0.13939201162E+04  0.00000000000E+00 0.  1.
         13    1    3    3    0    0  0.51764817562E+02 -0.64210506590E+02 -0.25958840666E+03  0.27237607524E+03  0.00000000000E+00 0. -1.
         21    1    1    2  502  501 -0.17346030047E+03  0.20157869346E+03  0.15480426820E+03  0.30771221449E+03  0.00000000000E+00 0. -1.
<scales pt_clust_5="13000.00000" pt_clust_6="13000.00000" pt_clust_7="13000.00000" pt_clust_8="13000.00000" pt_clust_9="315.43528"></scales>
<clustering>
<clus scale="   84.442">  7  8 -1 -1</clus>
<clus scale="   90.564">  5  6 -1 -1</clus>
<clus scale="  105.361">  1  5  2 -1</clus>
<clus scale="  315.435">  1  9  2 -1</clus>
<clus scale="  105.361">  1  5  2 -1</clus>
</clustering>
</event>
<event>
 9    1  0.1803370E-005  0.9682395E+02  0.7546771E-02  0.1288261E+00
         -1   -1    0    0    0  501 -0.00000000000E+00  0.00000000000E+00  0.97891862358E+02  0.97891862358E+02  0.00000000000E+00 0.  1.
          1   -1    0    0  502    0  0.00000000000E+00 -0.00000000000E+00 -0.23244935783E+03  0.23244935783E+03  0.00000000000E+00 0. -1.
         23    2    1    2    0    0 -0.55930736604E+01 -0.36261135697E+02  0.46515445260E+02  0.10846118175E+03  0.90851465944E+02 0.  0.
         23    2    1    2    0    0  0.26833581363E+02  0.14671359791E+02 -0.10956769597E+03  0.14422517626E+03  0.88659638959E+02 0.  0.
        -13    1    4    4    0    0  0.32718562466E+02 -0.98185008784E+01 -0.25183973729E+01  0.34252731492E+02  0.00000000000E+00 0.  1.
         13    1    4    4    0    0 -0.58849811022E+01  0.24489860669E+02 -0.10704929860E+03  0.10997244477E+03  0.00000000000E+00 0. -1.
        -13    1    3    3    0    0 -0.42190296349E+02 -0.43495135381E+02  0.30899409622E+02  0.68019272436E+02  0.00000000000E+00 0. -1.
         13    1    3    3    0    0  0.36597222689E+02  0.72339996838E+01  0.15616035639E+02  0.40441909315E+02  0.00000000000E+00 0.  1.
         21    1    1    2  502  501 -0.21240507703E+02  0.21589775906E+02 -0.71505244755E+02  0.77654862170E+02  0.00000000000E+00 0.  1.
<scales pt_clust_5="13000.00000" pt_clust_6="13000.00000" pt_clust_7="13000.00000" pt_clust_8="13000.00000" pt_clust_9="30.28659"></scales>
<clustering>
<clus scale="   30.287">  2  9  1 -1</clus>
<clus scale="   88.660">  5  6 -1 -1</clus>
<clus scale="   90.851">  7  8 -1 -1</clus>
<clus scale="   94.770">  2  5  1 -1</clus>
<clus scale="   30.287">  2  5  1 -1</clus>
</clustering>
</event>
<event>
 9    1  0.1803370E-005  0.1334280E+03  0.7546771E-02  0.1223122E+00
         -1   -1    0    0    0  501 -0.00000000000E+00  0.00000000000E+00  0.24871903611E+03  0.24871903611E+03  0.00000000000E+00 0.  1.
          1   -1    0    0  502    0  0.00000000000E+00 -0.00000000000E+00 -0.10343004740E+03  0.10343004740E+03  0.00000000000E+00 0. -1.
         23    2    1    2    0    0  0.19926607186E+01 -0.89553855096E+02  0.12585983203E+03  0.18018655693E+03  0.92750387157E+02 0.  0.
         23    2    1    2    0    0  0.14443749229E+02  0.10964917325E+03  0.26450182202E+02  0.14506880644E+03  0.90076541772E+02 0.  0.
        -11    1    3    3    0    0 -0.39581879572E+02 -0.24208288404E+02  0.24034561439E+02  0.52253483726E+02  0.00000000000E+00 0.  1.
         11    1    3    3    0    0  0.41574540291E+02 -0.65345566692E+02  0.10182527060E+03  0.12793307320E+03  0.00000000000E+00 0. -1.
        -13    1    4    4    0    0 -0.53375328560E+00  0.21490673141E+02  0.48428777741E+02  0.52985662571E+02  0.00000000000E+00 0.  1.
         13    1    4    4    0    0  0.14977502515E+02  0.88158500112E+02 -0.21978595539E+02  0.92083143873E+02  0.00000000000E+00 0. -1.
         21    1    1    2  502  501 -0.16436409948E+02 -0.20095318157E+02 -0.70210255237E+01  0.26893720144E+02  0.00000000000E+00 0. -1.
<scales pt_clust_5="13000.00000" pt_clust_6="13000.00000" pt_clust_7="13000.00000" pt_clust_8="13000.00000" pt_clust_9="25.96107"></scales>
<clustering>
<clus scale="   25.961">  2  9  1 -1</clus>
<clus scale="   90.077">  7  8 -1 -1</clus>
<clus scale="   92.750">  5  6 -1 -1</clus>
<clus scale="  131.583">  2  7  1 -1</clus>
<clus scale="   25.961">  2  5  1 -1</clus>
</clustering>
</event>
<event>
 9    1  0.1803370E-005  0.1082826E+03  0.7546771E-02  0.1265257E+00
         -1   -1    0    0    0  501 -0.00000000000E+00  0.00000000000E+00  0.19068697596E+03  0.19068697596E+03  0.00000000000E+00 0.  1.
          1   -1    0    0  502    0  0.00000000000E+00 -0.00000000000E+00 -0.17540865117E+03  0.17540865117E+03  0.00000000000E+00 0. -1.
         23    2    1    2    0    0  0.32823009795E+01 -0.72132292972E+02  0.10520173856E+03  0.15653629666E+03  0.90677258369E+02 0.  0.
         23    2    1    2    0    0  0.19570833308E+02  0.37407569529E+02  0.13933751252E+02  0.97691627836E+02  0.86989430110E+02 0.  0.
        -11    1    3    3    0    0 -0.16524358844E+02 -0.17231131098E+02  0.94155965913E+02  0.97135535367E+02  0.00000000000E+00 0.  1.
         11    1    3    3    0    0  0.19806659823E+02 -0.54901161874E+02  0.11045772652E+02  0.59400761291E+02  0.00000000000E+00 0. -1.
        -13    1    4    4    0    0  0.34887761891E+02 -0.16797205338E+02 -0.31010196435E+01  0.38844798362E+02  0.00000000000E+00 0.  1.
         13    1    4    4    0    0 -0.15316928583E+02  0.54204774868E+02  0.17034770896E+02  0.58846829474E+02  0.00000000000E+00 0. -1.
         21    1    1    2  502  501 -0.22853134288E+02  0.34724723443E+02 -0.10385716503E+03  0.11186770264E+03  0.00000000000E+00 0. -1.
<scales pt_clust_5="13000.00000" pt_clust_6="13000.00000" pt_clust_7="13000.00000" pt_clust_8="13000.00000" pt_clust_9="41.57009"></scales>
<clustering>
<clus scale="   41.570">  2  9  1 -1</clus>
<clus scale="   86.989">  7  8 -1 -1</clus>
<clus scale="   90.677">  5  6 -1 -1</clus>
<clus scale="  105.214">  2  7  1 -1</clus>
<clus scale="   41.570">  2  5  1 -1</clus>
</clustering>
</event>
<event>
 9    1  0.1803370E-005  0.9360100E+02  0.7546771E-02  0.1294449E+00
         -2   -1    0    0    0  501 -0.00000000000E+00  0.00000000000E+00  0.43813883912E+02  0.43813883912E+02  0.00000000000E+00 0.  1.
          2   -1    0    0  502    0  0.00000000000E+00 -0.00000000000E+00 -0.39961036447E+03  0.39961036447E+03  0.00000000000E+00 0. -1.
         23    2    1    2    0    0 -0.15524980059E+02 -0.38791713915E+01 -0.71659061035E+02  0.11695386214E+03  0.91033575477E+02 0.  0.
         23    2    1    2    0    0 -0.34282488491E+02 -0.17816272189E+02 -0.22741924012E+03  0.24793104534E+03  0.90871248987E+02 0.  0.
        -11    1    4    4    0    0  0.22227162270E+02  0.13666495568E+02 -0.27956920072E+02  0.38241459486E+02  0.00000000000E+00 0.  1.
         11    1    4    4    0    0 -0.56509650761E+02 -0.31482767757E+02 -0.19946232005E+03  0.20968958585E+03  0.00000000000E+00 0. -1.
        -13    1    3    3    0    0  0.27050426893E+01  0.32799458723E+02  0.16784496330E+01  0.32953587690E+02  0.00000000000E+00 0.  1.
         13    1    3    3    0    0 -0.18230022749E+02 -0.36678630114E+02 -0.73337510668E+02  0.84000274448E+02  0.00000000000E+00 0. -1.
         21    1    1    2  502  501  0.49807468550E+02  0.21695443581E+02 -0.56718179405E+02  0.78539340910E+02  0.00000000000E+00 0. -1.
<scales pt_clust_5="13000.00000" pt_clust_6="13000.00000" pt_clust_7="13000.00000" pt_clust_8="13000.00000" pt_clust_9="54.32749"></scales>
<clustering>
<clus scale="   54.327">  1  9  2 -1</clus>
<clus scale="   90.871">  5  6 -1 -1</clus>
<clus scale="   91.034">  7  8 -1 -1</clus>
<clus scale="   93.443">  2  5  1 -1</clus>
<clus scale="   93.443">  2  5  1 -1</clus>
</clustering>
</event>
<event>
 9    1  0.1803370E-005  0.9405097E+02  0.7546771E-02  0.1296654E+00
         -2   -1    0    0    0  501 -0.00000000000E+00  0.00000000000E+00  0.12392135010E+03  0.12392135010E+03  0.00000000000E+00 0.  1.
          2   -1    0    0  502    0  0.00000000000E+00 -0.00000000000E+00 -0.29089297805E+03  0.29089297805E+03  0.00000000000E+00 0. -1.
         23    2    1    2    0    0  0.60389020548E+01  0.44275346532E+01  0.46578559199E+02  0.98263674723E+02  0.86198121742E+02 0.  0.
         23    2    1    2    0    0 -0.47169884323E+02 -0.16030964859E+01 -0.44981057910E+01  0.10347201097E+03  0.91970952980E+02 0.  0.
        -11    1    4    4    0    0 -0.72112379024E+02 -0.45783631089E+01 -0.18670105449E+02  0.74630620088E+02  0.00000000000E+00 0.  1.
         11    1    4    4    0    0  0.24942494701E+02  0.29752666230E+01  0.14171999658E+02  0.28841390877E+02  0.00000000000E+00 0. -1.
        -11    1    3    3    0    0 -0.31768483047E+02  0.13774198202E+02  0.48125150162E+02  0.59287394355E+02  0.00000000000E+00 0.  1.
         11    1    3    3    0    0  0.37807385102E+02 -0.93466635488E+01 -0.15465909626E+01  0.38976280368E+02  0.00000000000E+00 0. -1.
         21    1    1    2  502  501  0.41130982268E+02 -0.28244381673E+01 -0.20905208135E+03  0.21307864246E+03  0.00000000000E+00 0. -1.
<scales pt_clust_5="13000.00000" pt_clust_6="13000.00000" pt_clust_7="13000.00000" pt_clust_8="13000.00000" pt_clust_9="41.22784"></scales>
<clustering>
<clus scale="   41.228">  2  9  1 -1</clus>
<clus scale="   86.198">  7  8 -1 -1</clus>
<clus scale="   88.414">  1  7  2 -1</clus>
<clus scale="   91.971">  5  6 -1 -1</clus>
<clus scale="   41.228">  2  5  1 -1</clus>
</clustering>
</event>
<event>
 9    1  0.1803370E-005  0.1891956E+03  0.7546771E-02  0.1159371E+00
         -2   -1    0    0    0  501 -0.00000000000E+00  0.00000000000E+00  0.92495516795E+02  0.92495516795E+02  0.00000000000E+00 0.  1.
          2   -1    0    0  502    0  0.00000000000E+00 -0.00000000000E+00 -0.61275044276E+03  0.61275044276E+03  0.00000000000E+00 0. -1.
         23    2    1    2    0    0 -0.11814790169E+03  0.10947846598E+03 -0.62551615258E+02  0.19563770563E+03  0.91743915902E+02 0.  0.
         23    2    1    2    0    0  0.12766285262E+03 -0.12814169203E+03 -0.42749343667E+03  0.47284568074E+03  0.90079421765E+02 0.  0.
        -11    1    3    3    0    0 -0.82000382579E+02  0.14275426688E+02 -0.22606650565E+02  0.86249122894E+02  0.00000000000E+00 0.  1.
         11    1    3    3    0    0 -0.36147519109E+02  0.95203039289E+02 -0.39944964693E+02  0.10938858273E+03  0.00000000000E+00 0. -1.
        -11    1    4    4    0    0  0.87199565427E+02 -0.11600019503E+03 -0.23844109230E+03  0.27913072915E+03  0.00000000000E+00 0. -1.
         11    1    4    4    0    0  0.40463287196E+02 -0.12141497001E+02 -0.18905234437E+03  0.19371495159E+03  0.00000000000E+00 0.  1.
         21    1    1    2  502  501 -0.95149509353E+01  0.18663226051E+02 -0.30209874037E+02  0.36762573186E+02  0.00000000000E+00 0. -1.
<scales pt_clust_5="13000.00000" pt_clust_6="13000.00000" pt_clust_7="13000.00000" pt_clust_8="13000.00000" pt_clust_9="20.94875"></scales>
<clustering>
<clus scale="   20.949">  2  9  1 -1</clus>
<clus scale="   90.079">  7  8 -1 -1</clus>
<clus scale="   91.744">  5  6 -1 -1</clus>
<clus scale="  188.394">  2  7  1 -1</clus>
<clus scale="   20.949">  2  5  1 -1</clus>
</clustering>
</event>
<event>
 9    1  0.1803370E-005  0.1368020E+03  0.7546771E-02  0.1217857E+00
          1   -1    0    0  502    0  0.00000000000E+00  0.00000000000E+00  0.50176733028E+02  0.50176733028E+02  0.00000000000E+00 0. -1.
         -1   -1    0    0    0  501 -0.00000000000E+00 -0.00000000000E+00 -0.50645837785E+03  0.50645837785E+03  0.00000000000E+00 0.  1.
         23    2    1    2    0    0 -0.72007732235E+02  0.78840434053E+02 -0.31780118123E+03  0.34797623021E+03  0.93214475589E+02 0.  0.
         23    2    1    2    0    0  0.70566623758E+02 -0.51363904713E+02 -0.11935543602E+03  0.17515062589E+03  0.93883558452E+02 0.  0.
        -11    1    4    4    0    0  0.61553342158E+02  0.13186078562E+02 -0.55932929431E+02  0.84209139607E+02  0.00000000000E+00 0.  1.
         11    1    4    4    0    0  0.90132815993E+01 -0.64549983275E+02 -0.63422506590E+02  0.90941486287E+02  0.00000000000E+00 0. -1.
        -13    1    3    3    0    0 -0.70509145227E+02  0.33844238683E+02 -0.10768162543E+03  0.13308758210E+03  0.00000000000E+00 0. -1.
         13    1    3    3    0    0 -0.14985870075E+01  0.44996195371E+02 -0.21011955580E+03  0.21488864812E+03  0.00000000000E+00 0.  1.
         21    1    1    2  502  501  0.14411084771E+01 -0.27476529340E+02 -0.19125027577E+02  0.33508254775E+02  0.00000000000E+00 0. -1.
<scales pt_clust_5="13000.00000" pt_clust_6="13000.00000" pt_clust_7="13000.00000" pt_clust_8="13000.00000" pt_clust_9="27.51430"></scales>
<clustering>
<clus scale="   27.514">  1  9  2 -1</clus>
<clus scale="   93.214">  7  8 -1 -1</clus>
<clus scale="   93.884">  5  6 -1 -1</clus>
<clus scale="  136.344">  2  7  1 -1</clus>
<clus scale="   27.514">  1  5  2 -1</clus>
</clustering>
</event>
<event>
 9    1  0.1803370E-005  0.9559764E+02  0.7546771E-02  0.1290719E+00
          1   -1    0    0  502    0  0.00000000000E+00  0.00000000000E+00  0.46131152384E+02  0.46131152384E+02  0.00000000000E+00 0. -1.
         -1   -1    0    0    0  501 -0.00000000000E+00 -0.00000000000E+00 -0.41359069711E+03  0.41359069711E+03  0.00000000000E+00 0.  1.
         23    2    1    2    0    0  0.27028477004E+02 -0.20238989349E+01 -0.29990429719E+03  0.31426632194E+03  0.89922738462E+02 0.  0.
         23    2    1    2    0    0 -0.25343786484E+02  0.22589637449E+02 -0.75405858680E+02  0.12337793987E+03  0.91561308919E+02 0.  0.
        -11    1    3    3    0    0 -0.16177518896E+02 -0.29455222101E+02 -0.58219659485E+02  0.67222399371E+02  0.00000000000E+00 0. -1.
         11    1    3    3    0    0  0.43205995900E+02  0.27431323166E+02 -0.24168463771E+03  0.24704392257E+03  0.00000000000E+00 0.  1.
        -11    1    4    4    0    0 -0.40279124194E+02  0.40616160276E+02 -0.81139798639E+02  0.99276116184E+02  0.00000000000E+00 0.  1.
         11    1    4    4    0    0  0.14935337711E+02 -0.18026522827E+02  0.57339399585E+01  0.24101823691E+02  0.00000000000E+00 0. -1.
         21    1    1    2  502  501 -0.16846905199E+01 -0.20565738514E+02  0.78506111431E+01  0.22077587687E+02  0.00000000000E+00 0.  1.
<scales pt_clust_5="13000.00000" pt_clust_6="13000.00000" pt_clust_7="13000.00000" pt_clust_8="13000.00000" pt_clust_9="20.63463"></scales>
<clustering>
<clus scale="   20.635">  1  9  2 -1</clus>
<clus scale="   89.923">  5  6 -1 -1</clus>
<clus scale="   91.561">  7  8 -1 -1</clus>
<clus scale="   94.029">  2  5  1 -1</clus>
<clus scale="   20.635">  1  5  2 -1</clus>
</clustering>
</event>
<event>
 9    1  0.1803370E-005  0.1054155E+03  0.7546771E-02  0.1269960E+00
         -1   -1    0    0    0  501 -0.00000000000E+00  0.00000000000E+00  0.13154308637E+03  0.13154308637E+03  0.00000000000E+00 0.  1.
          1   -1    0    0  502    0  0.00000000000E+00 -0.00000000000E+00 -0.17105967462E+03  0.17105967462E+03  0.00000000000E+00 0. -1.
         23    2    1    2    0    0  0.23406781905E+02  0.51939634213E+02  0.49265056880E+02  0.11772786307E+03  0.90483152422E+02 0.  0.
         23    2    1    2    0    0 -0.40275271039E+02 -0.24928660653E+02 -0.15071892244E+02  0.10458002704E+03  0.92012415147E+02 0.  0.
        -13    1    3    3    0    0  0.33220423687E+02  0.71714212712E+02  0.53243592518E+02  0.95296406013E+02  0.00000000000E+00 0.  1.
         13    1    3    3    0    0 -0.98136417821E+01 -0.19774578499E+02 -0.39785356379E+01  0.22431457056E+02  0.00000000000E+00 0. -1.
        -13    1    4    4    0    0 -0.40542987942E+02 -0.49777228863E+02  0.14638992562E+02  0.65846841137E+02  0.00000000000E+00 0. -1.
         13    1    4    4    0    0  0.26771690275E+00  0.24848568210E+02 -0.29710884806E+02  0.38733185906E+02  0.00000000000E+00 0.  1.
         21    1    1    2  502  501  0.16868489134E+02 -0.27010973560E+02 -0.73709752890E+02  0.80294870879E+02  0.00000000000E+00 0. -1.
<scales pt_clust_5="13000.00000" pt_clust_6="13000.00000" pt_clust_7="13000.00000" pt_clust_8="13000.00000" pt_clust_9="31.84554"></scales>
<clustering>
<clus scale="   31.846">  2  9  1 -1</clus>
<clus scale="   90.483">  5  6 -1 -1</clus>
<clus scale="   92.012">  7  8 -1 -1</clus>
<clus scale="  104.083">  1  5  2 -1</clus>
<clus scale="   31.846">  2  5  1 -1</clus>
</clustering>
</event>
<event>
 9    1  0.1803370E-005  0.1153991E+03  0.7546771E-02  0.1261465E+00
         -2   -1    0    0    0  501 -0.00000000000E+00  0.00000000000E+00  0.34428480475E+02  0.34428480475E+02  0.00000000000E+00 0.  1.
          2   -1    0    0  502    0  0.00000000000E+00 -0.00000000000E+00 -0.51391335954E+03  0.51391335954E+03  0.00000000000E+00 0. -1.
         23    2    1    2    0    0 -0.13531480620E+02  0.10355862510E+01 -0.10830989284E+03  0.14210924703E+03  0.90993581069E+02 0.  0.
         23    2    1    2    0    0  0.31121803961E+02  0.34237527660E+02 -0.24202634326E+03  0.27120302579E+03  0.11328528317E+03 0.  0.
        -13    1    4    4    0    0  0.72129287801E+02  0.25806177735E+02 -0.12172092660E+03  0.14382133688E+03  0.00000000000E+00 0. -1.
         13    1    4    4    0    0 -0.41007483839E+02  0.84313499258E+01 -0.12030541666E+03  0.12738168891E+03  0.00000000000E+00 0.  1.
        -13    1    3    3    0    0  0.24430207713E+02 -0.27844189091E+02 -0.75855584196E+02  0.84416844105E+02  0.00000000000E+00 0.  1.
         13    1    3    3    0    0 -0.37961688334E+02  0.28879775342E+02 -0.32454308648E+02  0.57692402921E+02  0.00000000000E+00 0. -1.
         21    1    1    2  502  501 -0.17590323341E+02 -0.35273113911E+02 -0.12914864296E+03  0.13502956720E+03  0.00000000000E+00 0.  1.
<scales pt_clust_5="13000.00000" pt_clust_6="13000.00000" pt_clust_7="13000.00000" pt_clust_8="13000.00000" pt_clust_9="39.41589"></scales>
<clustering>
<clus scale="   39.416">  2  9  1 -1</clus>
<clus scale="   90.994">  7  8 -1 -1</clus>
<clus scale="   93.612">  1  7  2 -1</clus>
<clus scale="  113.285">  5  6 -1 -1</clus>
<clus scale="   39.416">  2  5  1 -1</clus>
</clustering>
</event>
<event>
 9    1  0.1803370E-005  0.1022198E+03  0.7546771E-02  0.1276871E+00
          4   -1    0    0  502    0  0.00000000000E+00  0.00000000000E+00  0.25350758027E+03  0.25350758027E+03  0.00000000000E+00 0. -1.
         -4   -1    0    0    0  501 -0.00000000000E+00 -0.00000000000E+00 -0.67145258562E+02  0.67145258562E+02  0.00000000000E+00 0.  1.
         23    2    1    2    0    0 -0.46125714881E+02  0.17548553177E+02  0.66649043670E+02  0.12178349809E+03  0.89182913686E+02 0.  0.
         23    2    1    2    0    0  0.10542926067E+02 -0.52024847354E+02  0.99478392605E+02  0.14535111666E+03  0.91723816356E+02 0.  0.
        -11    1    3    3    0    0 -0.59259270039E+02 -0.17736969104E+02  0.53862844122E+02  0.82021138345E+02  0.00000000000E+00 0. -1.
         11    1    3    3    0    0  0.13133555158E+02  0.35285522281E+02  0.12786199549E+02  0.39762359747E+02  0.00000000000E+00 0.  1.
        -13    1    4    4    0    0  0.20711887697E+02 -0.14164612820E+02 -0.11537015388E+02  0.27617408864E+02  0.00000000000E+00 0.  1.
         13    1    4    4    0    0 -0.10168961630E+02 -0.37860234534E+02  0.11101540799E+03  0.11773370780E+03  0.00000000000E+00 0. -1.
         21    1    1    2  502  501  0.35582788815E+02  0.34476294177E+02  0.20234885430E+02  0.53518224077E+02  0.00000000000E+00 0.  1.
<scales pt_clust_5="13000.00000" pt_clust_6="13000.00000" pt_clust_7="13000.00000" pt_clust_8="13000.00000" pt_clust_9="49.54543"></scales>
<clustering>
<clus scale="   49.545">  2  9  1 -1</clus>
<clus scale="   89.183">  5  6 -1 -1</clus>
<clus scale="   91.724">  7  8 -1 -1</clus>
<clus scale="   99.946">  2  5  1 -1</clus>
<clus scale="  102.220">  1  5  2 -1</clus>
</clustering>
</event>
<event>
 9    1  0.1803370E-005  0.2287089E+03  0.7546771E-02  0.1127755E+00
          1   -1    0    0  502    0  0.00000000000E+00  0.00000000000E+00  0.96684296073E+03  0.96684296073E+03  0.00000000000E+00 0. -1.
         -1   -1    0    0    0  501 -0.00000000000E+00 -0.00000000000E+00 -0.12239022673E+03  0.12239022673E+03  0.00000000000E+00 0.  1.
         23    2    1    2    0    0  0.18468299264E+03 -0.94307528877E+02  0.28785200047E+02  0.22930260735E+03  0.93538121742E+02 0.  0.
         23    2    1    2    0    0 -0.18020696486E+03  0.12029079473E+03  0.62928344472E+03  0.67169085622E+03  0.90700204255E+02 0.  0.
        -13    1    3    3    0    0  0.17290259283E+03 -0.77612459069E+02 -0.52604360621E+01  0.18959607748E+03  0.00000000000E+00 0.  1.
         13    1    3    3    0    0  0.11780399817E+02 -0.16695069808E+02  0.34045636109E+02  0.39706529864E+02  0.00000000000E+00 0. -1.
        -13    1    4    4    0    0 -0.16551649586E+03  0.13467678390E+03  0.58902976721E+03  0.62648991467E+03  0.00000000000E+00 0. -1.
         13    1    4    4    0    0 -0.14690468996E+02 -0.14385989175E+02  0.40253677508E+02  0.45200941547E+02  0.00000000000E+00 0.  1.
         21    1    1    2  502  501 -0.44760277890E+01 -0.25983265851E+02  0.18638408924E+03  0.18823972389E+03  0.00000000000E+00 0.  1.
<scales pt_clust_5="13000.00000" pt_clust_6="13000.00000" pt_clust_7="13000.00000" pt_clust_8="13000.00000" pt_clust_9="26.36598"></scales>
<clustering>
<clus scale="   26.366">  1  9  2 -1</clus>
<clus scale="   90.700">  7  8 -1 -1</clus>
<clus scale="   93.538">  5  6 -1 -1</clus>
<clus scale="  227.563">  1  7  2 -1</clus>
<clus scale="   26.366">  1  5  2 -1</clus>
</clustering>
</event>
<event>
 9    1  0.1803370E-005  0.1751074E+03  0.7546771E-02  0.1173946E+00
         -1   -1    0    0    0  501 -0.00000000000E+00  0.00000000000E+00  0.10973741522E+03  0.10973741522E+03  0.00000000000E+00 0.  1.
          1   -1    0    0  502    0  0.00000000000E+00 -0.00000000000E+00 -0.41707033522E+03  0.41707033522E+03  0.00000000000E+00 0. -1.
         23    2    1    2    0    0  0.54039559270E+02  0.13853364457E+03 -0.12935631729E+02  0.17907438470E+03  0.98936646614E+02 0.  0.
         23    2    1    2    0    0 -0.61143185204E+02 -0.11877643209E+03 -0.23495328251E+03  0.28469053293E+03  0.89438943775E+02 0.  0.
        -11    1    4    4    0    0 -0.54493366834E+02 -0.92751267435E+02 -0.23430658680E+03  0.25782145228E+03  0.00000000000E+00 0. -1.
         11    1    4    4    0    0 -0.66498183709E+01 -0.26025164654E+02 -0.64669570864E+00  0.26869080650E+02  0.00000000000E+00 0.  1.
        -13    1    3    3    0    0  0.12201489276E+02  0.92534364430E+02  0.35908081815E+02  0.10000437631E+03  0.00000000000E+00 0.  1.
         13    1    3    3    0    0  0.41838069995E+02  0.45999280142E+02 -0.48843713545E+02  0.79070008393E+02  0.00000000000E+00 0. -1.
         21    1    1    2  502  501  0.71036259339E+01 -0.19757212484E+02 -0.59444005760E+02  0.63042832799E+02  0.00000000000E+00 0. -1.
<scales pt_clust_5="13000.00000" pt_clust_6="13000.00000" pt_clust_7="13000.00000" pt_clust_8="13000.00000" pt_clust_9="20.99545"></scales>
<clustering>
<clus scale="   20.995">  2  9  1 -1</clus>
<clus scale="   89.439">  5  6 -1 -1</clus>
<clus scale="   98.937">  7  8 -1 -1</clus>
<clus scale="  169.922">  2  5  1 -1</clus>
<clus scale="   20.995">  2  5  1 -1</clus>
</clustering>
</event>
<event>
 9    1  0.1803370E-005  0.1141852E+03  0.7546771E-02  0.1256547E+00
          1   -1    0    0  502    0  0.00000000000E+00  0.00000000000E+00  0.12493439606E+03  0.12493439606E+03  0.00000000000E+00 0. -1.
         -1   -1    0    0    0  501 -0.00000000000E+00 -0.00000000000E+00 -0.16200083454E+03  0.16200083454E+03  0.00000000000E+00 0.  1.
         23    2    1    2    0    0 -0.33597115315E+02  0.48687281339E+02 -0.85963705681E+02  0.13950524493E+03  0.92589076817E+02 0.  0.
         23    2    1    2    0    0  0.32976444890E+02 -0.18279562706E+02  0.32865168995E+02  0.11304913698E+03  0.10138244280E+03 0.  0.
        -13    1    4    4    0    0  0.34283869135E+02  0.25597294691E+02  0.50106445306E+02  0.65888246596E+02  0.00000000000E+00 0. -1.
         13    1    4    4    0    0 -0.13074242445E+01 -0.43876857396E+02 -0.17241276311E+02  0.47160890386E+02  0.00000000000E+00 0.  1.
        -13    1    3    3    0    0 -0.48149078704E+02 -0.10196759541E+02 -0.38512034494E+02  0.62493875589E+02  0.00000000000E+00 0.  1.
         13    1    3    3    0    0  0.14551963389E+02  0.58884040880E+02 -0.47451671186E+02  0.77011369337E+02  0.00000000000E+00 0. -1.
         21    1    1    2  502  501  0.62067042494E+00 -0.30407718633E+02  0.16032098199E+02  0.34380848694E+02  0.00000000000E+00 0. -1.
<scales pt_clust_5="13000.00000" pt_clust_6="13000.00000" pt_clust_7="13000.00000" pt_clust_8="13000.00000" pt_clust_9="30.41405"></scales>
<clustering>
<clus scale="   30.414">  1  9  2 -1</clus>
<clus scale="   92.589">  7  8 -1 -1</clus>
<clus scale="  101.382">  5  6 -1 -1</clus>
<clus scale="  106.455">  2  7  1 -1</clus>
<clus scale="   30.414">  1  5  2 -1</clus>
</clustering>
</event>
<event>
 9    1  0.1803370E-005  0.1202081E+03  0.7546771E-02  0.1242802E+00
         -1   -1    0    0    0  501 -0.00000000000E+00  0.00000000000E+00  0.52820958628E+03  0.52820958628E+03  0.00000000000E+00 0.  1.
          1   -1    0    0  502    0  0.00000000000E+00 -0.00000000000E+00 -0.35672835111E+02  0.35672835111E+02  0.00000000000E+00 0. -1.
         23    2    1    2    0    0 -0.26352848015E+02  0.58996622302E+02  0.19377188137E+03  0.22345910968E+03  0.90616541800E+02 0.  0.
         23    2    1    2    0    0  0.49279743424E+02 -0.80982743977E+02  0.24643767144E+03  0.27920919759E+03  0.90771979050E+02 0.  0.
        -13    1    4    4    0    0  0.35075693214E+01 -0.80599953174E+02  0.11872993899E+03  0.14354599927E+03  0.00000000000E+00 0. -1.
         13    1    4    4    0    0  0.45772174102E+02 -0.38279080299E+00  0.12770773245E+03  0.13566319832E+03  0.00000000000E+00 0.  1.
        -13    1    3    3    0    0  0.28118421052E+02  0.17715308095E+02  0.11230676371E+03  0.11712082188E+03  0.00000000000E+00 0.  1.
         13    1    3    3    0    0 -0.54471269067E+02  0.41281314208E+02  0.81465117664E+02  0.10633828780E+03  0.00000000000E+00 0. -1.
         21    1    1    2  502  501 -0.22926895409E+02  0.21986121675E+02  0.52327198353E+02  0.61214114115E+02  0.00000000000E+00 0. -1.
<scales pt_clust_5="13000.00000" pt_clust_6="13000.00000" pt_clust_7="13000.00000" pt_clust_8="13000.00000" pt_clust_9="31.76527"></scales>
<clustering>
<clus scale="   31.765">  2  9  1 -1</clus>
<clus scale="   90.617">  7  8 -1 -1</clus>
<clus scale="   90.772">  5  6 -1 -1</clus>
<clus scale="  120.091">  1  7  2 -1</clus>
<clus scale="   31.765">  2  5  1 -1</clus>
</clustering>
</event>
<event>
 9    1  0.1803370E-005  0.1737978E+03  0.7546771E-02  0.1175935E+00
         -2   -1    0    0    0  501 -0.00000000000E+00  0.00000000000E+00  0.13115364873E+03  0.13115364873E+03  0.00000000000E+00 0.  1.
          2   -1    0    0  502    0  0.00000000000E+00 -0.00000000000E+00 -0.41227387476E+03  0.41227387476E+03  0.00000000000E+00 0. -1.
         23    2    1    2    0    0  0.38341339572E+01  0.15221727605E+03  0.24011002704E+02  0.18549753249E+03  0.10318917868E+03 0.  0.
         23    2    1    2    0    0 -0.97157038909E+01 -0.10418885036E+03 -0.20958445951E+03  0.25082953513E+03  0.89666596827E+02 0.  0.
        -11    1    3    3    0    0 -0.43460477261E+02  0.11217921057E+03  0.27593690751E+02  0.12342771220E+03  0.00000000000E+00 0.  1.
         11    1    3    3    0    0  0.47294611219E+02  0.40038065475E+02 -0.35826880467E+01  0.62069820291E+02  0.00000000000E+00 0. -1.
        -13    1    4    4    0    0 -0.42973192369E+02 -0.23853998761E+02 -0.57482299185E+02  0.75630174129E+02  0.00000000000E+00 0.  1.
         13    1    4    4    0    0  0.33257488478E+02 -0.80334851601E+02 -0.15210216032E+03  0.17519936101E+03  0.00000000000E+00 0. -1.
         21    1    1    2  502  501  0.58815699337E+01 -0.48028425687E+02 -0.95546769223E+02  0.10710045587E+03  0.00000000000E+00 0. -1.
<scales pt_clust_5="13000.00000" pt_clust_6="13000.00000" pt_clust_7="13000.00000" pt_clust_8="13000.00000" pt_clust_9="48.38721"></scales>
<clustering>
<clus scale="   48.387">  2  9  1 -1</clus>
<clus scale="   89.667">  7  8 -1 -1</clus>
<clus scale="  103.189">  5  6 -1 -1</clus>
<clus scale="  166.126">  2  7  1 -1</clus>
<clus scale="   48.387">  2  5  1 -1</clus>
</clustering>
</event>
<event>
 9    1  0.1803370E-005  0.9463209E+02  0.7546771E-02  0.1292540E+00
          1   -1    0    0  502    0  0.00000000000E+00  0.00000000000E+00  0.17277783943E+03  0.17277783943E+03  0.00000000000E+00 0. -1.
         -1   -1    0    0    0  501 -0.00000000000E+00 -0.00000000000E+00 -0.18717027874E+03  0.18717027874E+03  0.00000000000E+00 0.  1.
         23    2    1    2    0    0 -0.22154207186E+02  0.87747834545E+01 -0.11282687911E+03  0.14809077014E+03  0.92914831069E+02 0.  0.
         23    2    1    2    0    0 -0.22812664420E+02  0.38793160819E+02  0.14011400282E+02  0.10503048593E+03  0.93860303919E+02 0.  0.
        -11    1    3    3    0    0 -0.57750613767E+02  0.14580977851E+02 -0.64592824994E+02  0.87863367488E+02  0.00000000000E+00 0.  1.
         11    1    3    3    0    0  0.35596406581E+02 -0.58061943960E+01 -0.48234054111E+02  0.60227402657E+02  0.00000000000E+00 0. -1.
        -11    1    4    4    0    0 -0.45623211067E+02  0.39878391028E+02 -0.20221083082E+02  0.63880009863E+02  0.00000000000E+00 0.  1.
         11    1    4    4    0    0  0.22810546647E+02 -0.10852302085E+01  0.34232483365E+02  0.41150476064E+02  0.00000000000E+00 0. -1.
         21    1    1    2  502  501  0.44966871606E+02 -0.47567944274E+02  0.84423039516E+02  0.10682686210E+03  0.00000000000E+00 0. -1.
<scales pt_clust_5="13000.00000" pt_clust_6="13000.00000" pt_clust_7="13000.00000" pt_clust_8="13000.00000" pt_clust_9="65.45784"></scales>
<clustering>
<clus scale="   65.458">  1  9  2 -1</clus>
<clus scale="   92.915">  5  6 -1 -1</clus>
<clus scale="   93.694">  2  5  1 -1</clus>
<clus scale="   93.860">  7  8 -1 -1</clus>
<clus scale="   65.458">  1  5  2 -1</clus>
</clustering>
</event>
<event>
 9    1  0.1803370E-005  0.9719073E+02  0.7546771E-02  0.1286418E+00
          1   -1    0    0  502    0  0.00000000000E+00  0.00000000000E+00  0.18261980871E+03  0.18261980871E+03  0.00000000000E+00 0. -1.
         -1   -1    0    0    0  501 -0.00000000000E+00 -0.00000000000E+00 -0.34570051286E+03  0.34570051286E+03  0.00000000000E+00 0.  1.
         23    2    1    2    0    0 -0.14154454144E+02 -0.27438448379E+02 -0.30906076323E+03  0.32383012736E+03  0.91619752198E+02 0.  0.
         23    2    1    2    0    0  0.40476317435E+02  0.43534168548E+02  0.93653870915E+02  0.14374529597E+03  0.91422680296E+02 0.  0.
        -11    1    3    3    0    0 -0.46730119064E+02 -0.14888984552E+02 -0.25358740633E+03  0.25828658219E+03  0.00000000000E+00 0.  1.
         11    1    3    3    0    0  0.32575664920E+02 -0.12549463827E+02 -0.55473356897E+02  0.65543545164E+02  0.00000000000E+00 0. -1.
        -11    1    4    4    0    0 -0.15464997072E+02  0.41656083102E+02  0.14381186331E+02  0.46703467903E+02  0.00000000000E+00 0.  1.
         11    1    4    4    0    0  0.55941314507E+02  0.18780854455E+01  0.79272684585E+02  0.97041828069E+02  0.00000000000E+00 0. -1.
         21    1    1    2  502  501 -0.26321863291E+02 -0.16095720169E+02  0.52326188169E+02  0.60744898248E+02  0.00000000000E+00 0.  1.
<scales pt_clust_5="13000.00000" pt_clust_6="13000.00000" pt_clust_7="13000.00000" pt_clust_8="13000.00000" pt_clust_9="30.85308"></scales>
<clustering>
<clus scale="   30.853">  1  9  2 -1</clus>
<clus scale="   91.423">  7  8 -1 -1</clus>
<clus scale="   91.620">  5  6 -1 -1</clus>
<clus scale="   97.005">  1  7  2 -1</clus>
<clus scale="   30.853">  1  5  2 -1</clus>
</clustering>
</event>
<event>
 9    1  0.1803370E-005  0.1072945E+03  0.7546771E-02  0.1266850E+00
         -1   -1    0    0    0  501 -0.00000000000E+00  0.00000000000E+00  0.83065107688E+03  0.83065107688E+03  0.00000000000E+00 0.  1.
          1   -1    0    0  502    0  0.00000000000E+00 -0.00000000000E+00 -0.38563876755E+02  0.38563876755E+02  0.00000000000E+00 0. -1.
         23    2    1    2    0    0 -0.15559751113E+02  0.80068016525E+02  0.59308603703E+03  0.60561690166E+03  0.91475631316E+02 0.  0.
         23    2    1    2    0    0  0.35051921590E+01 -0.44424403499E+01  0.14455179645E+03  0.16963383703E+03  0.88591168633E+02 0.  0.
        -13    1    4    4    0    0  0.35780449330E+02  0.26134120601E+02  0.72973544079E+02  0.85371956457E+02  0.00000000000E+00 0.  1.
         13    1    4    4    0    0 -0.32275257171E+02 -0.30576560951E+02  0.71578252375E+02  0.84261880575E+02  0.00000000000E+00 0. -1.
        -13    1    3    3    0    0  0.21446270418E+02 -0.46665338141E+01  0.48471180589E+02  0.53208781233E+02  0.00000000000E+00 0. -1.
         13    1    3    3    0    0 -0.37006021531E+02  0.84734550339E+02  0.54461485644E+03  0.55240812042E+03  0.00000000000E+00 0.  1.
         21    1    1    2  502  501  0.12054558954E+02 -0.75625576175E+02  0.54449366642E+02  0.93964214950E+02  0.00000000000E+00 0. -1.
<scales pt_clust_5="13000.00000" pt_clust_6="13000.00000" pt_clust_7="13000.00000" pt_clust_8="13000.00000" pt_clust_9="76.58029"></scales>
<clustering>
<clus scale="   76.580">  2  9  1 -1</clus>
<clus scale="   88.591">  5  6 -1 -1</clus>
<clus scale="   91.476">  7  8 -1 -1</clus>
<clus scale="  104.846">  2  5  1 -1</clus>
<clus scale="   76.580">  2  5  1 -1</clus>
</clustering>
</event>
<event>
 9    1  0.1803370E-005  0.9921570E+02  0.7546771E-02  0.1283113E+00
          1   -1    0    0  502    0  0.00000000000E+00  0.00000000000E+00  0.57138774097E+03  0.57138774097E+03  0.00000000000E+00 0. -1.
         -1   -1    0    0    0  501 -0.00000000000E+00 -0.00000000000E+00 -0.55948508602E+02  0.55948508602E+02  0.00000000000E+00 0.  1.
         23    2    1    2    0    0 -0.14021244478E+02  0.44353179685E+02  0.18970572137E+02  0.10434706351E+03  0.91458335927E+02 0.  0.
         23    2    1    2    0    0 -0.25546473223E+02 -0.18772093669E+02  0.18299755655E+03  0.20599686898E+03  0.89115602071E+02 0.  0.
        -13    1    4    4    0    0 -0.46242843982E+02  0.19551919672E+02  0.84337986883E+02  0.98150772865E+02  0.00000000000E+00 0. -1.
         13    1    4    4    0    0  0.20696370759E+02 -0.38324013340E+02  0.98659569663E+02  0.10784609611E+03  0.00000000000E+00 0.  1.
        -13    1    3    3    0    0 -0.15687781568E+02  0.72501738240E+02  0.10600422309E+02  0.74933153487E+02  0.00000000000E+00 0.  1.
         13    1    3    3    0    0  0.16665370899E+01 -0.28148558555E+02  0.83701498283E+01  0.29413910021E+02  0.00000000000E+00 0. -1.
         21    1    1    2  502  501  0.39567717701E+02 -0.25581086016E+02  0.31347110369E+03  0.31699231709E+03  0.00000000000E+00 0. -1.
<scales pt_clust_5="13000.00000" pt_clust_6="13000.00000" pt_clust_7="13000.00000" pt_clust_8="13000.00000" pt_clust_9="47.11684"></scales>
<clustering>
<clus scale="   47.117">  1  9  2 -1</clus>
<clus scale="   89.116">  5  6 -1 -1</clus>
<clus scale="   91.458">  7  8 -1 -1</clus>
<clus scale="   97.060">  1  5  2 -1</clus>
<clus scale="   47.117">  1  5  2 -1</clus>
</clustering>
</event>
<event>
 9    1  0.1803370E-005  0.1237011E+03  0.7546771E-02  0.1238332E+00
         -3   -1    0    0    0  501 -0.00000000000E+00  0.00000000000E+00  0.29946699058E+03  0.29946699058E+03  0.00000000000E+00 0.  1.
          3   -1    0    0  502    0  0.00000000000E+00 -0.00000000000E+00 -0.47973110846E+03  0.47973110846E+03  0.00000000000E+00 0. -1.
         23    2    1    2    0    0 -0.75243106664E+02  0.11464767018E+02  0.15529848058E+03  0.19502754384E+03  0.90139662760E+02 0.  0.
         23    2    1    2    0    0  0.10307317524E+03  0.33569307382E+02  0.83633571234E+02  0.16164480539E+03  0.85927242594E+02 0.  0.
        -13    1    4    4    0    0  0.89259723780E+02  0.46866710709E+00  0.24633062061E+02  0.92597546861E+02  0.00000000000E+00 0.  1.
         13    1    4    4    0    0  0.13813451464E+02  0.33100640275E+02  0.59000509173E+02  0.69047258531E+02  0.00000000000E+00 0. -1.
        -13    1    3    3    0    0 -0.76742960076E+02 -0.11838012408E+02  0.63509486601E+02  0.10031488099E+03  0.00000000000E+00 0. -1.
         13    1    3    3    0    0  0.14998534123E+01  0.23302779426E+02  0.91788993975E+02  0.94712662850E+02  0.00000000000E+00 0.  1.
         21    1    1    2  502  501 -0.27830068580E+02 -0.45034074400E+02 -0.41919616968E+03  0.42252574981E+03  0.00000000000E+00 0. -1.
<scales pt_clust_5="13000.00000" pt_clust_6="13000.00000" pt_clust_7="13000.00000" pt_clust_8="13000.00000" pt_clust_9="52.93940"></scales>
<clustering>
<clus scale="   52.939">  2  9  1 -1</clus>
<clus scale="   85.927">  5  6 -1 -1</clus>
<clus scale="   90.140">  7  8 -1 -1</clus>
<clus scale="  120.666">  2  5  1 -1</clus>
<clus scale="   52.939">  2  5  1 -1</clus>
</clustering>
</event>
<event>
 9    1  0.1803370E-005  0.1005717E+03  0.7546771E-02  0.1280707E+00
          1   -1    0    0  502    0  0.00000000000E+00  0.00000000000E+00  0.16049386960E+03  0.16049386960E+03  0.00000000000E+00 0. -1.
         -1   -1    0    0    0  501 -0.00000000000E+00 -0.00000000000E+00 -0.26435221337E+03  0.26435221337E+03  0.00000000000E+00 0.  1.
         23    2    1    2    0    0 -0.25092572241E+02 -0.15770467906E+02 -0.15029750431E+03  0.18166350568E+03  0.97641920569E+02 0.  0.
         23    2    1    2    0    0  0.22370151581E+02 -0.23564325342E+02 -0.68832478692E+02  0.12135405704E+03  0.94515585628E+02 0.  0.
        -11    1    4    4    0    0  0.10598245009E+02 -0.40561411140E+02 -0.85218688179E+02  0.94972499630E+02  0.00000000000E+00 0.  1.
         11    1    4    4    0    0  0.11771906573E+02  0.16997085799E+02  0.16386209487E+02  0.26381557410E+02  0.00000000000E+00 0. -1.
        -13    1    3    3    0    0  0.37466247660E+02 -0.21534586822E+01 -0.47153213710E+02  0.60264273506E+02  0.00000000000E+00 0. -1.
         13    1    3    3    0    0 -0.62558819901E+02 -0.13617009224E+02 -0.10314429060E+03  0.12139923217E+03  0.00000000000E+00 0.  1.
         21    1    1    2  502  501  0.27224206596E+01  0.39334793247E+02  0.11527163924E+03  0.12182852025E+03  0.00000000000E+00 0. -1.
<scales pt_clust_5="13000.00000" pt_clust_6="13000.00000" pt_clust_7="13000.00000" pt_clust_8="13000.00000" pt_clust_9="39.42889"></scales>
<clustering>
<clus scale="   39.429">  1  9  2 -1</clus>
<clus scale="   94.516">  5  6 -1 -1</clus>
<clus scale="   97.539">  1  5  2 -1</clus>
<clus scale="   97.642">  7  8 -1 -1</clus>
<clus scale="   39.429">  1  5  2 -1</clus>
</clustering>
</event>
<event>
 9    1  0.1803370E-005  0.1350021E+03  0.7546771E-02  0.1236309E+00
          1   -1    0    0  502    0  0.00000000000E+00  0.00000000000E+00  0.31597201030E+03  0.31597201030E+03  0.00000000000E+00 0. -1.
         -1   -1    0    0    0  501 -0.00000000000E+00 -0.00000000000E+00 -0.88607497595E+02  0.88607497595E+02  0.00000000000E+00 0.  1.
         23    2    1    2    0    0  0.31111954067E+02  0.82174557489E+01  0.56331540109E+02  0.11194543323E+03  0.91230791655E+02 0.  0.
         23    2    1    2    0    0 -0.13093220057E+02  0.95406483160E+02  0.89558336856E+02  0.15959005278E+03  0.90412719264E+02 0.  0.
        -11    1    3    3    0    0  0.56420875233E+02  0.18734685386E+02  0.59796163674E+02  0.84320132760E+02  0.00000000000E+00 0. -1.
         11    1    3    3    0    0 -0.25308921166E+02 -0.10517229637E+02 -0.34646235655E+01  0.27625300473E+02  0.00000000000E+00 0.  1.
        -13    1    4    4    0    0  0.18486110141E+02  0.86806701456E+01  0.58891668851E+02  0.62332326784E+02  0.00000000000E+00 0. -1.
         13    1    4    4    0    0 -0.31579330198E+02  0.86725813015E+02  0.30666668005E+02  0.97257725993E+02  0.00000000000E+00 0.  1.
         21    1    1    2  502  501 -0.18018734010E+02 -0.10362393891E+03  0.81474635743E+02  0.13304402189E+03  0.00000000000E+00 0.  1.
<scales pt_clust_5="13000.00000" pt_clust_6="13000.00000" pt_clust_7="13000.00000" pt_clust_8="13000.00000" pt_clust_9="100.25518"></scales>
<clustering>
<clus scale="   90.413">  7  8 -1 -1</clus>
<clus scale="   91.231">  5  6 -1 -1</clus>
<clus scale="   96.740">  2  5  1 -1</clus>
<clus scale="  100.255">  1  9  2 -1</clus>
<clus scale="  100.255">  1  5  2 -1</clus>
</clustering>
</event>
<event>
 9    1  0.1803370E-005  0.1079809E+03  0.7546771E-02  0.1264617E+00
          1   -1    0    0  502    0  0.00000000000E+00  0.00000000000E+00  0.17326111558E+03  0.17326111558E+03  0.00000000000E+00 0. -1.
         -1   -1    0    0    0  501 -0.00000000000E+00 -0.00000000000E+00 -0.11139956009E+03  0.11139956009E+03  0.00000000000E+00 0.  1.
         23    2    1    2    0    0  0.43044860669E+02 -0.35498131672E+02 -0.28831455836E+02  0.11157434169E+03  0.92220407156E+02 0.  0.
         23    2    1    2    0    0 -0.61042792982E+02  0.48309190663E+01  0.75391037419E+02  0.13437517406E+03  0.92861824920E+02 0.  0.
        -11    1    4    4    0    0  0.20511225561E+02  0.16289488626E+02  0.31789396111E+02  0.41190090056E+02  0.00000000000E+00 0.  1.
         11    1    4    4    0    0 -0.81554018543E+02 -0.11458569560E+02  0.43601641308E+02  0.93185084008E+02  0.00000000000E+00 0. -1.
        -11    1    3    3    0    0  0.69240614628E+02 -0.18608044240E+02 -0.35026533838E+02  0.79795865163E+02  0.00000000000E+00 0.  1.
         11    1    3    3    0    0 -0.26195753959E+02 -0.16890087432E+02  0.61950780015E+01  0.31778476528E+02  0.00000000000E+00 0. -1.
         21    1    1    2  502  501  0.17997932314E+02  0.30667212606E+02  0.15301973902E+02  0.38711159914E+02  0.00000000000E+00 0. -1.
<scales pt_clust_5="13000.00000" pt_clust_6="13000.00000" pt_clust_7="13000.00000" pt_clust_8="13000.00000" pt_clust_9="35.55845"></scales>
<clustering>
<clus scale="   35.558">  1  9  2 -1</clus>
<clus scale="   92.220">  7  8 -1 -1</clus>
<clus scale="   92.862">  5  6 -1 -1</clus>
<clus scale="  107.430">  2  7  1 -1</clus>
<clus scale="   35.558">  1  5  2 -1</clus>
</clustering>
</event>
<event>
 9    1  0.1803370E-005  0.1078613E+03  0.7546771E-02  0.1265082E+00
          1   -1    0    0  502    0  0.00000000000E+00  0.00000000000E+00  0.50008224405E+02  0.50008224405E+02  0.00000000000E+00 0. -1.
         -1   -1    0    0    0  501 -0.00000000000E+00 -0.00000000000E+00 -0.35011428135E+03  0.35011428135E+03  0.00000000000E+00 0.  1.
         23    2    1    2    0    0  0.52364040040E+01  0.36067257506E+02 -0.12697151195E+03  0.16081127263E+03  0.91707325584E+02 0.  0.
         23    2    1    2    0    0  0.61236495496E+01 -0.74059585708E+02 -0.91639040620E+02  0.14868019511E+03  0.90475219444E+02 0.  0.
        -11    1    3    3    0    0  0.29465111366E+02  0.58418833084E+02 -0.90135388950E+02  0.11137926732E+03  0.00000000000E+00 0.  1.
         11    1    3    3    0    0 -0.24228707362E+02 -0.22351575579E+02 -0.36836123001E+02  0.49432005311E+02  0.00000000000E+00 0. -1.
        -13    1    4    4    0    0  0.92204003387E+01 -0.94281147615E+02 -0.64123455921E+02  0.11439304252E+03  0.00000000000E+00 0. -1.
         13    1    4    4    0    0 -0.30967507890E+01  0.20221561907E+02 -0.27515584699E+02  0.34287152590E+02  0.00000000000E+00 0.  1.
         21    1    1    2  502  501 -0.11360053554E+02  0.37992328202E+02 -0.81495504373E+02  0.90631038017E+02  0.00000000000E+00 0.  1.
<scales pt_clust_5="13000.00000" pt_clust_6="13000.00000" pt_clust_7="13000.00000" pt_clust_8="13000.00000" pt_clust_9="39.65435"></scales>
<clustering>
<clus scale="   39.654">  2  9  1 -1</clus>
<clus scale="   90.475">  7  8 -1 -1</clus>
<clus scale="   91.707">  5  6 -1 -1</clus>
<clus scale="  106.816">  1  7  2 -1</clus>
<clus scale="  106.816">  1  5  2 -1</clus>
</clustering>
</event>
<event>
 9    1  0.1803370E-005  0.1178215E+03  0.7546771E-02  0.1258801E+00
         -2   -1    0    0    0  501 -0.00000000000E+00  0.00000000000E+00  0.27977955110E+03  0.27977955110E+03  0.00000000000E+00 0.  1.
          2   -1    0    0  502    0  0.00000000000E+00 -0.00000000000E+00 -0.16654960604E+03  0.16654960604E+03  0.00000000000E+00 0. -1.
         23    2    1    2    0    0 -0.17689773512E+02 -0.21879974440E+02  0.17676231457E+03  0.21392407397E+03  0.11716199129E+03 0.  0.
         23    2    1    2    0    0  0.30771275659E+01 -0.39954893640E+02  0.42457948047E+02  0.10882908328E+03  0.91843506988E+02 0.  0.
        -11    1    3    3    0    0  0.22704972294E+02 -0.35499408237E+02  0.12112915160E+02  0.43845712056E+02  0.00000000000E+00 0. -1.
         11    1    3    3    0    0 -0.40394745806E+02  0.13619433797E+02  0.16464939941E+03  0.17007836192E+03  0.00000000000E+00 0.  1.
        -13    1    4    4    0    0 -0.20685689403E+02 -0.63472835418E+02  0.27438190928E+02  0.72177232584E+02  0.00000000000E+00 0.  1.
         13    1    4    4    0    0  0.23762816968E+02  0.23517941778E+02  0.15019757119E+02  0.36651850699E+02  0.00000000000E+00 0. -1.
         21    1    1    2  502  501  0.14612645946E+02  0.61834868080E+02 -0.10599031755E+03  0.12357599988E+03  0.00000000000E+00 0. -1.
<scales pt_clust_5="13000.00000" pt_clust_6="13000.00000" pt_clust_7="13000.00000" pt_clust_8="13000.00000" pt_clust_9="63.53802"></scales>
<clustering>
<clus scale="   63.538">  2  9  1 -1</clus>
<clus scale="   91.844">  7  8 -1 -1</clus>
<clus scale="   92.683">  2  7  1 -1</clus>
<clus scale="  117.162">  5  6 -1 -1</clus>
<clus scale="   63.538">  2  5  1 -1</clus>
</clustering>
</event>
<event>
 9    1  0.1803370E-005  0.1120491E+03  0.7546771E-02  0.1258628E+00
         -3   -1    0    0    0  501 -0.00000000000E+00  0.00000000000E+00  0.18821197912E+03  0.18821197912E+03  0.00000000000E+00 0.  1.
          3   -1    0    0  502    0  0.00000000000E+00 -0.00000000000E+00 -0.88303884958E+02  0.88303884958E+02  0.00000000000E+00 0. -1.
         23    2    1    2    0    0 -0.46940000189E+02  0.10893243583E+02  0.47453228458E+02  0.11676676065E+03  0.95187400054E+02 0.  0.
         23    2    1    2    0    0  0.70339765753E+02 -0.75139574518E+00  0.64494398675E+02  0.13154703860E+03  0.90536449355E+02 0.  0.
        -13    1    3    3    0    0 -0.21329441243E+02 -0.22452302298E+02  0.64380613248E+02  0.71441684642E+02  0.00000000000E+00 0.  1.
         13    1    3    3    0    0 -0.25610558947E+02  0.33345545881E+02 -0.16927384791E+02  0.45325076012E+02  0.00000000000E+00 0. -1.
        -13    1    4    4    0    0  0.14385458844E+02 -0.42383947134E+02  0.21947783785E+02  0.49850231834E+02  0.00000000000E+00 0.  1.
         13    1    4    4    0    0  0.55954306910E+02  0.41632551389E+02  0.42546614891E+02  0.81696806765E+02  0.00000000000E+00 0. -1.
         21    1    1    2  502  501 -0.23399765564E+02 -0.10141847838E+02 -0.12039532975E+02  0.28202064823E+02  0.00000000000E+00 0. -1.
<scales pt_clust_5="13000.00000" pt_clust_6="13000.00000" pt_clust_7="13000.00000" pt_clust_8="13000.00000" pt_clust_9="25.50306"></scales>
<clustering>
<clus scale="   25.503">  2  9  1 -1</clus>
<clus scale="   90.536">  7  8 -1 -1</clus>
<clus scale="   95.187">  5  6 -1 -1</clus>
<clus scale="  108.126">  2  7  1 -1</clus>
<clus scale="   25.503">  2  5  1 -1</clus>
</clustering>
</event>
<event>
 9    1  0.1843746E-005  0.9256926E+02  0.7546771E-02  0.1297394E+00
         -1   -1    0    0    0  501 -0.00000000000E+00  0.00000000000E+00  0.21732364610E+03  0.21732364610E+03  0.00000000000E+00 0.  1.
          1   -1    0    0  502    0  0.00000000000E+00 -0.00000000000E+00 -0.11695226054E+03  0.11695226054E+03  0.00000000000E+00 0. -1.
         23    2    1    2    0    0 -0.84205581729E+01  0.14799834697E+02  0.16081596373E+03  0.18503173063E+03  0.89916773972E+02 0.  0.
         23    2    1    2    0    0 -0.19355156726E+02 -0.24603088199E+02 -0.69147772587E+02  0.11853034021E+03  0.91038964486E+02 0.  0.
        -11    1    3    3    0    0 -0.14165817864E+02  0.51102138323E+02  0.11206327964E+03  0.12397692358E+03  0.00000000000E+00 0.  1.
         11    1    3    3    0    0  0.57452596909E+01 -0.36302303626E+02  0.48752684088E+02  0.61054807045E+02  0.00000000000E+00 0. -1.
        -13    1    4    4    0    0  0.31292339585E+02  0.38624805014E+01 -0.48985770206E+01  0.31908076237E+02  0.00000000000E+00 0.  1.
         13    1    4    4    0    0 -0.50647496311E+02 -0.28465568700E+02 -0.64249195566E+02  0.86622263968E+02  0.00000000000E+00 0. -1.
         21    1    1    2  502  501  0.27775714899E+02  0.98032535021E+01  0.87031944216E+01  0.30713835815E+02  0.00000000000E+00 0.  1.
<scales pt_clust_5="13000.00000" pt_clust_6="13000.00000" pt_clust_7="13000.00000" pt_clust_8="13000.00000" pt_clust_9="29.45495"></scales>
<clustering>
<clus scale="   29.455">  2  9  1 -1</clus>
<clus scale="   89.917">  5  6 -1 -1</clus>
<clus scale="   91.039">  7  8 -1 -1</clus>
<clus scale="   91.466">  1  5  2 -1</clus>
<clus scale="   29.455">  2  5  1 -1</clus>
</clustering>
</event>
<event>
 9    1  0.1803370E-005  0.9294509E+02  0.7546771E-02  0.1297168E+00
          2   -1    0    0  502    0  0.00000000000E+00  0.00000000000E+00  0.76600538530E+02  0.76600538530E+02  0.00000000000E+00 0. -1.
         -2   -1    0    0    0  501 -0.00000000000E+00 -0.00000000000E+00 -0.18731187477E+03  0.18731187477E+03  0.00000000000E+00 0.  1.
         23    2    1    2    0    0 -0.24581626824E+01 -0.25033436679E+01 -0.10722521744E+03  0.13948757778E+03  0.89147225458E+02 0.  0.
         23    2    1    2    0    0  0.15814485894E+02 -0.15906293657E+02  0.14775658664E+02  0.95256382832E+02  0.91391193445E+02 0.  0.
        -11    1    3    3    0    0  0.27617119266E+02  0.15093750064E+02 -0.98725634993E+02  0.10362083561E+03  0.00000000000E+00 0.  1.
         11    1    3    3    0    0 -0.30075281949E+02 -0.17597093732E+02 -0.84995824432E+01  0.35866742169E+02  0.00000000000E+00 0. -1.
        -13    1    4    4    0    0 -0.17971171232E+02 -0.43717478774E+02 -0.44160638639E+01  0.47472966685E+02  0.00000000000E+00 0. -1.
         13    1    4    4    0    0  0.33785657126E+02  0.27811185117E+02  0.19191722528E+02  0.47783416147E+02  0.00000000000E+00 0.  1.
         21    1    1    2  502  501 -0.13356323212E+02  0.18409637325E+02 -0.18261777472E+02  0.29168452695E+02  0.00000000000E+00 0.  1.
<scales pt_clust_5="13000.00000" pt_clust_6="13000.00000" pt_clust_7="13000.00000" pt_clust_8="13000.00000" pt_clust_9="22.74436"></scales>
<clustering>
<clus scale="   22.744">  2  9  1 -1</clus>
<clus scale="   89.147">  5  6 -1 -1</clus>
<clus scale="   90.740">  2  5  1 -1</clus>
<clus scale="   91.391">  7  8 -1 -1</clus>
<clus scale="   92.945">  1  5  2 -1</clus>
</clustering>
</event>
<event>
 9    1  0.1803370E-005  0.1537972E+03  0.7546771E-02  0.1197325E+00
          2   -1    0    0  502    0  0.00000000000E+00  0.00000000000E+00  0.98503178598E+03  0.98503178598E+03  0.00000000000E+00 0. -1.
         -2   -1    0    0    0  501 -0.00000000000E+00 -0.00000000000E+00 -0.41426946421E+02  0.41426946421E+02  0.00000000000E+00 0.  1.
         23    2    1    2    0    0 -0.14029953707E+02  0.11686609972E+03  0.15359067658E+03  0.21640297148E+03  0.96879436771E+02 0.  0.
         23    2    1    2    0    0 -0.37059807144E+01 -0.12646470277E+03  0.62778213616E+03  0.64657509822E+03  0.89117292483E+02 0.  0.
        -11    1    4    4    0    0 -0.43706214586E+02 -0.90088267057E+02  0.43314111354E+03  0.44456422854E+03  0.00000000000E+00 0.  1.
         11    1    4    4    0    0  0.40000233871E+02 -0.36376435716E+02  0.19464102262E+03  0.20201086968E+03  0.00000000000E+00 0. -1.
        -11    1    3    3    0    0  0.13205788414E+02  0.17223269742E+02  0.95409716014E+02  0.97847063206E+02  0.00000000000E+00 0.  1.
         11    1    3    3    0    0 -0.27235742121E+02  0.99642829974E+02  0.58180960566E+02  0.11855590827E+03  0.00000000000E+00 0. -1.
         21    1    1    2  502  501  0.17735934422E+02  0.95986030574E+01  0.16223202682E+03  0.16348066270E+03  0.00000000000E+00 0.  1.
<scales pt_clust_5="13000.00000" pt_clust_6="13000.00000" pt_clust_7="13000.00000" pt_clust_8="13000.00000" pt_clust_9="20.16672"></scales>
<clustering>
<clus scale="   20.167">  1  9  2 -1</clus>
<clus scale="   89.117">  5  6 -1 -1</clus>
<clus scale="   96.879">  7  8 -1 -1</clus>
<clus scale="  149.030">  1  5  2 -1</clus>
<clus scale="   20.167">  1  5  2 -1</clus>
</clustering>
</event>
<event>
 9    1  0.1803370E-005  0.1070560E+03  0.7546771E-02  0.1271757E+00
         -2   -1    0    0    0  501 -0.00000000000E+00  0.00000000000E+00  0.34859265617E+02  0.34859265617E+02  0.00000000000E+00 0.  1.
          2   -1    0    0  502    0  0.00000000000E+00 -0.00000000000E+00 -0.66864315590E+03  0.66864315590E+03  0.00000000000E+00 0. -1.
         23    2    1    2    0    0 -0.11822413306E+02 -0.48534966106E+02 -0.10972124438E+03  0.14382171477E+03  0.78425262377E+02 0.  0.
         23    2    1    2    0    0 -0.49541117078E+02  0.75325746814E+02 -0.36997339011E+03  0.39167258925E+03  0.91645061906E+02 0.  0.
        -11    1    4    4    0    0 -0.57184521767E+02  0.62418194282E+01 -0.19792595602E+03  0.20611577791E+03  0.00000000000E+00 0. -1.
         11    1    4    4    0    0  0.76434046886E+01  0.69083927386E+02 -0.17204743409E+03  0.18555681134E+03  0.00000000000E+00 0.  1.
        -13    1    3    3    0    0  0.15745811136E+02 -0.30905827511E+02 -0.61791393636E+01  0.35231839375E+02  0.00000000000E+00 0.  1.
         13    1    3    3    0    0 -0.27568224442E+02 -0.17629138595E+02 -0.10354210502E+03  0.10858987539E+03  0.00000000000E+00 0. -1.
         21    1    1    2  502  501  0.61363530385E+02 -0.26790780708E+02 -0.15408925580E+03  0.16800811749E+03  0.00000000000E+00 0.  1.
<scales pt_clust_5="13000.00000" pt_clust_6="13000.00000" pt_clust_7="13000.00000" pt_clust_8="13000.00000" pt_clust_9="66.95692"></scales>
<clustering>
<clus scale="   66.957">  2  9  1 -1</clus>
<clus scale="   78.425">  7  8 -1 -1</clus>
<clus scale="   91.645">  5  6 -1 -1</clus>
<clus scale="   95.983">  1  7  2 -1</clus>
<clus scale="   66.957">  2  5  1 -1</clus>
</clustering>
</event>
<event>
 9    1  0.1803370E-005  0.1762315E+03  0.7546771E-02  0.1171637E+00
          1   -1    0    0  502    0  0.00000000000E+00  0.00000000000E+00  0.72267005168E+02  0.72267005168E+02  0.00000000000E+00 0. -1.
         -1   -1    0    0    0  501 -0.00000000000E+00 -0.00000000000E+00 -0.67374759830E+03  0.67374759830E+03  0.00000000000E+00 0.  1.
         23    2    1    2    0    0  0.14035814963E+03  0.88114701078E+02 -0.47173490086E+03  0.50860008522E+03  0.93143004502E+02 0.  0.
         23    2    1    2    0    0 -0.97064894431E+02 -0.59041747089E+02 -0.88714973875E+02  0.17105894236E+03  0.92104796513E+02 0.  0.
        -11    1    4    4    0    0  0.14736854145E+02 -0.25095855425E+02 -0.13340074758E+02  0.32014597048E+02  0.00000000000E+00 0.  1.
         11    1    4    4    0    0 -0.11180174858E+03 -0.33945891664E+02 -0.75374899117E+02  0.13904434531E+03  0.00000000000E+00 0. -1.
        -13    1    3    3    0    0  0.43077752873E+02  0.26586453576E+02 -0.28332516054E+03  0.28781188110E+03  0.00000000000E+00 0.  1.
         13    1    3    3    0    0  0.97280396755E+02  0.61528247503E+02 -0.18840974032E+03  0.22078820412E+03  0.00000000000E+00 0. -1.
         21    1    1    2  502  501 -0.43293255197E+02 -0.29072953989E+02 -0.41030718399E+02  0.66355575889E+02  0.00000000000E+00 0. -1.
<scales pt_clust_5="13000.00000" pt_clust_6="13000.00000" pt_clust_7="13000.00000" pt_clust_8="13000.00000" pt_clust_9="52.14923"></scales>
<clustering>
<clus scale="   52.149">  1  9  2 -1</clus>
<clus scale="   92.105">  5  6 -1 -1</clus>
<clus scale="   93.143">  7  8 -1 -1</clus>
<clus scale="  175.685">  1  5  2 -1</clus>
<clus scale="   52.149">  1  5  2 -1</clus>
</clustering>
</event>
<event>
 9    1  0.1803370E-005  0.9633763E+02  0.7546771E-02  0.1290265E+00
         -1   -1    0    0    0  501 -0.00000000000E+00  0.00000000000E+00  0.21385595493E+03  0.21385595493E+03  0.00000000000E+00 0.  1.
          1   -1    0    0  502    0  0.00000000000E+00 -0.00000000000E+00 -0.74076083639E+02  0.74076083639E+02  0.00000000000E+00 0. -1.
         23    2    1    2    0    0  0.16134656125E+02 -0.24221156929E+01  0.13987041267E+03  0.16816524712E+03  0.91921837574E+02 0.  0.
         23    2    1    2    0    0  0.42225587831E+01 -0.82416075555E+01 -0.52424102196E+01  0.96215295858E+02  0.95625029121E+02 0.  0.
        -11    1    4    4    0    0 -0.24587257586E+02  0.32218369732E+02 -0.18876684868E+02  0.44708900852E+02  0.00000000000E+00 0. -1.
         11    1    4    4    0    0  0.28809816369E+02 -0.40459977287E+02  0.13634274648E+02  0.51506395006E+02  0.00000000000E+00 0.  1.
        -11    1    3    3    0    0 -0.14973935864E+02 -0.41087682779E+02  0.65120764005E+02  0.78441891462E+02  0.00000000000E+00 0.  1.
         11    1    3    3    0    0  0.31108591989E+02  0.38665567086E+02  0.74749648669E+02  0.89723355654E+02  0.00000000000E+00 0. -1.
         21    1    1    2  502  501 -0.20357214908E+02  0.10663723248E+02  0.51518688365E+01  0.23551495596E+02  0.00000000000E+00 0.  1.
<scales pt_clust_5="13000.00000" pt_clust_6="13000.00000" pt_clust_7="13000.00000" pt_clust_8="13000.00000" pt_clust_9="22.98111"></scales>
<clustering>
<clus scale="   22.981">  2  9  1 -1</clus>
<clus scale="   91.922">  7  8 -1 -1</clus>
<clus scale="   92.663">  1  7  2 -1</clus>
<clus scale="   95.625">  5  6 -1 -1</clus>
<clus scale="   22.981">  2  5  1 -1</clus>
</clustering>
</event>
<event>
 9    1  0.1803370E-005  0.2827134E+03  0.7546771E-02  0.1094400E+00
         -3   -1    0    0    0  501 -0.00000000000E+00  0.00000000000E+00  0.56235634663E+03  0.56235634663E+03  0.00000000000E+00 0.  1.
          3   -1    0    0  502    0  0.00000000000E+00 -0.00000000000E+00 -0.29920685866E+03  0.29920685866E+03  0.00000000000E+00 0. -1.
         23    2    1    2    0    0  0.17975682258E+03  0.19903398110E+03  0.43022481350E+03  0.51510203706E+03  0.91157432705E+02 0.  0.
         23    2    1    2    0    0 -0.19393001139E+03 -0.18104018199E+03 -0.14463303169E+03  0.31439385403E+03  0.86835389009E+02 0.  0.
        -11    1    3    3    0    0  0.22088166171E+02  0.96225097929E+01  0.10111567966E+03  0.10394643069E+03  0.00000000000E+00 0. -1.
         11    1    3    3    0    0  0.15766865641E+03  0.18941147130E+03  0.32910913384E+03  0.41115560637E+03  0.00000000000E+00 0.  1.
        -13    1    4    4    0    0 -0.13640095826E+03 -0.11887243026E+03 -0.14140075935E+03  0.22963024808E+03  0.00000000000E+00 0. -1.
         13    1    4    4    0    0 -0.57529053126E+02 -0.62167751727E+02 -0.32322723423E+01  0.84763605945E+02  0.00000000000E+00 0.  1.
         21    1    1    2  502  501  0.14173188805E+02 -0.17993799108E+02 -0.22442293837E+02  0.32067314199E+02  0.00000000000E+00 0. -1.
<scales pt_clust_5="13000.00000" pt_clust_6="13000.00000" pt_clust_7="13000.00000" pt_clust_8="13000.00000" pt_clust_9="22.90537"></scales>
<clustering>
<clus scale="   22.905">  2  9  1 -1</clus>
<clus scale="   86.835">  7  8 -1 -1</clus>
<clus scale="   91.157">  5  6 -1 -1</clus>
<clus scale="  281.350">  2  7  1 -1</clus>
<clus scale="   22.905">  2  5  1 -1</clus>
</clustering>
</event>
<event>
 9    1  0.1803370E-005  0.9923198E+02  0.7546771E-02  0.1282211E+00
         -2   -1    0    0    0  501 -0.00000000000E+00  0.00000000000E+00  0.21530538738E+03  0.21530538738E+03  0.00000000000E+00 0. -1.
          2   -1    0    0  502    0  0.00000000000E+00 -0.00000000000E+00 -0.10379841831E+03  0.10379841831E+03  0.00000000000E+00 0.  1.
         23    2    1    2    0    0 -0.10259184545E+02  0.43058292984E+02  0.16071012300E+03  0.18965900876E+03  0.90462857069E+02 0.  0.
         23    2    1    2    0    0 -0.67933855062E+01 -0.27472239822E+02 -0.28514480330E+02  0.98432921563E+02  0.89861506840E+02 0.  0.
        -13    1    3    3    0    0  0.28823450998E+02  0.49650689864E+02  0.11897675566E+03  0.13210393908E+03  0.00000000000E+00 0.  1.
         13    1    3    3    0    0 -0.39082635543E+02 -0.65923968799E+01  0.41733367333E+02  0.57555069686E+02  0.00000000000E+00 0. -1.
        -13    1    4    4    0    0  0.22778825022E+02 -0.10893359369E+02 -0.51579721738E+02  0.57428284340E+02  0.00000000000E+00 0.  1.
         13    1    4    4    0    0 -0.29572210528E+02 -0.16578880454E+02  0.23065241408E+02  0.41004637223E+02  0.00000000000E+00 0. -1.
         21    1    1    2  502  501  0.17052570051E+02 -0.15586053161E+02 -0.20688673593E+02  0.31011875363E+02  0.00000000000E+00 0. -1.
<scales pt_clust_5="13000.00000" pt_clust_6="13000.00000" pt_clust_7="13000.00000" pt_clust_8="13000.00000" pt_clust_9="23.10228"></scales>
<clustering>
<clus scale="   23.102">  2  9  1 -1</clus>
<clus scale="   89.862">  7  8 -1 -1</clus>
<clus scale="   90.463">  5  6 -1 -1</clus>
<clus scale="   98.684">  2  7  1 -1</clus>
<clus scale="   23.102">  2  5  1 -1</clus>
</clustering>
</event>
<event>
 9    1  0.1803370E-005  0.1366777E+03  0.7546771E-02  0.1235666E+00
         -1   -1    0    0    0  501 -0.00000000000E+00  0.00000000000E+00  0.12818840198E+03  0.12818840198E+03  0.00000000000E+00 0.  1.
          1   -1    0    0  502    0  0.00000000000E+00 -0.00000000000E+00 -0.53210059108E+03  0.53210059108E+03  0.00000000000E+00 0. -1.
         23    2    1    2    0    0  0.91272528341E+01  0.11589065451E+02  0.71249750690E+02  0.11831694058E+03  0.93299294056E+02 0.  0.
         23    2    1    2    0    0  0.52919312217E+02  0.73548600575E+02 -0.13739561697E+03  0.18815813636E+03  0.91192535135E+02 0.  0.
        -13    1    4    4    0    0  0.54682003077E+02  0.41488217040E+02 -0.27971146526E+02  0.74120028681E+02  0.00000000000E+00 0.  1.
         13    1    4    4    0    0 -0.17626908597E+01  0.32060383535E+02 -0.10942447044E+03  0.11403810768E+03  0.00000000000E+00 0. -1.
        -13    1    3    3    0    0  0.40142000728E+02 -0.19814701714E+02  0.15860649744E+02  0.47492766152E+02  0.00000000000E+00 0.  1.
         13    1    3    3    0    0 -0.31014747894E+02  0.31403767165E+02  0.55389100946E+02  0.70824174423E+02  0.00000000000E+00 0. -1.
         21    1    1    2  502  501 -0.62046565051E+02 -0.85137666026E+02 -0.33776632282E+03  0.35381391612E+03  0.00000000000E+00 0. -1.
<scales pt_clust_5="13000.00000" pt_clust_6="13000.00000" pt_clust_7="13000.00000" pt_clust_8="13000.00000" pt_clust_9="101.80722"></scales>
<clustering>
<clus scale="   91.193">  5  6 -1 -1</clus>
<clus scale="   93.299">  7  8 -1 -1</clus>
<clus scale="   94.458">  1  7  2 -1</clus>
<clus scale="  101.807">  2  9  1 -1</clus>
<clus scale="  101.807">  2  5  1 -1</clus>
</clustering>
</event>
<event>
 9    1  0.1803370E-005  0.9851750E+02  0.7546771E-02  0.1283622E+00
         -2   -1    0    0    0  501 -0.00000000000E+00  0.00000000000E+00  0.41351894897E+03  0.41351894897E+03  0.00000000000E+00 0.  1.
          2   -1    0    0  502    0  0.00000000000E+00 -0.00000000000E+00 -0.54384390418E+02  0.54384390418E+02  0.00000000000E+00 0. -1.
         23    2    1    2    0    0 -0.25498377566E+02 -0.11240002391E+02  0.27901354468E+03  0.29509454917E+03  0.91955042943E+02 0.  0.
         23    2    1    2    0    0  0.63386043134E+02  0.22341309083E+02  0.60665129894E+02  0.12879463757E+03  0.91601725555E+02 0.  0.
        -11    1    3    3    0    0 -0.32994143946E+02  0.35648093805E+02  0.14461178128E+03  0.15255152379E+03  0.00000000000E+00 0.  1.
         11    1    3    3    0    0  0.74957663799E+01 -0.46888096196E+02  0.13440176340E+03  0.14254302538E+03  0.00000000000E+00 0. -1.
        -13    1    4    4    0    0  0.43905256993E+02  0.56522241510E+02  0.25353167772E+02  0.75929035902E+02  0.00000000000E+00 0. -1.
         13    1    4    4    0    0  0.19480786141E+02 -0.34180932427E+02  0.35311962122E+02  0.52865601663E+02  0.00000000000E+00 0.  1.
         21    1    1    2  502  501 -0.37887665568E+02 -0.11101306692E+02  0.19455883978E+02  0.44014152654E+02  0.00000000000E+00 0. -1.
<scales pt_clust_5="13000.00000" pt_clust_6="13000.00000" pt_clust_7="13000.00000" pt_clust_8="13000.00000" pt_clust_9="39.48055"></scales>
<clustering>
<clus scale="   39.481">  2  9  1 -1</clus>
<clus scale="   91.602">  7  8 -1 -1</clus>
<clus scale="   91.955">  5  6 -1 -1</clus>
<clus scale="   98.188">  2  7  1 -1</clus>
<clus scale="   39.481">  2  5  1 -1</clus>
</clustering>
</event>
<event>
 9    1  0.1803370E-005  0.1426110E+03  0.7546771E-02  0.1210616E+00
         -1   -1    0    0    0  501 -0.00000000000E+00  0.00000000000E+00  0.93464770735E+02  0.93464770735E+02  0.00000000000E+00 0.  1.
          1   -1    0    0  502    0  0.00000000000E+00 -0.00000000000E+00 -0.51682217364E+03  0.51682217364E+03  0.00000000000E+00 0. -1.
         23    2    1    2    0    0  0.67666638150E+02 -0.71452183330E+02 -0.83775986329E+01  0.13400975434E+03  0.90577269097E+02 0.  0.
         23    2    1    2    0    0 -0.80299119037E+02  0.11327423203E+03 -0.22099506490E+03  0.27743367759E+03  0.94083083466E+02 0.  0.
        -11    1    4    4    0    0 -0.45575112096E+02  0.12319833929E+03 -0.17937841604E+03  0.22233204400E+03  0.00000000000E+00 0.  1.
         11    1    4    4    0    0 -0.34724006942E+02 -0.99241072618E+01 -0.41616648857E+02  0.55101633597E+02  0.00000000000E+00 0. -1.
        -13    1    3    3    0    0  0.86524461947E+02 -0.36415784102E+02 -0.37204311125E+01  0.93949100340E+02  0.00000000000E+00 0. -1.
         13    1    3    3    0    0 -0.18857823797E+02 -0.35036399229E+02 -0.46571675204E+01  0.40060653996E+02  0.00000000000E+00 0.  1.
         21    1    1    2  502  501  0.12632480888E+02 -0.41822048700E+02 -0.19398473937E+03  0.19884351244E+03  0.00000000000E+00 0. -1.
<scales pt_clust_5="13000.00000" pt_clust_6="13000.00000" pt_clust_7="13000.00000" pt_clust_8="13000.00000" pt_clust_9="43.68825"></scales>
<clustering>
<clus scale="   43.688">  2  9  1 -1</clus>
<clus scale="   90.577">  7  8 -1 -1</clus>
<clus scale="   94.083">  5  6 -1 -1</clus>
<clus scale="  140.323">  1  7  2 -1</clus>
<clus scale="   43.688">  2  5  1 -1</clus>
</clustering>
</event>
<event>
 9    1  0.1803370E-005  0.3409361E+03  0.7546771E-02  0.1066416E+00
         -1   -1    0    0    0  501 -0.00000000000E+00  0.00000000000E+00  0.77169625557E+03  0.77169625557E+03  0.00000000000E+00 0.  1.
          1   -1    0    0  502    0  0.00000000000E+00 -0.00000000000E+00 -0.26546278507E+03  0.26546278507E+03  0.00000000000E+00 0. -1.
         23    2    1    2    0    0  0.32418600758E+03  0.49003923692E+02  0.53486103789E+03  0.63391494581E+03  0.90960852153E+02 0.  0.
         23    2    1    2    0    0 -0.33323013399E+03  0.50005116811E+00 -0.49055308679E+00  0.34558881472E+03  0.91590479707E+02 0.  0.
        -11    1    3    3    0    0  0.13856784231E+03  0.26223674727E+02  0.14919579117E+03  0.20530005393E+03  0.00000000000E+00 0. -1.
         11    1    3    3    0    0  0.18561816527E+03  0.22780248965E+02  0.38566524672E+03  0.42861489189E+03  0.00000000000E+00 0.  1.
        -11    1    4    4    0    0 -0.80763343632E+02 -0.28647111008E+02 -0.27538795339E+02  0.90009776649E+02  0.00000000000E+00 0.  1.
         11    1    4    4    0    0 -0.25246679035E+03  0.29147162176E+02  0.27048242252E+02  0.25557903808E+03  0.00000000000E+00 0. -1.
         21    1    1    2  502  501  0.90441264078E+01 -0.49503974860E+02 -0.28137014313E+02  0.57655280104E+02  0.00000000000E+00 0. -1.
<scales pt_clust_5="13000.00000" pt_clust_6="13000.00000" pt_clust_7="13000.00000" pt_clust_8="13000.00000" pt_clust_9="50.32335"></scales>
<clustering>
<clus scale="   50.323">  2  9  1 -1</clus>
<clus scale="   90.961">  5  6 -1 -1</clus>
<clus scale="   91.590">  7  8 -1 -1</clus>
<clus scale="  340.767">  1  5  2 -1</clus>
<clus scale="   50.323">  2  5  1 -1</clus>
</clustering>
</event>
<event>
 9    1  0.1803370E-005  0.1379580E+03  0.7546771E-02  0.1217601E+00
          1   -1    0    0  502    0  0.00000000000E+00  0.00000000000E+00  0.91977608651E+02  0.91977608651E+02  0.00000000000E+00 0. -1.
         -1   -1    0    0    0  501 -0.00000000000E+00 -0.00000000000E+00 -0.34882708296E+03  0.34882708296E+03  0.00000000000E+00 0.  1.
         23    2    1    2    0    0 -0.85818163645E+02 -0.26746655558E+02 -0.19204181609E+03  0.23063341040E+03  0.90728000474E+02 0.  0.
         23    2    1    2    0    0  0.12110603123E+03  0.10104908264E+02 -0.70588338144E+02  0.17073021616E+03  0.96939740349E+02 0.  0.
        -13    1    4    4    0    0  0.10679068711E+03 -0.30028466479E+02 -0.62604969169E+02  0.12737873377E+03  0.00000000000E+00 0.  1.
         13    1    4    4    0    0  0.14315344117E+02  0.40133374743E+02 -0.79833689748E+01  0.43351482393E+02  0.00000000000E+00 0. -1.
        -13    1    3    3    0    0 -0.27277788370E+02  0.32310863367E+02 -0.45305345102E+02  0.61972928966E+02  0.00000000000E+00 0. -1.
         13    1    3    3    0    0 -0.58540375274E+02 -0.59057518925E+02 -0.14673647099E+03  0.16866048143E+03  0.00000000000E+00 0.  1.
         21    1    1    2  502  501 -0.35287867583E+02  0.16641747294E+02  0.57806799269E+01  0.39441065046E+02  0.00000000000E+00 0. -1.
<scales pt_clust_5="13000.00000" pt_clust_6="13000.00000" pt_clust_7="13000.00000" pt_clust_8="13000.00000" pt_clust_9="39.01514"></scales>
<clustering>
<clus scale="   39.015">  1  9  2 -1</clus>
<clus scale="   90.728">  7  8 -1 -1</clus>
<clus scale="   96.940">  5  6 -1 -1</clus>
<clus scale="  133.666">  2  7  1 -1</clus>
<clus scale="   39.015">  1  5  2 -1</clus>
</clustering>
</event>
<event>
 9    1  0.1803370E-005  0.1296668E+03  0.7546771E-02  0.1228071E+00
          2   -1    0    0  502    0  0.00000000000E+00  0.00000000000E+00  0.97686867405E+02  0.97686867405E+02  0.00000000000E+00 0. -1.
         -2   -1    0    0    0  501 -0.00000000000E+00 -0.00000000000E+00 -0.38316515785E+03  0.38316515785E+03  0.00000000000E+00 0.  1.
         23    2    1    2    0    0  0.37934811696E+02 -0.82848246477E+02 -0.29403392267E+03  0.32082075594E+03  0.90372163208E+02 0.  0.
         23    2    1    2    0    0 -0.61030008385E+02  0.81859884144E+02  0.83303334825E+01  0.13691383585E+03  0.90831169964E+02 0.  0.
        -13    1    3    3    0    0  0.43141765790E+02 -0.40038405406E+02 -0.25798192237E+03  0.26461095619E+03  0.00000000000E+00 0.  1.
         13    1    3    3    0    0 -0.52069540942E+01 -0.42809841071E+02 -0.36052000292E+02  0.56209799755E+02  0.00000000000E+00 0. -1.
        -13    1    4    4    0    0 -0.12436189085E+02  0.22300428001E+02 -0.39020394719E+02  0.46632167996E+02  0.00000000000E+00 0.  1.
         13    1    4    4    0    0 -0.48593819300E+02  0.59559456143E+02  0.47350728201E+02  0.90281667859E+02  0.00000000000E+00 0. -1.
         21    1    1    2  502  501  0.23095196689E+02  0.98836233250E+00  0.22529873610E+00  0.23117433459E+02  0.00000000000E+00 0.  1.
<scales pt_clust_5="13000.00000" pt_clust_6="13000.00000" pt_clust_7="13000.00000" pt_clust_8="13000.00000" pt_clust_9="23.11634"></scales>
<clustering>
<clus scale="   23.116">  1  9  2 -1</clus>
<clus scale="   90.372">  5  6 -1 -1</clus>
<clus scale="   90.831">  7  8 -1 -1</clus>
<clus scale="  129.346">  2  5  1 -1</clus>
<clus scale="   23.116">  1  5  2 -1</clus>
</clustering>
</event>
<event>
 9    1  0.1803370E-005  0.2025581E+03  0.7546771E-02  0.1147982E+00
          1   -1    0    0  502    0  0.00000000000E+00  0.00000000000E+00  0.20820823068E+03  0.20820823068E+03  0.00000000000E+00 0. -1.
         -1   -1    0    0    0  501 -0.00000000000E+00 -0.00000000000E+00 -0.25538511941E+03  0.25538511941E+03  0.00000000000E+00 0.  1.
         23    2    1    2    0    0 -0.14805638993E+03  0.11604077052E+03 -0.51729464129E+02  0.21475009965E+03  0.89752508702E+02 0.  0.
         23    2    1    2    0    0  0.10658539266E+03 -0.13606012019E+03 -0.18179967298E+02  0.19748775927E+03  0.93798196240E+02 0.  0.
        -11    1    3    3    0    0 -0.23232741421E+01  0.36325506030E+02 -0.30108826283E+02  0.47238558522E+02  0.00000000000E+00 0.  1.
         11    1    3    3    0    0 -0.14573311579E+03  0.79715264488E+02 -0.21620637846E+02  0.16751154113E+03  0.00000000000E+00 0. -1.
        -13    1    4    4    0    0 -0.70238997304E+00 -0.65032805540E+02  0.99143826867E+01  0.65787948228E+02  0.00000000000E+00 0. -1.
         13    1    4    4    0    0  0.10728778263E+03 -0.71027314648E+02 -0.28094349984E+02  0.13169981104E+03  0.00000000000E+00 0.  1.
         21    1    1    2  502  501  0.41470997274E+02  0.20019349670E+02  0.22732542696E+02  0.51355491172E+02  0.00000000000E+00 0. -1.
<scales pt_clust_5="13000.00000" pt_clust_6="13000.00000" pt_clust_7="13000.00000" pt_clust_8="13000.00000" pt_clust_9="46.05017"></scales>
<clustering>
<clus scale="   46.050">  1  9  2 -1</clus>
<clus scale="   89.753">  5  6 -1 -1</clus>
<clus scale="   93.798">  7  8 -1 -1</clus>
<clus scale="  200.717">  2  5  1 -1</clus>
<clus scale="   46.050">  1  5  2 -1</clus>
</clustering>
</event>
<event>
 9    1  0.1803370E-005  0.1422922E+03  0.7546771E-02  0.1211061E+00
         -2   -1    0    0    0  501 -0.00000000000E+00  0.00000000000E+00  0.24642964325E+02  0.24642964325E+02  0.00000000000E+00 0.  1.
          2   -1    0    0  502    0  0.00000000000E+00 -0.00000000000E+00 -0.14997879460E+04  0.14997879460E+04  0.00000000000E+00 0. -1.
         23    2    1    2    0    0 -0.84964990668E+02 -0.37529363875E+02 -0.30132076375E+03  0.32915357287E+03  0.94447705522E+02 0.  0.
         23    2    1    2    0    0  0.12422829307E+03  0.74837576117E+02 -0.87297958772E+03  0.88959612910E+03  0.90854723222E+02 0.  0.
        -11    1    4    4    0    0  0.19957542145E+02  0.61073631537E+02 -0.27225331339E+03  0.27973229811E+03  0.00000000000E+00 0.  1.
         11    1    4    4    0    0  0.10427075092E+03  0.13763944580E+02 -0.60072627434E+03  0.60986383099E+03  0.00000000000E+00 0. -1.
        -11    1    3    3    0    0 -0.30345460480E+02 -0.56027216882E+02 -0.22279940828E+03  0.23173146600E+03  0.00000000000E+00 0. -1.
         11    1    3    3    0    0 -0.54619530188E+02  0.18497853007E+02 -0.78521355466E+02  0.97422106875E+02  0.00000000000E+00 0.  1.
         21    1    1    2  502  501 -0.39263302400E+02 -0.37308212241E+02 -0.30084463021E+03  0.30568120835E+03  0.00000000000E+00 0.  1.
<scales pt_clust_5="13000.00000" pt_clust_6="13000.00000" pt_clust_7="13000.00000" pt_clust_8="13000.00000" pt_clust_9="54.16188"></scales>
<clustering>
<clus scale="   54.162">  2  9  1 -1</clus>
<clus scale="   90.855">  5  6 -1 -1</clus>
<clus scale="   94.448">  7  8 -1 -1</clus>
<clus scale="  139.933">  2  5  1 -1</clus>
<clus scale="   54.162">  2  5  1 -1</clus>
</clustering>
</event>
<event>
 9    1  0.1803370E-005  0.1053334E+03  0.7546771E-02  0.1269521E+00
          2   -1    0    0  502    0  0.00000000000E+00  0.00000000000E+00  0.43151597183E+03  0.43151597183E+03  0.00000000000E+00 0. -1.
         -2   -1    0    0    0  501 -0.00000000000E+00 -0.00000000000E+00 -0.40101583437E+02  0.40101583437E+02  0.00000000000E+00 0.  1.
         23    2    1    2    0    0  0.51760728911E+02  0.37260598005E+02  0.10205550860E+03  0.15135538385E+03  0.91791067993E+02 0.  0.
         23    2    1    2    0    0 -0.22810671198E+02 -0.27185510401E+02  0.16389022853E+03  0.19110337117E+03  0.91657584349E+02 0.  0.
        -11    1    4    4    0    0  0.35323676269E+02 -0.17249693515E+02  0.65588645321E+02  0.76466884509E+02  0.00000000000E+00 0.  1.
         11    1    4    4    0    0 -0.58134347467E+02 -0.99358168867E+01  0.98301583206E+02  0.11463648666E+03  0.00000000000E+00 0. -1.
        -13    1    3    3    0    0  0.71024826063E+02  0.53015949227E+01  0.83280829325E+02  0.10958252305E+03  0.00000000000E+00 0.  1.
         13    1    3    3    0    0 -0.19264097152E+02  0.31959003083E+02  0.18774679280E+02  0.41772860797E+02  0.00000000000E+00 0. -1.
         21    1    1    2  502  501 -0.28950057714E+02 -0.10075087604E+02  0.12546865126E+03  0.12915880024E+03  0.00000000000E+00 0. -1.
<scales pt_clust_5="13000.00000" pt_clust_6="13000.00000" pt_clust_7="13000.00000" pt_clust_8="13000.00000" pt_clust_9="30.65311"></scales>
<clustering>
<clus scale="   30.653">  1  9  2 -1</clus>
<clus scale="   91.658">  5  6 -1 -1</clus>
<clus scale="   91.791">  7  8 -1 -1</clus>
<clus scale="  105.217">  1  5  2 -1</clus>
<clus scale="   30.653">  1  5  2 -1</clus>
</clustering>
</event>
<event>
 9    1  0.1803370E-005  0.1148083E+03  0.7546771E-02  0.1252110E+00
         -1   -1    0    0    0  501 -0.00000000000E+00  0.00000000000E+00  0.70135747713E+02  0.70135747713E+02  0.00000000000E+00 0.  1.
          1   -1    0    0  502    0  0.00000000000E+00 -0.00000000000E+00 -0.50051531251E+03  0.50051531251E+03  0.00000000000E+00 0. -1.
         23    2    1    2    0    0  0.15689507216E+02 -0.73415292641E+02 -0.27857540130E+01  0.11770797744E+03  0.90617005562E+02 0.  0.
         23    2    1    2    0    0 -0.28612404777E+02  0.46836910498E+02 -0.22844903693E+03  0.25161734516E+03  0.90055316429E+02 0.  0.
        -13    1    4    4    0    0 -0.48951407194E+02  0.83405249884E+01 -0.17886884772E+03  0.18563369659E+03  0.00000000000E+00 0. -1.
         13    1    4    4    0    0  0.20339002417E+02  0.38496385509E+02 -0.49580189209E+02  0.65983648570E+02  0.00000000000E+00 0.  1.
        -13    1    3    3    0    0  0.48979542289E+01 -0.45208770908E+02  0.43180266010E+02  0.62708518523E+02  0.00000000000E+00 0.  1.
         13    1    3    3    0    0  0.10791552988E+02 -0.28206521733E+02 -0.45966020023E+02  0.54999458915E+02  0.00000000000E+00 0. -1.
         21    1    1    2  502  501  0.12922897561E+02  0.26578382143E+02 -0.19914477385E+03  0.20132573762E+03  0.00000000000E+00 0. -1.
<scales pt_clust_5="13000.00000" pt_clust_6="13000.00000" pt_clust_7="13000.00000" pt_clust_8="13000.00000" pt_clust_9="29.55354"></scales>
<clustering>
<clus scale="   29.554">  2  9  1 -1</clus>
<clus scale="   90.055">  5  6 -1 -1</clus>
<clus scale="   90.617">  7  8 -1 -1</clus>
<clus scale="  114.365">  2  5  1 -1</clus>
<clus scale="   29.554">  2  5  1 -1</clus>
</clustering>
</event>
<event>
 9    1  0.1803370E-005  0.1113566E+03  0.7546771E-02  0.1258374E+00
          4   -1    0    0  502    0  0.00000000000E+00  0.00000000000E+00  0.55789823662E+02  0.55789823662E+02  0.00000000000E+00 0. -1.
         -4   -1    0    0    0  501 -0.00000000000E+00 -0.00000000000E+00 -0.34640223958E+03  0.34640223958E+03  0.00000000000E+00 0.  1.
         23    2    1    2    0    0 -0.36170061436E+02 -0.48063450972E+02 -0.19886684436E+03  0.22768366437E+03  0.93131415593E+02 0.  0.
         23    2    1    2    0    0  0.20855049743E+02  0.61134686106E+02 -0.10191683293E+03  0.15195044398E+03  0.92355366094E+02 0.  0.
        -11    1    3    3    0    0  0.39804993331E+01 -0.66148200343E+02 -0.10802417432E+03  0.12673062385E+03  0.00000000000E+00 0.  1.
         11    1    3    3    0    0 -0.40150560769E+02  0.18084749371E+02 -0.90842670040E+02  0.10095304052E+03  0.00000000000E+00 0. -1.
        -13    1    4    4    0    0  0.21313344075E+02  0.23434923157E+02  0.10505915646E+02  0.33374069614E+02  0.00000000000E+00 0. -1.
         13    1    4    4    0    0 -0.45829433205E+00  0.37699762948E+02 -0.11242274858E+03  0.11857637437E+03  0.00000000000E+00 0.  1.
         21    1    1    2  502  501  0.15315011693E+02 -0.13071235133E+02  0.10171261374E+02  0.22557954894E+02  0.00000000000E+00 0. -1.
<scales pt_clust_5="13000.00000" pt_clust_6="13000.00000" pt_clust_7="13000.00000" pt_clust_8="13000.00000" pt_clust_9="20.13472"></scales>
<clustering>
<clus scale="   20.135">  1  9  2 -1</clus>
<clus scale="   92.355">  7  8 -1 -1</clus>
<clus scale="   93.131">  5  6 -1 -1</clus>
<clus scale="  110.708">  1  7  2 -1</clus>
<clus scale="   20.135">  1  5  2 -1</clus>
</clustering>
</event>
<event>
 9    1  0.1803370E-005  0.1175722E+03  0.7546771E-02  0.1248064E+00
          2   -1    0    0  502    0  0.00000000000E+00  0.00000000000E+00  0.82106319301E+03  0.82106319301E+03  0.00000000000E+00 0.  1.
         -2   -1    0    0    0  501 -0.00000000000E+00 -0.00000000000E+00 -0.25718136350E+02  0.25718136350E+02  0.00000000000E+00 0. -1.
         23    2    1    2    0    0 -0.73146198567E+02 -0.24988643946E+02  0.17120412489E+03  0.20950678670E+03  0.92776304097E+02 0.  0.
         23    2    1    2    0    0  0.56328190419E+02  0.12716571511E+02  0.54745595942E+03  0.55781364571E+03  0.90074744575E+02 0.  0.
        -11    1    3    3    0    0  0.96388230350E+01 -0.27453654473E+02  0.85536272511E+02  0.90349676085E+02  0.00000000000E+00 0.  1.
         11    1    3    3    0    0 -0.82785021602E+02  0.24650105269E+01  0.85667852380E+02  0.11915711061E+03  0.00000000000E+00 0. -1.
        -13    1    4    4    0    0 -0.13710547025E+02 -0.24016327505E+02  0.12560866754E+03  0.12861687466E+03  0.00000000000E+00 0. -1.
         13    1    4    4    0    0  0.70038737444E+02  0.36732899015E+02  0.42184729188E+03  0.42919677105E+03  0.00000000000E+00 0.  1.
         21    1    1    2  502  501  0.16818008148E+02  0.12272072436E+02  0.76684972354E+02  0.79460896955E+02  0.00000000000E+00 0.  1.
<scales pt_clust_5="13000.00000" pt_clust_6="13000.00000" pt_clust_7="13000.00000" pt_clust_8="13000.00000" pt_clust_9="20.81944"></scales>
<clustering>
<clus scale="   20.819">  1  9  2 -1</clus>
<clus scale="   90.075">  7  8 -1 -1</clus>
<clus scale="   92.776">  5  6 -1 -1</clus>
<clus scale="  115.452">  1  7  2 -1</clus>
<clus scale="   20.819">  1  5  2 -1</clus>
</clustering>
</event>
<event>
 9    1  0.1803370E-005  0.1009384E+03  0.7546771E-02  0.1285585E+00
          1   -1    0    0  502    0  0.00000000000E+00  0.00000000000E+00  0.13987963349E+03  0.13987963349E+03  0.00000000000E+00 0. -1.
         -1   -1    0    0    0  501 -0.00000000000E+00 -0.00000000000E+00 -0.11974519964E+03  0.11974519964E+03  0.00000000000E+00 0.  1.
         23    2    1    2    0    0  0.24839251025E+01  0.67645656807E+01 -0.47208249670E+02  0.11043840546E+03  0.99579582901E+02 0.  0.
         23    2    1    2    0    0 -0.30094189504E+02 -0.20591287860E+02  0.25510490179E+02  0.97191838079E+02  0.86404900916E+02 0.  0.
        -11    1    3    3    0    0 -0.44202579787E+00  0.38711069258E+02  0.14134842975E+02  0.41213299502E+02  0.00000000000E+00 0. -1.
         11    1    3    3    0    0  0.29259509004E+01 -0.31946503578E+02 -0.61343092644E+02  0.69225105957E+02  0.00000000000E+00 0.  1.
        -11    1    4    4    0    0 -0.18704311824E+02  0.28751451959E+02 -0.95431500290E+01  0.35602935034E+02  0.00000000000E+00 0. -1.
         11    1    4    4    0    0 -0.11389877680E+02 -0.49342739819E+02  0.35053640208E+02  0.61588903045E+02  0.00000000000E+00 0.  1.
         21    1    1    2  502  501  0.27610264401E+02  0.13826722180E+02  0.41832193340E+02  0.51994589586E+02  0.00000000000E+00 0. -1.
<scales pt_clust_5="13000.00000" pt_clust_6="13000.00000" pt_clust_7="13000.00000" pt_clust_8="13000.00000" pt_clust_9="30.87888"></scales>
<clustering>
<clus scale="   30.879">  1  9  2 -1</clus>
<clus scale="   86.405">  7  8 -1 -1</clus>
<clus scale="   87.967">  1  7  2 -1</clus>
<clus scale="   99.580">  5  6 -1 -1</clus>
<clus scale="   30.879">  1  5  2 -1</clus>
</clustering>
</event>
<event>
 9    1  0.1803370E-005  0.1030217E+03  0.7546771E-02  0.1274073E+00
         -3   -1    0    0    0  501 -0.00000000000E+00  0.00000000000E+00  0.10518479463E+03  0.10518479463E+03  0.00000000000E+00 0.  1.
          3   -1    0    0  502    0  0.00000000000E+00 -0.00000000000E+00 -0.29536295141E+03  0.29536295141E+03  0.00000000000E+00 0. -1.
         23    2    1    2    0    0  0.34862526052E+02 -0.16347299773E+01  0.47734480224E+02  0.11176842777E+03  0.94844782562E+02 0.  0.
         23    2    1    2    0    0 -0.69735586697E+02 -0.22538312764E+02 -0.15814903321E+03  0.19843166283E+03  0.94831326648E+02 0.  0.
        -11    1    3    3    0    0 -0.10014459730E+02  0.35393792139E+02  0.37803444058E+02  0.52745713648E+02  0.00000000000E+00 0.  1.
         11    1    3    3    0    0  0.44876985783E+02 -0.37028522116E+02  0.99310361665E+01  0.59022714122E+02  0.00000000000E+00 0. -1.
        -13    1    4    4    0    0 -0.47049243611E+02 -0.59851884167E+02 -0.10325173742E+03  0.12828406231E+03  0.00000000000E+00 0. -1.
         13    1    4    4    0    0 -0.22686343086E+02  0.37313571403E+02 -0.54897295791E+02  0.70147600519E+02  0.00000000000E+00 0.  1.
         21    1    1    2  502  501  0.34873060644E+02  0.24173042741E+02 -0.79763603786E+02  0.90347655437E+02  0.00000000000E+00 0. -1.
<scales pt_clust_5="13000.00000" pt_clust_6="13000.00000" pt_clust_7="13000.00000" pt_clust_8="13000.00000" pt_clust_9="42.43190"></scales>
<clustering>
<clus scale="   42.432">  2  9  1 -1</clus>
<clus scale="   94.831">  7  8 -1 -1</clus>
<clus scale="   94.845">  5  6 -1 -1</clus>
<clus scale="  103.009">  2  7  1 -1</clus>
<clus scale="   42.432">  2  5  1 -1</clus>
</clustering>
</event>
<event>
 9    1  0.1803370E-005  0.9864939E+02  0.7546771E-02  0.1283278E+00
          1   -1    0    0  502    0  0.00000000000E+00  0.00000000000E+00  0.20413010780E+03  0.20413010780E+03  0.00000000000E+00 0. -1.
         -1   -1    0    0    0  501 -0.00000000000E+00 -0.00000000000E+00 -0.11610305561E+03  0.11610305561E+03  0.00000000000E+00 0.  1.
         23    2    1    2    0    0 -0.12225131339E+02  0.35239763412E+02 -0.59047783422E+02  0.11440333889E+03  0.90610090277E+02 0.  0.
         23    2    1    2    0    0  0.43668750054E+02 -0.30311307923E+02  0.13633797237E+03  0.17224007811E+03  0.90845289808E+02 0.  0.
        -13    1    3    3    0    0 -0.25609181975E+02  0.56947051347E+02 -0.16145523387E+02  0.64493990294E+02  0.00000000000E+00 0. -1.
         13    1    3    3    0    0  0.13384050636E+02 -0.21707287935E+02 -0.42902260035E+02  0.49909348593E+02  0.00000000000E+00 0.  1.
        -13    1    4    4    0    0 -0.26679799391E+02 -0.20723424677E+02  0.36543131533E+02  0.49766178154E+02  0.00000000000E+00 0.  1.
         13    1    4    4    0    0  0.70348549446E+02 -0.95878832460E+01  0.99794840833E+02  0.12247389996E+03  0.00000000000E+00 0. -1.
         21    1    1    2  502  501 -0.31443618716E+02 -0.49284554893E+01  0.10736863243E+02  0.33589746408E+02  0.00000000000E+00 0. -1.
<scales pt_clust_5="13000.00000" pt_clust_6="13000.00000" pt_clust_7="13000.00000" pt_clust_8="13000.00000" pt_clust_9="31.82752"></scales>
<clustering>
<clus scale="   31.828">  1  9  2 -1</clus>
<clus scale="   90.610">  5  6 -1 -1</clus>
<clus scale="   90.845">  7  8 -1 -1</clus>
<clus scale="   98.433">  2  5  1 -1</clus>
<clus scale="   31.828">  1  5  2 -1</clus>
</clustering>
</event>
<event>
 9    1  0.1803370E-005  0.9992157E+02  0.7546771E-02  0.1280982E+00
          1   -1    0    0  502    0  0.00000000000E+00  0.00000000000E+00  0.35212914607E+03  0.35212914607E+03  0.00000000000E+00 0. -1.
         -1   -1    0    0    0  501 -0.00000000000E+00 -0.00000000000E+00 -0.15045782276E+03  0.15045782276E+03  0.00000000000E+00 0.  1.
         23    2    1    2    0    0 -0.18240198749E+02 -0.36585579385E+02 -0.12141715348E+03  0.15756918131E+03  0.91731740800E+02 0.  0.
         23    2    1    2    0    0 -0.54145628050E+01  0.27449669103E+02  0.23743742524E+03  0.25569189411E+03  0.90658766718E+02 0.  0.
        -13    1    4    4    0    0  0.19127011122E+02  0.53950688191E+02  0.16693018741E+03  0.17647154666E+03  0.00000000000E+00 0. -1.
         13    1    4    4    0    0 -0.24541573927E+02 -0.26501019089E+02  0.70507237826E+02  0.79220347445E+02  0.00000000000E+00 0.  1.
        -13    1    3    3    0    0 -0.21944402669E+02 -0.49222078138E+01 -0.12358653370E+03  0.12561614646E+03  0.00000000000E+00 0.  1.
         13    1    3    3    0    0  0.37042039201E+01 -0.31663371571E+02  0.21693802191E+01  0.31953034855E+02  0.00000000000E+00 0. -1.
         21    1    1    2  502  501  0.23654761554E+02  0.91359102819E+01  0.85651051558E+02  0.89325893412E+02  0.00000000000E+00 0. -1.
<scales pt_clust_5="13000.00000" pt_clust_6="13000.00000" pt_clust_7="13000.00000" pt_clust_8="13000.00000" pt_clust_9="25.35769"></scales>
<clustering>
<clus scale="   25.358">  1  9  2 -1</clus>
<clus scale="   90.659">  5  6 -1 -1</clus>
<clus scale="   91.732">  7  8 -1 -1</clus>
<clus scale="   98.937">  1  5  2 -1</clus>
<clus scale="   25.358">  1  5  2 -1</clus>
</clustering>
</event>
<event>
 9    1  0.1803370E-005  0.9438983E+02  0.7546771E-02  0.1293271E+00
         -2   -1    0    0    0  501 -0.00000000000E+00  0.00000000000E+00  0.15686890821E+03  0.15686890821E+03  0.00000000000E+00 0.  1.
          2   -1    0    0  502    0  0.00000000000E+00 -0.00000000000E+00 -0.26406546717E+03  0.26406546717E+03  0.00000000000E+00 0. -1.
         23    2    1    2    0    0 -0.19575748135E+02 -0.14196711744E+02  0.11414438503E+03  0.14837682248E+03  0.91662338374E+02 0.  0.
         23    2    1    2    0    0 -0.48263952892E+01  0.26478543923E+02 -0.66654961119E+02  0.11547776011E+03  0.90376002668E+02 0.  0.
        -13    1    4    4    0    0 -0.77475158352E+01 -0.33387216345E+02 -0.26656150909E+02  0.43419818035E+02  0.00000000000E+00 0. -1.
         13    1    4    4    0    0  0.29211205460E+01  0.59865760268E+02 -0.39998810210E+02  0.72057942074E+02  0.00000000000E+00 0.  1.
        -13    1    3    3    0    0  0.25592516755E+00 -0.32256820509E+02  0.11703456961E+03  0.12139875803E+03  0.00000000000E+00 0. -1.
         13    1    3    3    0    0 -0.19831673303E+02  0.18060108766E+02 -0.28901845799E+01  0.26978064451E+02  0.00000000000E+00 0.  1.
         21    1    1    2  502  501  0.24402143425E+02 -0.12281832179E+02 -0.15468598287E+03  0.15707979279E+03  0.00000000000E+00 0. -1.
<scales pt_clust_5="13000.00000" pt_clust_6="13000.00000" pt_clust_7="13000.00000" pt_clust_8="13000.00000" pt_clust_9="27.31864"></scales>
<clustering>
<clus scale="   27.319">  2  9  1 -1</clus>
<clus scale="   90.376">  5  6 -1 -1</clus>
<clus scale="   91.662">  7  8 -1 -1</clus>
<clus scale="   93.141">  2  5  1 -1</clus>
<clus scale="   27.319">  2  5  1 -1</clus>
</clustering>
</event>
<event>
 9    1  0.1803370E-005  0.1914320E+03  0.7546771E-02  0.1157327E+00
         -3   -1    0    0    0  501 -0.00000000000E+00  0.00000000000E+00  0.79281219834E+03  0.79281219834E+03  0.00000000000E+00 0.  1.
          3   -1    0    0  502    0  0.00000000000E+00 -0.00000000000E+00 -0.54884158228E+02  0.54884158228E+02  0.00000000000E+00 0. -1.
         23    2    1    2    0    0  0.14253797175E+03  0.61862765690E+02  0.34498301410E+03  0.38944240624E+03  0.92238997108E+02 0.  0.
         23    2    1    2    0    0 -0.16416625276E+03 -0.74615631526E+02  0.37768796665E+03  0.42887375315E+03  0.93629295478E+02 0.  0.
        -11    1    4    4    0    0 -0.70799663725E+02  0.12900422169E+02  0.10090289145E+03  0.12393710815E+03  0.00000000000E+00 0. -1.
         11    1    4    4    0    0 -0.93366589037E+02 -0.87516053695E+02  0.27678507520E+03  0.30493664499E+03  0.00000000000E+00 0.  1.
        -13    1    3    3    0    0  0.63447758088E+02  0.50546168811E+02  0.85159710353E+02  0.11761253953E+03  0.00000000000E+00 0. -1.
         13    1    3    3    0    0  0.79090213666E+02  0.11316596879E+02  0.25982330375E+03  0.27182986670E+03  0.00000000000E+00 0.  1.
         21    1    1    2  502  501  0.21628281009E+02  0.12752865836E+02  0.15257059369E+02  0.29380197191E+02  0.00000000000E+00 0.  1.
<scales pt_clust_5="13000.00000" pt_clust_6="13000.00000" pt_clust_7="13000.00000" pt_clust_8="13000.00000" pt_clust_9="25.10813"></scales>
<clustering>
<clus scale="   25.108">  2  9  1 -1</clus>
<clus scale="   92.239">  7  8 -1 -1</clus>
<clus scale="   93.629">  5  6 -1 -1</clus>
<clus scale="  190.756">  1  7  2 -1</clus>
<clus scale="   25.108">  2  5  1 -1</clus>
</clustering>
</event>
<event>
 9    1  0.1803370E-005  0.1371709E+03  0.7546771E-02  0.1217434E+00
          1   -1    0    0  502    0  0.00000000000E+00  0.00000000000E+00  0.75633009265E+02  0.75633009265E+02  0.00000000000E+00 0. -1.
         -1   -1    0    0    0  501 -0.00000000000E+00 -0.00000000000E+00 -0.44570827336E+03  0.44570827336E+03  0.00000000000E+00 0.  1.
         23    2    1    2    0    0 -0.10629647042E+03 -0.75207812982E+01 -0.34251369507E+03  0.37006661462E+03  0.90984428177E+02 0.  0.
         23    2    1    2    0    0  0.82201764304E+02  0.10069926734E+02 -0.17549294348E+02  0.12505828668E+03  0.92049246904E+02 0.  0.
        -11    1    4    4    0    0  0.72604183443E+02  0.43031149520E+02  0.40558064244E+01  0.84495543362E+02  0.00000000000E+00 0. -1.
         11    1    4    4    0    0  0.95975808616E+01 -0.32961222786E+02 -0.21605100772E+02  0.40562743316E+02  0.00000000000E+00 0.  1.
        -13    1    3    3    0    0 -0.59540185523E+02  0.41302295023E+02 -0.17195168948E+03  0.18659661514E+03  0.00000000000E+00 0. -1.
         13    1    3    3    0    0 -0.46756284901E+02 -0.48823076321E+02 -0.17056200559E+03  0.18346999949E+03  0.00000000000E+00 0.  1.
         21    1    1    2  502  501  0.24094706120E+02 -0.25491454359E+01 -0.10012274673E+02  0.26216381321E+02  0.00000000000E+00 0. -1.
<scales pt_clust_5="13000.00000" pt_clust_6="13000.00000" pt_clust_7="13000.00000" pt_clust_8="13000.00000" pt_clust_9="24.22918"></scales>
<clustering>
<clus scale="   24.229">  1  9  2 -1</clus>
<clus scale="   90.984">  7  8 -1 -1</clus>
<clus scale="   92.049">  5  6 -1 -1</clus>
<clus scale="  136.459">  2  7  1 -1</clus>
<clus scale="   24.229">  1  5  2 -1</clus>
</clustering>
</event>
<event>
 9    1  0.1803370E-005  0.1070901E+03  0.7546771E-02  0.1267659E+00
         -2   -1    0    0    0  501 -0.00000000000E+00  0.00000000000E+00  0.54350229793E+02  0.54350229793E+02  0.00000000000E+00 0.  1.
          2   -1    0    0  502    0  0.00000000000E+00 -0.00000000000E+00 -0.39950341074E+03  0.39950341074E+03  0.00000000000E+00 0. -1.
         23    2    1    2    0    0 -0.32126074264E+02  0.46137320235E+02 -0.26389999379E+02  0.11073265740E+03  0.91676345808E+02 0.  0.
         23    2    1    2    0    0  0.11808245718E+02 -0.54238397051E+02 -0.24329720838E+03  0.26454901160E+03  0.87814631755E+02 0.  0.
        -13    1    3    3    0    0 -0.13217917253E+02  0.16588582709E+02 -0.59085970488E+02  0.62777753395E+02  0.00000000000E+00 0. -1.
         13    1    3    3    0    0 -0.18908157010E+02  0.29548737526E+02  0.32695971110E+02  0.47954904001E+02  0.00000000000E+00 0.  1.
        -13    1    4    4    0    0 -0.56086115717E-01 -0.73276855123E+02 -0.22135834176E+03  0.23317164517E+03  0.00000000000E+00 0. -1.
         13    1    4    4    0    0  0.11864331833E+02  0.19038458072E+02 -0.21938866617E+02  0.31377366430E+02  0.00000000000E+00 0.  1.
         21    1    1    2  502  501  0.20317828546E+02  0.81010768166E+01 -0.75465973188E+02  0.78571971540E+02  0.00000000000E+00 0. -1.
<scales pt_clust_5="13000.00000" pt_clust_6="13000.00000" pt_clust_7="13000.00000" pt_clust_8="13000.00000" pt_clust_9="21.87331"></scales>
<clustering>
<clus scale="   21.873">  2  9  1 -1</clus>
<clus scale="   87.815">  7  8 -1 -1</clus>
<clus scale="   91.676">  5  6 -1 -1</clus>
<clus scale="  103.803">  2  7  1 -1</clus>
<clus scale="   21.873">  2  5  1 -1</clus>
</clustering>
</event>
<event>
 9    1  0.1803370E-005  0.1064229E+03  0.7546771E-02  0.1269039E+00
         -2   -1    0    0    0  501 -0.00000000000E+00  0.00000000000E+00  0.40930159664E+02  0.40930159664E+02  0.00000000000E+00 0.  1.
          2   -1    0    0  502    0  0.00000000000E+00 -0.00000000000E+00 -0.52423164130E+03  0.52423164130E+03  0.00000000000E+00 0. -1.
         23    2    1    2    0    0 -0.17591409505E+02 -0.24848363818E+02 -0.45265168526E+02  0.10560435350E+03  0.90423697803E+02 0.  0.
         23    2    1    2    0    0  0.31150494511E+02  0.43791337722E+02 -0.40385199362E+03  0.41819015669E+03  0.94332072145E+02 0.  0.
        -11    1    3    3    0    0 -0.54684129523E+02 -0.18815984388E+02 -0.27244605545E+02  0.63927019495E+02  0.00000000000E+00 0.  1.
         11    1    3    3    0    0  0.37092720018E+02 -0.60323794299E+01 -0.18020562982E+02  0.41677334009E+02  0.00000000000E+00 0. -1.
        -11    1    4    4    0    0 -0.30547682866E+02  0.27954760390E+02 -0.21303853679E+03  0.21702545407E+03  0.00000000000E+00 0.  1.
         11    1    4    4    0    0  0.61698177377E+02  0.15836577333E+02 -0.19081345683E+03  0.20116470262E+03  0.00000000000E+00 0. -1.
         21    1    1    2  502  501 -0.13559085006E+02 -0.18942973905E+02 -0.34184319487E+02  0.41367290766E+02  0.00000000000E+00 0.  1.
<scales pt_clust_5="13000.00000" pt_clust_6="13000.00000" pt_clust_7="13000.00000" pt_clust_8="13000.00000" pt_clust_9="23.29560"></scales>
<clustering>
<clus scale="   23.296">  1  9  2 -1</clus>
<clus scale="   90.424">  5  6 -1 -1</clus>
<clus scale="   94.332">  7  8 -1 -1</clus>
<clus scale="  102.975">  1  5  2 -1</clus>
<clus scale="  106.423">  2  5  1 -1</clus>
</clustering>
</event>
<event>
 9    1  0.1803370E-005  0.9493371E+02  0.7546771E-02  0.1292816E+00
         -1   -1    0    0    0  501 -0.00000000000E+00  0.00000000000E+00  0.34829077215E+02  0.34829077215E+02  0.00000000000E+00 0.  1.
          1   -1    0    0  502    0  0.00000000000E+00 -0.00000000000E+00 -0.32020288938E+03  0.32020288938E+03  0.00000000000E+00 0. -1.
         23    2    1    2    0    0 -0.12869590435E+02 -0.10860504388E+02 -0.10032877176E+03  0.13510071190E+03  0.88897485912E+02 0.  0.
         23    2    1    2    0    0  0.30676731646E+02  0.20232223456E+02 -0.15587851825E+03  0.18449667538E+03  0.91599705470E+02 0.  0.
        -11    1    3    3    0    0 -0.34511712373E+02  0.31263371613E+01 -0.34164355093E+01  0.34821032531E+02  0.00000000000E+00 0. -1.
         11    1    3    3    0    0  0.21642121937E+02 -0.13986841549E+02 -0.96912336246E+02  0.10027967937E+03  0.00000000000E+00 0.  1.
        -11    1    4    4    0    0  0.28204160992E+02  0.53591127429E+02 -0.71324300583E+02  0.93566230500E+02  0.00000000000E+00 0.  1.
         11    1    4    4    0    0  0.24725706540E+01 -0.33358903972E+02 -0.84554217668E+02  0.90930444876E+02  0.00000000000E+00 0. -1.
         21    1    1    2  502  501 -0.17807141211E+02 -0.93717190687E+01 -0.29166522163E+02  0.35434579319E+02  0.00000000000E+00 0.  1.
<scales pt_clust_5="13000.00000" pt_clust_6="13000.00000" pt_clust_7="13000.00000" pt_clust_8="13000.00000" pt_clust_9="20.12271"></scales>
<clustering>
<clus scale="   20.123">  2  9  1 -1</clus>
<clus scale="   88.897">  5  6 -1 -1</clus>
<clus scale="   91.600">  7  8 -1 -1</clus>
<clus scale="   92.329">  1  5  2 -1</clus>
<clus scale="   20.123">  2  5  1 -1</clus>
</clustering>
</event>
<event>
 9    1  0.1803370E-005  0.9766300E+02  0.7546771E-02  0.1287335E+00
         -4   -1    0    0    0  501 -0.00000000000E+00  0.00000000000E+00  0.14761935433E+03  0.14761935433E+03  0.00000000000E+00 0.  1.
          4   -1    0    0  502    0  0.00000000000E+00 -0.00000000000E+00 -0.18030559117E+03  0.18030559117E+03  0.00000000000E+00 0. -1.
         23    2    1    2    0    0 -0.11909768721E+01  0.13060159347E+02  0.10706828126E+03  0.14226280464E+03  0.92752911243E+02 0.  0.
         23    2    1    2    0    0 -0.10136457107E+02 -0.29947666591E+02 -0.11092950270E+03  0.15038636767E+03  0.96494012842E+02 0.  0.
        -11    1    3    3    0    0  0.18007028385E+02  0.47244299721E+02  0.39566087187E+02  0.64200873690E+02  0.00000000000E+00 0.  1.
         11    1    3    3    0    0 -0.19198005257E+02 -0.34184140374E+02  0.67502194070E+02  0.78061930947E+02  0.00000000000E+00 0. -1.
        -13    1    4    4    0    0 -0.28732109225E+02 -0.52022080890E+02 -0.10539769149E+03  0.12099795193E+03  0.00000000000E+00 0. -1.
         13    1    4    4    0    0  0.18595652118E+02  0.22074414299E+02 -0.55318112145E+01  0.29388415739E+02  0.00000000000E+00 0.  1.
         21    1    1    2  502  501  0.11327433979E+02  0.16887507244E+02 -0.28825015400E+02  0.35275773192E+02  0.00000000000E+00 0.  1.
<scales pt_clust_5="13000.00000" pt_clust_6="13000.00000" pt_clust_7="13000.00000" pt_clust_8="13000.00000" pt_clust_9="20.33467"></scales>
<clustering>
<clus scale="   20.335">  2  9  1 -1</clus>
<clus scale="   92.753">  5  6 -1 -1</clus>
<clus scale="   93.968">  1  5  2 -1</clus>
<clus scale="   96.494">  7  8 -1 -1</clus>
<clus scale="   20.335">  2  5  1 -1</clus>
</clustering>
</event>
<event>
 9    1  0.1803370E-005  0.1768093E+03  0.7546771E-02  0.1203487E+00
         -1   -1    0    0    0  501 -0.00000000000E+00  0.00000000000E+00  0.29159445847E+02  0.29159445847E+02  0.00000000000E+00 0.  1.
          1   -1    0    0  502    0  0.00000000000E+00 -0.00000000000E+00 -0.18157160576E+04  0.18157160576E+04  0.00000000000E+00 0. -1.
         23    2    1    2    0    0  0.19765186698E+02 -0.14418271781E+02 -0.29686771027E+03  0.30901933298E+03  0.82243307257E+02 0.  0.
         23    2    1    2    0    0 -0.14676096565E+03  0.82178417743E+02 -0.50319914763E+03  0.53892016464E+03  0.94517132313E+02 0.  0.
        -11    1    3    3    0    0  0.44144484433E+02 -0.15735626289E+02 -0.26371390251E+03  0.26784579111E+03  0.00000000000E+00 0. -1.
         11    1    3    3    0    0 -0.24379297735E+02  0.13173545082E+01 -0.33153807766E+02  0.41173541873E+02  0.00000000000E+00 0.  1.
        -13    1    4    4    0    0 -0.11846227735E+03  0.18020846774E+02 -0.36109023872E+03  0.38045265484E+03  0.00000000000E+00 0.  1.
         13    1    4    4    0    0 -0.28298688298E+02  0.64157570968E+02 -0.14210890890E+03  0.15846750980E+03  0.00000000000E+00 0. -1.
         21    1    1    2  502  501  0.12699577895E+03 -0.67760145962E+02 -0.98648975386E+03  0.99693600583E+03  0.00000000000E+00 0. -1.
<scales pt_clust_5="13000.00000" pt_clust_6="13000.00000" pt_clust_7="13000.00000" pt_clust_8="13000.00000" pt_clust_9="149.42574"></scales>
<clustering>
<clus scale="   82.243">  5  6 -1 -1</clus>
<clus scale="   85.805">  1  5  2 -1</clus>
<clus scale="   94.517">  7  8 -1 -1</clus>
<clus scale="  149.426">  2  9  1 -1</clus>
<clus scale="  149.426">  2  5  1 -1</clus>
</clustering>
</event>
<event>
 9    1  0.1803370E-005  0.1108195E+03  0.7546771E-02  0.1259836E+00
         -1   -1    0    0    0  501 -0.00000000000E+00  0.00000000000E+00  0.79200622044E+02  0.79200622044E+02  0.00000000000E+00 0.  1.
          1   -1    0    0  502    0  0.00000000000E+00 -0.00000000000E+00 -0.24967571460E+03  0.24967571460E+03  0.00000000000E+00 0. -1.
         23    2    1    2    0    0 -0.55653799962E+02 -0.49808551830E+01 -0.18740132592E+01  0.10680196642E+03  0.90999965591E+02 0.  0.
         23    2    1    2    0    0  0.69579732747E+02  0.19865682815E+02 -0.11469010612E+03  0.16443859378E+03  0.93006699320E+02 0.  0.
        -11    1    3    3    0    0 -0.40019892534E+02 -0.46032257135E+02 -0.10883989580E+02  0.61959839611E+02  0.00000000000E+00 0.  1.
         11    1    3    3    0    0 -0.15633907428E+02  0.41051401952E+02  0.90099763208E+01  0.44842126812E+02  0.00000000000E+00 0. -1.
        -11    1    4    4    0    0  0.36371915975E+02  0.45906797951E+02 -0.21947990491E+02  0.62546499953E+02  0.00000000000E+00 0.  1.
         11    1    4    4    0    0  0.33207816772E+02 -0.26041115135E+02 -0.92742115631E+02  0.10189209383E+03  0.00000000000E+00 0. -1.
         21    1    1    2  502  501 -0.13925932785E+02 -0.14884827632E+02 -0.53910973171E+02  0.57635776439E+02  0.00000000000E+00 0.  1.
<scales pt_clust_5="13000.00000" pt_clust_6="13000.00000" pt_clust_7="13000.00000" pt_clust_8="13000.00000" pt_clust_9="20.38356"></scales>
<clustering>
<clus scale="   20.384">  2  9  1 -1</clus>
<clus scale="   91.000">  5  6 -1 -1</clus>
<clus scale="   93.007">  7  8 -1 -1</clus>
<clus scale="  109.141">  1  5  2 -1</clus>
<clus scale="   20.384">  2  5  1 -1</clus>
</clustering>
</event>
<event>
 9    1  0.1803370E-005  0.2271450E+03  0.7546771E-02  0.1129858E+00
         -2   -1    0    0    0  501 -0.00000000000E+00  0.00000000000E+00  0.84645063002E+02  0.84645063002E+02  0.00000000000E+00 0.  1.
          2   -1    0    0  502    0  0.00000000000E+00 -0.00000000000E+00 -0.13496858180E+04  0.13496858180E+04  0.00000000000E+00 0. -1.
         23    2    1    2    0    0 -0.11166861831E+02  0.18872611613E+03 -0.13578692794E+03  0.25639892188E+03  0.10751777353E+03 0.  0.
         23    2    1    2    0    0  0.39457758783E+02 -0.24220570398E+03 -0.76639565229E+03  0.81006446101E+03  0.92852664921E+02 0.  0.
        -11    1    3    3    0    0 -0.61130520406E+01  0.38601984764E+02  0.16566788151E+02  0.42449276821E+02  0.00000000000E+00 0. -1.
         11    1    3    3    0    0 -0.50538097899E+01  0.15012413137E+03 -0.15235371609E+03  0.21394964505E+03  0.00000000000E+00 0.  1.
        -13    1    4    4    0    0 -0.29377056386E+02 -0.75016850396E+02 -0.27016021868E+03  0.28191680163E+03  0.00000000000E+00 0.  1.
         13    1    4    4    0    0  0.68834815169E+02 -0.16718885359E+03 -0.49623543360E+03  0.52814765938E+03  0.00000000000E+00 0. -1.
         21    1    1    2  502  501 -0.28290896952E+02  0.53479587848E+02 -0.36285817477E+03  0.36786749811E+03  0.00000000000E+00 0.  1.
<scales pt_clust_5="13000.00000" pt_clust_6="13000.00000" pt_clust_7="13000.00000" pt_clust_8="13000.00000" pt_clust_9="60.50158"></scales>
<clustering>
<clus scale="   60.502">  2  9  1 -1</clus>
<clus scale="   92.853">  7  8 -1 -1</clus>
<clus scale="  107.518">  5  6 -1 -1</clus>
<clus scale="  220.582">  2  7  1 -1</clus>
<clus scale="   60.502">  2  5  1 -1</clus>
</clustering>
</event>
<event>
 9    1  0.1803370E-005  0.1022643E+03  0.7546771E-02  0.1276213E+00
         -2   -1    0    0    0  501 -0.00000000000E+00  0.00000000000E+00  0.43694441837E+02  0.43694441837E+02  0.00000000000E+00 0.  1.
          2   -1    0    0  502    0  0.00000000000E+00 -0.00000000000E+00 -0.53851508847E+03  0.53851508847E+03  0.00000000000E+00 0. -1.
         23    2    1    2    0    0 -0.10705959280E+02  0.71024222549E+02 -0.11570666583E+03  0.16418450488E+03  0.91703115390E+02 0.  0.
         23    2    1    2    0    0 -0.24295559524E+02 -0.17198894842E+02 -0.13210394168E+03  0.16280701735E+03  0.90380292619E+02 0.  0.
        -11    1    4    4    0    0 -0.40954604741E+02 -0.45814543422E+02 -0.76937472921E+02  0.98466373844E+02  0.00000000000E+00 0.  1.
         11    1    4    4    0    0  0.16659045216E+02  0.28615648580E+02 -0.55166468762E+02  0.64340643507E+02  0.00000000000E+00 0. -1.
        -11    1    3    3    0    0 -0.32997448568E+02  0.49214874035E+02 -0.11888921434E+03  0.13283666935E+03  0.00000000000E+00 0.  1.
         11    1    3    3    0    0  0.22291489288E+02  0.21809348514E+02  0.31825485083E+01  0.31347835528E+02  0.00000000000E+00 0. -1.
         21    1    1    2  502  501  0.35001518804E+02 -0.53825327707E+02 -0.24701003912E+03  0.25521800807E+03  0.00000000000E+00 0. -1.
<scales pt_clust_5="13000.00000" pt_clust_6="13000.00000" pt_clust_7="13000.00000" pt_clust_8="13000.00000" pt_clust_9="64.20492"></scales>
<clustering>
<clus scale="   64.205">  2  9  1 -1</clus>
<clus scale="   90.380">  5  6 -1 -1</clus>
<clus scale="   91.703">  7  8 -1 -1</clus>
<clus scale="  101.080">  2  5  1 -1</clus>
<clus scale="   64.205">  2  5  1 -1</clus>
</clustering>
</event>
<event>
 9    1  0.1803370E-005  0.1399084E+03  0.7546771E-02  0.1217368E+00
         -2   -1    0    0    0  501 -0.00000000000E+00  0.00000000000E+00  0.15969791154E+03  0.15969791154E+03  0.00000000000E+00 0.  1.
          2   -1    0    0  502    0  0.00000000000E+00 -0.00000000000E+00 -0.34976830944E+03  0.34976830944E+03  0.00000000000E+00 0. -1.
         23    2    1    2    0    0 -0.93468107049E+02  0.32937100061E+02  0.90429339579E+02  0.16277570802E+03  0.92180942007E+02 0.  0.
         23    2    1    2    0    0  0.20884323673E+02 -0.61783526259E+02 -0.16560831718E+03  0.20776405627E+03  0.10717476038E+03 0.  0.
        -11    1    4    4    0    0 -0.27204513158E+02  0.17322484336E+02 -0.34065587567E+02  0.46910747766E+02  0.00000000000E+00 0.  1.
         11    1    4    4    0    0  0.48088836830E+02 -0.79106010595E+02 -0.13154272962E+03  0.16085330850E+03  0.00000000000E+00 0. -1.
        -11    1    3    3    0    0 -0.81064826181E+02 -0.64010920990E+01  0.24359099101E+02  0.84887253064E+02  0.00000000000E+00 0. -1.
         11    1    3    3    0    0 -0.12403280868E+02  0.39338192160E+02  0.66070240479E+02  0.77888454957E+02  0.00000000000E+00 0.  1.
         21    1    1    2  502  501  0.72583783377E+02  0.28846426198E+02 -0.11489142029E+03  0.13892645670E+03  0.00000000000E+00 0.  1.
<scales pt_clust_5="13000.00000" pt_clust_6="13000.00000" pt_clust_7="13000.00000" pt_clust_8="13000.00000" pt_clust_9="78.10584"></scales>
<clustering>
<clus scale="   78.106">  2  9  1 -1</clus>
<clus scale="   92.181">  7  8 -1 -1</clus>
<clus scale="  107.175">  5  6 -1 -1</clus>
<clus scale="  128.784">  1  7  2 -1</clus>
<clus scale="   78.106">  2  5  1 -1</clus>
</clustering>
</event>
<event>
 9    1  0.1803370E-005  0.1077126E+03  0.7546771E-02  0.1266068E+00
         -2   -1    0    0    0  501 -0.00000000000E+00  0.00000000000E+00  0.22511300001E+02  0.22511300001E+02  0.00000000000E+00 0.  1.
          2   -1    0    0  502    0  0.00000000000E+00 -0.00000000000E+00 -0.95480331062E+03  0.95480331062E+03  0.00000000000E+00 0. -1.
         23    2    1    2    0    0 -0.29473993731E+02 -0.24672725949E+02 -0.20701786532E+03  0.22894698064E+03  0.89904747752E+02 0.  0.
         23    2    1    2    0    0  0.73893081943E+02  0.42849740386E+02 -0.39571247814E+03  0.41532956652E+03  0.92811613849E+02 0.  0.
        -11    1    4    4    0    0  0.65318244374E+02  0.68012654729E+02 -0.34968718370E+03  0.36217857570E+03  0.00000000000E+00 0. -1.
         11    1    4    4    0    0  0.85748375693E+01 -0.25162914343E+02 -0.46025294434E+02  0.53150990821E+02  0.00000000000E+00 0.  1.
        -13    1    3    3    0    0  0.20983490916E+02 -0.24679137698E+02 -0.14704820412E+03  0.15057403848E+03  0.00000000000E+00 0. -1.
         13    1    3    3    0    0 -0.50457484647E+02  0.64117489748E-02 -0.59969661199E+02  0.78372942157E+02  0.00000000000E+00 0.  1.
         21    1    1    2  502  501 -0.44419088213E+02 -0.18177014437E+02 -0.32956166717E+03  0.33303806346E+03  0.00000000000E+00 0.  1.
<scales pt_clust_5="13000.00000" pt_clust_6="13000.00000" pt_clust_7="13000.00000" pt_clust_8="13000.00000" pt_clust_9="47.99437"></scales>
<clustering>
<clus scale="   47.994">  2  9  1 -1</clus>
<clus scale="   89.905">  7  8 -1 -1</clus>
<clus scale="   92.812">  5  6 -1 -1</clus>
<clus scale="  105.218">  1  7  2 -1</clus>
<clus scale="   47.994">  2  5  1 -1</clus>
</clustering>
</event>
<event>
 9    1  0.1803370E-005  0.1028859E+03  0.7546771E-02  0.1277372E+00
         -2   -1    0    0    0  501 -0.00000000000E+00  0.00000000000E+00  0.13336990494E+03  0.13336990494E+03  0.00000000000E+00 0.  1.
          2   -1    0    0  502    0  0.00000000000E+00 -0.00000000000E+00 -0.11240031637E+03  0.11240031637E+03  0.00000000000E+00 0. -1.
         23    2    1    2    0    0 -0.16856904489E+02 -0.65830379094E+02  0.18841102527E+02  0.10725801266E+03  0.80817696670E+02 0.  0.
         23    2    1    2    0    0  0.29482927576E+02  0.36047267210E+02 -0.17273078988E+02  0.10079124713E+03  0.87703293828E+02 0.  0.
        -11    1    3    3    0    0  0.26505008946E+02 -0.16109998649E+02  0.26560879792E+02  0.40835375485E+02  0.00000000000E+00 0. -1.
         11    1    3    3    0    0 -0.43361913435E+02 -0.49720380446E+02 -0.77197772652E+01  0.66422637176E+02  0.00000000000E+00 0.  1.
        -13    1    4    4    0    0  0.25527107666E+02  0.62966118511E+02 -0.25176849912E+02  0.72458533504E+02  0.00000000000E+00 0. -1.
         13    1    4    4    0    0  0.39558199097E+01 -0.26918851301E+02  0.79037709238E+01  0.28332713624E+02  0.00000000000E+00 0.  1.
         21    1    1    2  502  501 -0.12626023087E+02  0.29783111884E+02  0.19401565032E+02  0.37720961522E+02  0.00000000000E+00 0. -1.
<scales pt_clust_5="13000.00000" pt_clust_6="13000.00000" pt_clust_7="13000.00000" pt_clust_8="13000.00000" pt_clust_9="32.34888"></scales>
<clustering>
<clus scale="   32.349">  1  9  2 -1</clus>
<clus scale="   80.818">  5  6 -1 -1</clus>
<clus scale="   87.703">  7  8 -1 -1</clus>
<clus scale="   97.083">  1  5  2 -1</clus>
<clus scale="  102.886">  2  5  1 -1</clus>
</clustering>
</event>
<event>
 9    1  0.1803370E-005  0.9902802E+02  0.7546771E-02  0.1283099E+00
         -1   -1    0    0    0  501 -0.00000000000E+00  0.00000000000E+00  0.34727669784E+03  0.34727669784E+03  0.00000000000E+00 0.  1.
          1   -1    0    0  502    0  0.00000000000E+00 -0.00000000000E+00 -0.17558304558E+03  0.17558304558E+03  0.00000000000E+00 0. -1.
         23    2    1    2    0    0 -0.23901105387E+02  0.20845121114E+02  0.18609591131E+03  0.20865614529E+03  0.88881476399E+02 0.  0.
         23    2    1    2    0    0  0.48043542342E+02 -0.27782360216E+02  0.12991093056E+03  0.16772056416E+03  0.90406284426E+02 0.  0.
        -11    1    4    4    0    0  0.26184993256E+02 -0.89020279727E+01  0.13550637663E+03  0.13829995691E+03  0.00000000000E+00 0.  1.
         11    1    4    4    0    0  0.21858549086E+02 -0.18880332243E+02 -0.55954460790E+01  0.29420607243E+02  0.00000000000E+00 0. -1.
        -13    1    3    3    0    0  0.32946783005E+02  0.14031153407E+02  0.89034512046E+02  0.95966182124E+02  0.00000000000E+00 0.  1.
         13    1    3    3    0    0 -0.56847888392E+02  0.68139677066E+01  0.97061399266E+02  0.11268996316E+03  0.00000000000E+00 0. -1.
         21    1    1    2  502  501 -0.24142436955E+02  0.69372391021E+01 -0.14431318961E+03  0.14648303398E+03  0.00000000000E+00 0.  1.
<scales pt_clust_5="13000.00000" pt_clust_6="13000.00000" pt_clust_7="13000.00000" pt_clust_8="13000.00000" pt_clust_9="25.11937"></scales>
<clustering>
<clus scale="   25.119">  2  9  1 -1</clus>
<clus scale="   88.881">  7  8 -1 -1</clus>
<clus scale="   90.406">  5  6 -1 -1</clus>
<clus scale="   97.638">  1  7  2 -1</clus>
<clus scale="   25.119">  2  5  1 -1</clus>
</clustering>
</event>
<event>
 9    1  0.1803370E-005  0.1633896E+03  0.7546771E-02  0.1185084E+00
          2   -1    0    0  502    0  0.00000000000E+00  0.00000000000E+00  0.44793434885E+03  0.44793434885E+03  0.00000000000E+00 0. -1.
         -2   -1    0    0    0  501 -0.00000000000E+00 -0.00000000000E+00 -0.10256222948E+03  0.10256222948E+03  0.00000000000E+00 0.  1.
         23    2    1    2    0    0  0.13479334048E+03 -0.67779743364E+02  0.45590251649E+02  0.18204355327E+03  0.91093611144E+02 0.  0.
         23    2    1    2    0    0 -0.95375941647E+02  0.90232152440E+02  0.27043046233E+03  0.31442204318E+03  0.92142144006E+02 0.  0.
        -11    1    4    4    0    0 -0.59108315880E+02  0.69374374395E+02  0.86014819165E+02  0.12532017373E+03  0.00000000000E+00 0. -1.
         11    1    4    4    0    0 -0.36267625768E+02  0.20857778045E+02  0.18441564316E+03  0.18910186944E+03  0.00000000000E+00 0.  1.
        -13    1    3    3    0    0  0.10559663714E+03 -0.77701646905E+02  0.64249943860E+02  0.14600085957E+03  0.00000000000E+00 0.  1.
         13    1    3    3    0    0  0.29196703341E+02  0.99219035413E+01 -0.18659692211E+02  0.36042693702E+02  0.00000000000E+00 0. -1.
         21    1    1    2  502  501 -0.39417398837E+02 -0.22452409076E+02  0.29351405393E+02  0.54030981880E+02  0.00000000000E+00 0. -1.
<scales pt_clust_5="13000.00000" pt_clust_6="13000.00000" pt_clust_7="13000.00000" pt_clust_8="13000.00000" pt_clust_9="45.36344"></scales>
<clustering>
<clus scale="   45.363">  2  9  1 -1</clus>
<clus scale="   91.094">  7  8 -1 -1</clus>
<clus scale="   92.142">  5  6 -1 -1</clus>
<clus scale="  162.801">  2  7  1 -1</clus>
<clus scale="  163.390">  1  5  2 -1</clus>
</clustering>
</event>
<event>
 9    1  0.1803370E-005  0.8972007E+02  0.7546771E-02  0.1304110E+00
          1   -1    0    0  502    0  0.00000000000E+00  0.00000000000E+00  0.68238866960E+03  0.68238866960E+03  0.00000000000E+00 0. -1.
         -1   -1    0    0    0  501 -0.00000000000E+00 -0.00000000000E+00 -0.25394620025E+02  0.25394620025E+02  0.00000000000E+00 0.  1.
         23    2    1    2    0    0 -0.39134008858E+02  0.14907909947E+02  0.14149591763E+03  0.17264194946E+03  0.89612675331E+02 0.  0.
         23    2    1    2    0    0 -0.77312035038E+01  0.14797922153E+01  0.39320519974E+03  0.40315472653E+03  0.88664779505E+02 0.  0.
        -13    1    4    4    0    0  0.79685405907E+00 -0.43329672314E+02  0.19914198859E+03  0.20380291239E+03  0.00000000000E+00 0.  1.
         13    1    4    4    0    0 -0.85280575628E+01  0.44809464529E+02  0.19406321115E+03  0.19935181414E+03  0.00000000000E+00 0. -1.
        -13    1    3    3    0    0 -0.17128712620E+02 -0.14747025768E+02 -0.36295910515E+01  0.22891952652E+02  0.00000000000E+00 0.  1.
         13    1    3    3    0    0 -0.22005296238E+02  0.29654935715E+02  0.14512550868E+03  0.14974999681E+03  0.00000000000E+00 0. -1.
         21    1    1    2  502  501  0.46865212361E+02 -0.16387702163E+02  0.12229293221E+03  0.13198661364E+03  0.00000000000E+00 0. -1.
<scales pt_clust_5="13000.00000" pt_clust_6="13000.00000" pt_clust_7="13000.00000" pt_clust_8="13000.00000" pt_clust_9="49.64781"></scales>
<clustering>
<clus scale="   49.648">  2  9  1 -1</clus>
<clus scale="   88.665">  5  6 -1 -1</clus>
<clus scale="   88.773">  1  5  2 -1</clus>
<clus scale="   89.613">  7  8 -1 -1</clus>
<clus scale="   88.773">  1  5  2 -1</clus>
</clustering>
</event>
<event>
 9    1  0.1803370E-005  0.9118490E+02  0.7546771E-02  0.1301427E+00
          1   -1    0    0  502    0  0.00000000000E+00  0.00000000000E+00  0.59336330229E+03  0.59336330229E+03  0.00000000000E+00 0. -1.
         -1   -1    0    0    0  501 -0.00000000000E+00 -0.00000000000E+00 -0.26998145807E+02  0.26998145807E+02  0.00000000000E+00 0.  1.
         23    2    1    2    0    0  0.10712966046E+02 -0.26479584590E+02  0.13003905687E+03  0.16054947603E+03  0.89722025734E+02 0.  0.
         23    2    1    2    0    0 -0.12448279267E+02 -0.73956547362E+01  0.17322283291E+03  0.19453123002E+03  0.87330374119E+02 0.  0.
        -13    1    4    4    0    0 -0.12771371290E+02 -0.46638485179E+02  0.81498977236E+02  0.94764653300E+02  0.00000000000E+00 0. -1.
         13    1    4    4    0    0  0.32309202296E+00  0.39242830443E+02  0.91723855677E+02  0.99766576718E+02  0.00000000000E+00 0.  1.
        -13    1    3    3    0    0  0.47753678488E+02 -0.67753751606E+01  0.46153064667E+02  0.66756459582E+02  0.00000000000E+00 0.  1.
         13    1    3    3    0    0 -0.37040712442E+02 -0.19704209429E+02  0.83885992202E+02  0.93793016452E+02  0.00000000000E+00 0. -1.
         21    1    1    2  502  501  0.17353132214E+01  0.33875239326E+02  0.26310326670E+03  0.26528074204E+03  0.00000000000E+00 0.  1.
<scales pt_clust_5="13000.00000" pt_clust_6="13000.00000" pt_clust_7="13000.00000" pt_clust_8="13000.00000" pt_clust_9="33.91966"></scales>
<clustering>
<clus scale="   33.920">  1  9  2 -1</clus>
<clus scale="   87.330">  5  6 -1 -1</clus>
<clus scale="   88.833">  1  5  2 -1</clus>
<clus scale="   89.722">  7  8 -1 -1</clus>
<clus scale="   33.920">  1  5  2 -1</clus>
</clustering>
</event>
<event>
 9    1  0.1803370E-005  0.9254139E+02  0.7546771E-02  0.1298293E+00
          1   -1    0    0  502    0  0.00000000000E+00  0.00000000000E+00  0.15813559503E+03  0.15813559503E+03  0.00000000000E+00 0. -1.
         -1   -1    0    0    0  501 -0.00000000000E+00 -0.00000000000E+00 -0.15290233887E+03  0.15290233887E+03  0.00000000000E+00 0.  1.
         23    2    1    2    0    0 -0.28171101762E+01 -0.16254447467E+02 -0.10804242089E+03  0.14266181771E+03  0.91690164957E+02 0.  0.
         23    2    1    2    0    0  0.95908841458E+01 -0.90335968018E+01  0.57909092433E+02  0.10713211330E+03  0.89164094706E+02 0.  0.
        -13    1    3    3    0    0 -0.39455409831E+02 -0.32672402945E+02 -0.46517947503E+02  0.69196349029E+02  0.00000000000E+00 0.  1.
         13    1    3    3    0    0  0.36638299655E+02  0.16417955478E+02 -0.61524473384E+02  0.73465468684E+02  0.00000000000E+00 0. -1.
        -13    1    4    4    0    0 -0.90036533183E+01 -0.32420439727E+02 -0.81586680085E+01  0.34622457290E+02  0.00000000000E+00 0.  1.
         13    1    4    4    0    0  0.18594537464E+02  0.23386842925E+02  0.66067760442E+02  0.72509656014E+02  0.00000000000E+00 0. -1.
         21    1    1    2  502  501 -0.67737739695E+01  0.25288044269E+02  0.55366584612E+02  0.61244002877E+02  0.00000000000E+00 0.  1.
<scales pt_clust_5="13000.00000" pt_clust_6="13000.00000" pt_clust_7="13000.00000" pt_clust_8="13000.00000" pt_clust_9="26.17956"></scales>
<clustering>
<clus scale="   26.180">  1  9  2 -1</clus>
<clus scale="   89.164">  7  8 -1 -1</clus>
<clus scale="   90.039">  1  7  2 -1</clus>
<clus scale="   91.690">  5  6 -1 -1</clus>
<clus scale="   26.180">  1  5  2 -1</clus>
</clustering>
</event>
<event>
 9    1  0.1803370E-005  0.1082397E+03  0.7546771E-02  0.1264274E+00
         -1   -1    0    0    0  501 -0.00000000000E+00  0.00000000000E+00  0.71357221090E+02  0.71357221090E+02  0.00000000000E+00 0.  1.
          1   -1    0    0  502    0  0.00000000000E+00 -0.00000000000E+00 -0.30184795109E+03  0.30184795109E+03  0.00000000000E+00 0. -1.
         23    2    1    2    0    0 -0.26581059348E+02  0.53407818761E+02  0.92653855171E+00  0.10931938614E+03  0.91601975369E+02 0.  0.
         23    2    1    2    0    0  0.64646143134E+01 -0.52684013301E+02 -0.17612032159E+03  0.20503897135E+03  0.90582645146E+02 0.  0.
        -11    1    3    3    0    0 -0.43809027192E+02  0.65420390191E+02  0.19686974421E+02  0.81158088187E+02  0.00000000000E+00 0.  1.
         11    1    3    3    0    0  0.17227967844E+02 -0.12012571430E+02 -0.18760435870E+02  0.28161297953E+02  0.00000000000E+00 0. -1.
        -13    1    4    4    0    0 -0.31237193527E+02 -0.54398271071E+02 -0.13701570623E+03  0.15069252771E+03  0.00000000000E+00 0.  1.
         13    1    4    4    0    0  0.37701807840E+02  0.17142577691E+01 -0.39104615362E+02  0.54346443644E+02  0.00000000000E+00 0. -1.
         21    1    1    2  502  501  0.20116445035E+02 -0.72380545990E+00 -0.55296946966E+02  0.58846814688E+02  0.00000000000E+00 0. -1.
<scales pt_clust_5="13000.00000" pt_clust_6="13000.00000" pt_clust_7="13000.00000" pt_clust_8="13000.00000" pt_clust_9="20.12946"></scales>
<clustering>
<clus scale="   20.129">  2  9  1 -1</clus>
<clus scale="   90.583">  7  8 -1 -1</clus>
<clus scale="   91.602">  5  6 -1 -1</clus>
<clus scale="  107.378">  2  7  1 -1</clus>
<clus scale="   20.129">  2  5  1 -1</clus>
</clustering>
</event>
<event>
 9    1  0.1803370E-005  0.1014732E+03  0.7546771E-02  0.1278254E+00
          1   -1    0    0  502    0  0.00000000000E+00  0.00000000000E+00  0.23971022889E+03  0.23971022889E+03  0.00000000000E+00 0. -1.
         -1   -1    0    0    0  501 -0.00000000000E+00 -0.00000000000E+00 -0.62092806835E+02  0.62092806835E+02  0.00000000000E+00 0.  1.
         23    2    1    2    0    0  0.16622468912E+02  0.46626641015E+02  0.38034641700E+02  0.11255058793E+03  0.93651752510E+02 0.  0.
         23    2    1    2    0    0 -0.15008831297E+02 -0.20835528266E+02  0.79735113917E+02  0.12406404008E+03  0.91514006546E+02 0.  0.
        -13    1    3    3    0    0 -0.17909441503E+02  0.61880310149E+02  0.38014180637E+02  0.74799724656E+02  0.00000000000E+00 0. -1.
         13    1    3    3    0    0  0.34531910415E+02 -0.15253669134E+02  0.20461062417E-01  0.37750863270E+02  0.00000000000E+00 0.  1.
        -13    1    4    4    0    0 -0.25501782525E+02  0.31029015915E+02  0.47077613630E+02  0.61882489007E+02  0.00000000000E+00 0. -1.
         13    1    4    4    0    0  0.10492951228E+02 -0.51864544181E+02  0.32657500286E+02  0.62181551071E+02  0.00000000000E+00 0.  1.
         21    1    1    2  502  501 -0.16136376157E+01 -0.25791112749E+02  0.59847666439E+02  0.65188407722E+02  0.00000000000E+00 0. -1.
<scales pt_clust_5="13000.00000" pt_clust_6="13000.00000" pt_clust_7="13000.00000" pt_clust_8="13000.00000" pt_clust_9="25.84154"></scales>
<clustering>
<clus scale="   25.842">  1  9  2 -1</clus>
<clus scale="   91.514">  7  8 -1 -1</clus>
<clus scale="   93.652">  5  6 -1 -1</clus>
<clus scale="   99.504">  1  7  2 -1</clus>
<clus scale="   25.842">  1  5  2 -1</clus>
</clustering>
</event>
<event>
 9    1  0.1803370E-005  0.4574401E+03  0.7546771E-02  0.1025587E+00
          2   -1    0    0  502    0  0.00000000000E+00  0.00000000000E+00  0.30458440758E+04  0.30458440758E+04  0.00000000000E+00 0. -1.
         -2   -1    0    0    0  501 -0.00000000000E+00 -0.00000000000E+00 -0.77286029759E+02  0.77286029759E+02  0.00000000000E+00 0.  1.
         23    2    1    2    0    0  0.38830225506E+03  0.23580499899E+03  0.10795583893E+04  0.11747891348E+04  0.91107390532E+02 0.  0.
         23    2    1    2    0    0 -0.39030812134E+03 -0.21362512423E+03  0.18288712453E+04  0.18842208006E+04  0.86843943414E+02 0.  0.
        -11    1    3    3    0    0  0.30541797784E+03  0.13872190182E+03  0.76477095321E+03  0.83510389659E+03  0.00000000000E+00 0.  1.
         11    1    3    3    0    0  0.82884277226E+02  0.97083097171E+02  0.31478743606E+03  0.33968523823E+03  0.00000000000E+00 0. -1.
        -13    1    4    4    0    0 -0.24025627543E+02 -0.40351012924E+02  0.23532781487E+03  0.23996794676E+03  0.00000000000E+00 0.  1.
         13    1    4    4    0    0 -0.36628249380E+03 -0.17327411130E+03  0.15935434304E+04  0.16442528539E+04  0.00000000000E+00 0. -1.
         21    1    1    2  502  501  0.20058662788E+01 -0.22179874760E+02  0.60128411510E+02  0.64120170107E+02  0.00000000000E+00 0. -1.
<scales pt_clust_5="13000.00000" pt_clust_6="13000.00000" pt_clust_7="13000.00000" pt_clust_8="13000.00000" pt_clust_9="22.27039"></scales>
<clustering>
<clus scale="   22.270">  2  9  1 -1</clus>
<clus scale="   86.844">  7  8 -1 -1</clus>
<clus scale="   91.107">  5  6 -1 -1</clus>
<clus scale="  456.610">  1  7  2 -1</clus>
<clus scale="  456.610">  1  5  2 -1</clus>
</clustering>
</event>
<event>
 9    1  0.1803370E-005  0.1386704E+03  0.7546771E-02  0.1216059E+00
         -1   -1    0    0    0  501 -0.00000000000E+00  0.00000000000E+00  0.13083119949E+03  0.13083119949E+03  0.00000000000E+00 0.  1.
          1   -1    0    0  502    0  0.00000000000E+00 -0.00000000000E+00 -0.22686892995E+03  0.22686892995E+03  0.00000000000E+00 0. -1.
         23    2    1    2    0    0 -0.77711197242E+02 -0.94703187173E+01 -0.36805903664E+02  0.12589021134E+03  0.91460120559E+02 0.  0.
         23    2    1    2    0    0  0.12464397431E+03 -0.22673884721E+02 -0.14171172900E+02  0.15923996628E+03  0.95427036725E+02 0.  0.
        -11    1    3    3    0    0 -0.54454085602E+02  0.38362038762E+02 -0.26645315864E+02  0.71741663727E+02  0.00000000000E+00 0. -1.
         11    1    3    3    0    0 -0.23257111640E+02 -0.47832357480E+02 -0.10160587799E+02  0.54148547610E+02  0.00000000000E+00 0.  1.
        -13    1    4    4    0    0  0.10346435460E+03 -0.19681099626E+02  0.30554816636E+02  0.10966227781E+03  0.00000000000E+00 0.  1.
         13    1    4    4    0    0  0.21179619715E+02 -0.29927850953E+01 -0.44725989536E+02  0.49577688469E+02  0.00000000000E+00 0. -1.
         21    1    1    2  502  501 -0.46932777070E+02  0.32144203438E+02 -0.45060653901E+02  0.72569951827E+02  0.00000000000E+00 0. -1.
<scales pt_clust_5="13000.00000" pt_clust_6="13000.00000" pt_clust_7="13000.00000" pt_clust_8="13000.00000" pt_clust_9="56.88528"></scales>
<clustering>
<clus scale="   56.885">  2  9  1 -1</clus>
<clus scale="   91.460">  5  6 -1 -1</clus>
<clus scale="   95.427">  7  8 -1 -1</clus>
<clus scale="  135.971">  1  5  2 -1</clus>
<clus scale="   56.885">  2  5  1 -1</clus>
</clustering>
</event>
<event>
 9    1  0.1803370E-005  0.1202561E+03  0.7546771E-02  0.1243294E+00
          1   -1    0    0  502    0  0.00000000000E+00  0.00000000000E+00  0.92422982770E+02  0.92422982770E+02  0.00000000000E+00 0. -1.
         -1   -1    0    0    0  501 -0.00000000000E+00 -0.00000000000E+00 -0.30426010955E+03  0.30426010955E+03  0.00000000000E+00 0.  1.
         23    2    1    2    0    0 -0.53492088127E+01  0.67921082052E+02 -0.11612014816E+03  0.16086692914E+03  0.88047672665E+02 0.  0.
         23    2    1    2    0    0 -0.19483758131E+01 -0.93326082221E+02 -0.13580799815E+03  0.18779576519E+03  0.90054890321E+02 0.  0.
        -11    1    3    3    0    0 -0.17271474127E+02  0.23331113320E+02  0.65867439244E+01  0.29766253758E+02  0.00000000000E+00 0. -1.
         11    1    3    3    0    0  0.11922265315E+02  0.44589968732E+02 -0.12270689208E+03  0.13110067539E+03  0.00000000000E+00 0.  1.
        -11    1    4    4    0    0 -0.22224457806E+02 -0.12414748150E+01  0.24799716699E+00  0.22260487126E+02  0.00000000000E+00 0. -1.
         11    1    4    4    0    0  0.20276081993E+02 -0.92084607406E+02 -0.13605599532E+03  0.16553527806E+03  0.00000000000E+00 0.  1.
         21    1    1    2  502  501  0.72975846258E+01  0.25405000169E+02  0.40091019534E+02  0.48020397981E+02  0.00000000000E+00 0. -1.
<scales pt_clust_5="13000.00000" pt_clust_6="13000.00000" pt_clust_7="13000.00000" pt_clust_8="13000.00000" pt_clust_9="26.43234"></scales>
<clustering>
<clus scale="   26.432">  1  9  2 -1</clus>
<clus scale="   88.048">  5  6 -1 -1</clus>
<clus scale="   90.055">  7  8 -1 -1</clus>
<clus scale="  118.760">  2  5  1 -1</clus>
<clus scale="   26.432">  1  5  2 -1</clus>
</clustering>
</event>
<event>
 9    1  0.1803370E-005  0.1248140E+03  0.7546771E-02  0.1236175E+00
          2   -1    0    0  502    0  0.00000000000E+00  0.00000000000E+00  0.92665115055E+03  0.92665115055E+03  0.00000000000E+00 0. -1.
         -2   -1    0    0    0  501 -0.00000000000E+00 -0.00000000000E+00 -0.26656584868E+02  0.26656584868E+02  0.00000000000E+00 0.  1.
         23    2    1    2    0    0  0.66563666461E+02  0.28801481486E+02  0.22588338956E+03  0.25359301528E+03  0.89587190445E+02 0.  0.
         23    2    1    2    0    0 -0.10390357354E+03 -0.20552051450E+02  0.42379479124E+03  0.44649423460E+03  0.92394464291E+02 0.  0.
        -11    1    3    3    0    0  0.17691271307E+02 -0.26464066540E+02  0.27965661328E+02  0.42372232792E+02  0.00000000000E+00 0.  1.
         11    1    3    3    0    0  0.48872395154E+02  0.55265548026E+02  0.19791772824E+03  0.21122078249E+03  0.00000000000E+00 0. -1.
        -13    1    4    4    0    0 -0.31411464068E+02 -0.44969014105E+02  0.10289134431E+03  0.11659983293E+03  0.00000000000E+00 0.  1.
         13    1    4    4    0    0 -0.72492109475E+02  0.24416962655E+02  0.32090344694E+03  0.32989440168E+03  0.00000000000E+00 0. -1.
         21    1    1    2  502  501  0.37339907082E+02 -0.82494300358E+01  0.25031638488E+03  0.25322048554E+03  0.00000000000E+00 0.  1.
<scales pt_clust_5="13000.00000" pt_clust_6="13000.00000" pt_clust_7="13000.00000" pt_clust_8="13000.00000" pt_clust_9="38.24032"></scales>
<clustering>
<clus scale="   38.240">  1  9  2 -1</clus>
<clus scale="   89.587">  5  6 -1 -1</clus>
<clus scale="   92.394">  7  8 -1 -1</clus>
<clus scale="  122.750">  2  5  1 -1</clus>
<clus scale="   38.240">  1  5  2 -1</clus>
</clustering>
</event>
<event>
 9    1  0.1803370E-005  0.1170251E+03  0.7546771E-02  0.1249498E+00
          1   -1    0    0  502    0  0.00000000000E+00  0.00000000000E+00  0.33510318873E+03  0.33510318873E+03  0.00000000000E+00 0. -1.
         -1   -1    0    0    0  501 -0.00000000000E+00 -0.00000000000E+00 -0.62492059449E+02  0.62492059449E+02  0.00000000000E+00 0.  1.
         23    2    1    2    0    0 -0.15566627647E+02 -0.64755053409E+02  0.45481096348E+02  0.11759380797E+03  0.85581754532E+02 0.  0.
         23    2    1    2    0    0  0.15227803113E+02  0.95765026825E+02  0.19233824994E+03  0.23339455856E+03  0.89867631694E+02 0.  0.
        -11    1    4    4    0    0  0.51860938454E+02  0.42496207687E+02  0.87664830028E+02  0.11036578740E+03  0.00000000000E+00 0. -1.
         11    1    4    4    0    0 -0.36633135341E+02  0.53268819138E+02  0.10467341991E+03  0.12302877116E+03  0.00000000000E+00 0.  1.
        -13    1    3    3    0    0  0.13714881532E+02 -0.64148120596E+02  0.25796606166E+01  0.65648564343E+02  0.00000000000E+00 0.  1.
         13    1    3    3    0    0 -0.29281509179E+02 -0.60693281310E+00  0.42901435731E+02  0.51945243623E+02  0.00000000000E+00 0. -1.
         21    1    1    2  502  501  0.33882453420E+00 -0.31009973416E+02  0.34791782994E+02  0.46606881651E+02  0.00000000000E+00 0.  1.
<scales pt_clust_5="13000.00000" pt_clust_6="13000.00000" pt_clust_7="13000.00000" pt_clust_8="13000.00000" pt_clust_9="31.01182"></scales>
<clustering>
<clus scale="   31.012">  1  9  2 -1</clus>
<clus scale="   85.582">  7  8 -1 -1</clus>
<clus scale="   89.868">  5  6 -1 -1</clus>
<clus scale="  113.767">  2  7  1 -1</clus>
<clus scale="   31.012">  1  5  2 -1</clus>
</clustering>
</event>
<event>
 9    1  0.1803370E-005  0.8881770E+02  0.7546771E-02  0.1314913E+00
          1   -1    0    0  502    0  0.00000000000E+00  0.00000000000E+00  0.29117414375E+03  0.29117414375E+03  0.00000000000E+00 0. -1.
         -1   -1    0    0    0  501 -0.00000000000E+00 -0.00000000000E+00 -0.52674109739E+02  0.52674109739E+02  0.00000000000E+00 0.  1.
         23    2    1    2    0    0 -0.61426172273E+01 -0.18543390021E+02  0.38826583532E+02  0.98671463491E+02  0.88583096913E+02 0.  0.
         23    2    1    2    0    0 -0.16904904015E+02 -0.11388527952E+02  0.53737716849E+02  0.94430823887E+02  0.74926390138E+02 0.  0.
        -11    1    4    4    0    0  0.13576691567E+02 -0.34879981539E+02  0.16582592130E+02  0.40938026672E+02  0.00000000000E+00 0.  1.
         11    1    4    4    0    0 -0.30481595583E+02  0.23491453587E+02  0.37155124719E+02  0.53492797214E+02  0.00000000000E+00 0. -1.
        -13    1    3    3    0    0 -0.46352611938E+02 -0.24904681868E+01  0.27360800337E+02  0.53883025716E+02  0.00000000000E+00 0. -1.
         13    1    3    3    0    0  0.40209994710E+02 -0.16052921835E+02  0.11465783195E+02  0.44788437775E+02  0.00000000000E+00 0.  1.
         21    1    1    2  502  501  0.23047521243E+02  0.29931917974E+02  0.14593573363E+03  0.15074596611E+03  0.00000000000E+00 0. -1.
<scales pt_clust_5="13000.00000" pt_clust_6="13000.00000" pt_clust_7="13000.00000" pt_clust_8="13000.00000" pt_clust_9="37.77708"></scales>
<clustering>
<clus scale="   37.777">  1  9  2 -1</clus>
<clus scale="   74.926">  5  6 -1 -1</clus>
<clus scale="   75.204">  1  5  2 -1</clus>
<clus scale="   88.583">  7  8 -1 -1</clus>
<clus scale="   37.777">  1  5  2 -1</clus>
</clustering>
</event>
<event>
 9    1  0.1803370E-005  0.9859948E+02  0.7546771E-02  0.1283432E+00
          2   -1    0    0  502    0  0.00000000000E+00  0.00000000000E+00  0.48947835912E+03  0.48947835912E+03  0.00000000000E+00 0. -1.
         -2   -1    0    0    0  501 -0.00000000000E+00 -0.00000000000E+00 -0.54551269306E+02  0.54551269306E+02  0.00000000000E+00 0.  1.
         23    2    1    2    0    0  0.30265312190E+02 -0.31304380690E+02  0.40274694153E+02  0.10955935657E+03  0.92115407242E+02 0.  0.
         23    2    1    2    0    0 -0.34921726814E+02 -0.24986446119E+02  0.13733035097E+03  0.17102203393E+03  0.92439500748E+02 0.  0.
        -11    1    4    4    0    0 -0.65905585603E+02 -0.14312605846E+02  0.76947735781E+02  0.10231984627E+03  0.00000000000E+00 0.  1.
         11    1    4    4    0    0  0.30983858789E+02 -0.10673840273E+02  0.60382615187E+02  0.68702187654E+02  0.00000000000E+00 0. -1.
        -11    1    3    3    0    0 -0.14709060178E+02 -0.41650527761E+02 -0.55558560981E+01  0.44519551335E+02  0.00000000000E+00 0.  1.
         11    1    3    3    0    0  0.44974372369E+02  0.10346147070E+02  0.45830550251E+02  0.65039805239E+02  0.00000000000E+00 0. -1.
         21    1    1    2  502  501  0.46564146231E+01  0.56290826809E+02  0.25732204470E+03  0.26344823793E+03  0.00000000000E+00 0. -1.
<scales pt_clust_5="13000.00000" pt_clust_6="13000.00000" pt_clust_7="13000.00000" pt_clust_8="13000.00000" pt_clust_9="56.48309"></scales>
<clustering>
<clus scale="   56.483">  1  9  2 -1</clus>
<clus scale="   92.115">  7  8 -1 -1</clus>
<clus scale="   92.440">  5  6 -1 -1</clus>
<clus scale="   98.296">  2  7  1 -1</clus>
<clus scale="   56.483">  1  5  2 -1</clus>
</clustering>
</event>
<event>
 9    1  0.1803370E-005  0.1233759E+03  0.7546771E-02  0.1237814E+00
         -1   -1    0    0    0  501 -0.00000000000E+00  0.00000000000E+00  0.20924802366E+03  0.20924802366E+03  0.00000000000E+00 0.  1.
          1   -1    0    0  502    0  0.00000000000E+00 -0.00000000000E+00 -0.36931585401E+03  0.36931585401E+03  0.00000000000E+00 0. -1.
         23    2    1    2    0    0 -0.34742581455E+02 -0.84757913811E+02  0.11471099401E+03  0.17262466720E+03  0.90827928859E+02 0.  0.
         23    2    1    2    0    0 -0.17294113131E+02  0.73888090374E+02  0.71418036265E+01  0.11905036244E+03  0.91451884558E+02 0.  0.
        -11    1    4    4    0    0 -0.21996687446E+02  0.93495429773E+02  0.15374775056E+02  0.97270927595E+02  0.00000000000E+00 0.  1.
         11    1    4    4    0    0  0.47025743154E+01 -0.19607339399E+02 -0.82329714300E+01  0.21779434842E+02  0.00000000000E+00 0. -1.
        -13    1    3    3    0    0 -0.11062260346E+02 -0.58875784318E+02  0.12279168065E+03  0.13662550428E+03  0.00000000000E+00 0.  1.
         13    1    3    3    0    0 -0.23680321109E+02 -0.25882129493E+02 -0.80806866367E+01  0.35999162927E+02  0.00000000000E+00 0. -1.
         21    1    1    2  502  501  0.52036694585E+02  0.10869823436E+02 -0.28192062798E+03  0.28688884803E+03  0.00000000000E+00 0. -1.
<scales pt_clust_5="13000.00000" pt_clust_6="13000.00000" pt_clust_7="13000.00000" pt_clust_8="13000.00000" pt_clust_9="53.15986"></scales>
<clustering>
<clus scale="   53.160">  2  9  1 -1</clus>
<clus scale="   90.828">  7  8 -1 -1</clus>
<clus scale="   91.452">  5  6 -1 -1</clus>
<clus scale="  122.914">  1  7  2 -1</clus>
<clus scale="   53.160">  2  5  1 -1</clus>
</clustering>
</event>
<event>
 9    1  0.1803370E-005  0.1534577E+03  0.7546771E-02  0.1196990E+00
          1   -1    0    0  502    0  0.00000000000E+00  0.00000000000E+00  0.56195071769E+03  0.56195071769E+03  0.00000000000E+00 0. -1.
         -1   -1    0    0    0  501 -0.00000000000E+00 -0.00000000000E+00 -0.10527131666E+03  0.10527131666E+03  0.00000000000E+00 0.  1.
         23    2    1    2    0    0  0.10900143297E+03  0.31502041292E+02  0.15184691768E+02  0.14519216820E+03  0.89311252634E+02 0.  0.
         23    2    1    2    0    0 -0.12791473249E+03 -0.64271903057E+02  0.14774369330E+03  0.22585215578E+03  0.93209125358E+02 0.  0.
        -13    1    4    4    0    0 -0.98291089423E+02 -0.24921316039E+02  0.43070390157E+02  0.11016927322E+03  0.00000000000E+00 0.  1.
         13    1    4    4    0    0 -0.29623643065E+02 -0.39350587018E+02  0.10467330314E+03  0.11568288256E+03  0.00000000000E+00 0. -1.
        -13    1    3    3    0    0 -0.11986736657E+01  0.21471146261E+02  0.26308032620E+02  0.33978809877E+02  0.00000000000E+00 0.  1.
         13    1    3    3    0    0  0.11020010663E+03  0.10030895031E+02 -0.11123340852E+02  0.11121335832E+03  0.00000000000E+00 0. -1.
         21    1    1    2  502  501  0.18913299521E+02  0.32769861765E+02  0.29375101596E+03  0.29617771037E+03  0.00000000000E+00 0.  1.
<scales pt_clust_5="13000.00000" pt_clust_6="13000.00000" pt_clust_7="13000.00000" pt_clust_8="13000.00000" pt_clust_9="37.83618"></scales>
<clustering>
<clus scale="   37.836">  1  9  2 -1</clus>
<clus scale="   89.311">  7  8 -1 -1</clus>
<clus scale="   93.209">  5  6 -1 -1</clus>
<clus scale="  151.122">  2  7  1 -1</clus>
<clus scale="   37.836">  1  5  2 -1</clus>
</clustering>
</event>
<event>
 9    1  0.1803370E-005  0.3956453E+03  0.7546771E-02  0.1045315E+00
         -2   -1    0    0    0  501 -0.00000000000E+00  0.00000000000E+00  0.10967066381E+04  0.10967066381E+04  0.00000000000E+00 0.  1.
          2   -1    0    0  502    0  0.00000000000E+00 -0.00000000000E+00 -0.54824165055E+03  0.54824165055E+03  0.00000000000E+00 0. -1.
         23    2    1    2    0    0  0.38484774452E+03  0.11492086753E+03  0.75330464631E+03  0.85862166443E+03  0.91916702703E+02 0.  0.
         23    2    1    2    0    0 -0.35927200117E+03  0.14252786650E+02  0.15587303560E+03  0.40232974990E+03  0.91067621441E+02 0.  0.
        -11    1    4    4    0    0 -0.17173299374E+03 -0.38378790432E+02  0.68185927014E+02  0.18871797301E+03  0.00000000000E+00 0.  1.
         11    1    4    4    0    0 -0.18753900742E+03  0.52631577081E+02  0.87687108590E+02  0.21361177689E+03  0.00000000000E+00 0. -1.
        -13    1    3    3    0    0  0.14109765201E+03  0.55125621619E+02  0.37704382913E+03  0.40633659772E+03  0.00000000000E+00 0.  1.
         13    1    3    3    0    0  0.24375009251E+03  0.59795245911E+02  0.37626081717E+03  0.45228506671E+03  0.00000000000E+00 0. -1.
         21    1    1    2  502  501 -0.25575743351E+02 -0.12917365418E+03 -0.36071269438E+03  0.38399687430E+03  0.00000000000E+00 0. -1.
<scales pt_clust_5="13000.00000" pt_clust_6="13000.00000" pt_clust_7="13000.00000" pt_clust_8="13000.00000" pt_clust_9="131.68125"></scales>
<clustering>
<clus scale="   91.068">  5  6 -1 -1</clus>
<clus scale="   91.917">  7  8 -1 -1</clus>
<clus scale="  131.681">  2  9  1 -1</clus>
<clus scale="  395.449">  2  5  1 -1</clus>
<clus scale="  131.681">  2  5  1 -1</clus>
</clustering>
</event>
<event>
 9    1  0.1803370E-005  0.9924217E+02  0.7546771E-02  0.1282780E+00
          2   -1    0    0  502    0  0.00000000000E+00  0.00000000000E+00  0.62252993325E+03  0.62252993325E+03  0.00000000000E+00 0. -1.
         -2   -1    0    0    0  501 -0.00000000000E+00 -0.00000000000E+00 -0.41407797679E+02  0.41407797679E+02  0.00000000000E+00 0.  1.
         23    2    1    2    0    0 -0.15645514282E+02  0.25396336977E+02  0.58163487799E+02  0.11204005974E+03  0.90995756081E+02 0.  0.
         23    2    1    2    0    0  0.52250704929E+02 -0.65207744176E+02  0.36923795050E+03  0.38894080298E+03  0.89196962224E+02 0.  0.
        -11    1    4    4    0    0  0.12153565705E+02  0.20377158444E+02  0.41034471251E+02  0.47400058823E+02  0.00000000000E+00 0.  1.
         11    1    4    4    0    0  0.40097139224E+02 -0.85584902620E+02  0.32820347925E+03  0.34154074416E+03  0.00000000000E+00 0. -1.
        -11    1    3    3    0    0 -0.44768552388E+02  0.29058811767E+02  0.80684124668E+01  0.53979043192E+02  0.00000000000E+00 0.  1.
         11    1    3    3    0    0  0.29123038105E+02 -0.36624747903E+01  0.50095075332E+02  0.58061016548E+02  0.00000000000E+00 0. -1.
         21    1    1    2  502  501 -0.36605190646E+02  0.39811407199E+02  0.15372069727E+03  0.16295686821E+03  0.00000000000E+00 0.  1.
<scales pt_clust_5="13000.00000" pt_clust_6="13000.00000" pt_clust_7="13000.00000" pt_clust_8="13000.00000" pt_clust_9="54.08223"></scales>
<clustering>
<clus scale="   54.082">  1  9  2 -1</clus>
<clus scale="   89.197">  5  6 -1 -1</clus>
<clus scale="   90.996">  7  8 -1 -1</clus>
<clus scale="   97.595">  1  5  2 -1</clus>
<clus scale="   54.082">  1  5  2 -1</clus>
</clustering>
</event>
<event>
 9    1  0.1803370E-005  0.1009984E+03  0.7546771E-02  0.1280821E+00
          2   -1    0    0  502    0  0.00000000000E+00  0.00000000000E+00  0.95816352025E+02  0.95816352025E+02  0.00000000000E+00 0. -1.
         -2   -1    0    0    0  501 -0.00000000000E+00 -0.00000000000E+00 -0.43475564654E+03  0.43475564654E+03  0.00000000000E+00 0.  1.
         23    2    1    2    0    0 -0.39943490188E+02  0.23386668650E+01 -0.28551576303E+03  0.30304461034E+03  0.93358626522E+02 0.  0.
         23    2    1    2    0    0  0.14255932233E+02 -0.69277464942E+02 -0.92406140580E+02  0.14591674472E+03  0.88035236250E+02 0.  0.
        -11    1    4    4    0    0  0.31678060988E+02 -0.55439985461E+02 -0.10306900146E+03  0.12124483740E+03  0.00000000000E+00 0.  1.
         11    1    4    4    0    0 -0.17422128755E+02 -0.13837479480E+02  0.10662860877E+02  0.24671907320E+02  0.00000000000E+00 0. -1.
        -13    1    3    3    0    0 -0.87465938330E+01  0.41862103289E+02 -0.19333238917E+03  0.19800593753E+03  0.00000000000E+00 0.  1.
         13    1    3    3    0    0 -0.31196896355E+02 -0.39523436424E+02 -0.92183373854E+02  0.10503867280E+03  0.00000000000E+00 0. -1.
         21    1    1    2  502  501  0.25687557955E+02  0.66938798077E+02  0.38982609092E+02  0.81610643505E+02  0.00000000000E+00 0.  1.
<scales pt_clust_5="13000.00000" pt_clust_6="13000.00000" pt_clust_7="13000.00000" pt_clust_8="13000.00000" pt_clust_9="71.69835"></scales>
<clustering>
<clus scale="   71.698">  1  9  2 -1</clus>
<clus scale="   88.035">  5  6 -1 -1</clus>
<clus scale="   93.359">  7  8 -1 -1</clus>
<clus scale="   96.099">  1  5  2 -1</clus>
<clus scale="   71.698">  1  5  2 -1</clus>
</clustering>
</event>
<event>
 9    1  0.1803370E-005  0.1331549E+03  0.7546771E-02  0.1225668E+00
         -4   -1    0    0    0  501 -0.00000000000E+00  0.00000000000E+00  0.78969938491E+03  0.78969938491E+03  0.00000000000E+00 0.  1.
          4   -1    0    0  502    0  0.00000000000E+00 -0.00000000000E+00 -0.24902369570E+02  0.24902369570E+02  0.00000000000E+00 0. -1.
         23    2    1    2    0    0 -0.96097375798E+02  0.11890391124E+02  0.35906632064E+03  0.38110638609E+03  0.83290863011E+02 0.  0.
         23    2    1    2    0    0  0.91595218371E+02  0.83604219213E+01  0.35639564318E+03  0.37997609935E+03  0.94363133249E+02 0.  0.
        -11    1    4    4    0    0  0.39211022095E+02 -0.42953197395E+02  0.17011144953E+03  0.17977871588E+03  0.00000000000E+00 0. -1.
         11    1    4    4    0    0  0.52384196276E+02  0.51313619316E+02  0.18628419365E+03  0.20019738347E+03  0.00000000000E+00 0.  1.
        -11    1    3    3    0    0 -0.83479839950E+02 -0.26267215280E+02  0.24915038404E+03  0.26407340673E+03  0.00000000000E+00 0. -1.
         11    1    3    3    0    0 -0.12617535848E+02  0.38157606404E+02  0.10991593661E+03  0.11703297936E+03  0.00000000000E+00 0.  1.
         21    1    1    2  502  501  0.45021574269E+01 -0.20250813046E+02  0.49335051521E+02  0.53519269045E+02  0.00000000000E+00 0. -1.
<scales pt_clust_5="13000.00000" pt_clust_6="13000.00000" pt_clust_7="13000.00000" pt_clust_8="13000.00000" pt_clust_9="20.74524"></scales>
<clustering>
<clus scale="   20.745">  2  9  1 -1</clus>
<clus scale="   83.291">  7  8 -1 -1</clus>
<clus scale="   94.363">  5  6 -1 -1</clus>
<clus scale="  125.552">  1  7  2 -1</clus>
<clus scale="   20.745">  2  5  1 -1</clus>
</clustering>
</event>
<event>
 9    1  0.1803370E-005  0.1098519E+03  0.7546771E-02  0.1264001E+00
         -1   -1    0    0    0  501 -0.00000000000E+00  0.00000000000E+00  0.46217097364E+02  0.46217097364E+02  0.00000000000E+00 0.  1.
          1   -1    0    0  502    0  0.00000000000E+00 -0.00000000000E+00 -0.51496025452E+03  0.51496025452E+03  0.00000000000E+00 0. -1.
         23    2    1    2    0    0  0.19667568503E+02  0.11339732573E+02 -0.13042810746E+03  0.16021007862E+03  0.90224028350E+02 0.  0.
         23    2    1    2    0    0 -0.34734457974E+02 -0.77050062585E+02 -0.13535059386E+03  0.18709948942E+03  0.97689513101E+02 0.  0.
        -11    1    3    3    0    0  0.23794718248E+02  0.48281567172E+02 -0.60226348802E+02  0.80774447909E+02  0.00000000000E+00 0.  1.
         11    1    3    3    0    0 -0.41271497450E+01 -0.36941834598E+02 -0.70201758655E+02  0.79435630713E+02  0.00000000000E+00 0. -1.
        -13    1    4    4    0    0 -0.29097698587E+02  0.17815477752E+02 -0.37381511366E+02  0.50610717270E+02  0.00000000000E+00 0.  1.
         13    1    4    4    0    0 -0.56367593871E+01 -0.94865540337E+02 -0.97969082489E+02  0.13648877215E+03  0.00000000000E+00 0. -1.
         21    1    1    2  502  501  0.15066889471E+02  0.65710330011E+02 -0.20296445584E+03  0.21386778384E+03  0.00000000000E+00 0.  1.
<scales pt_clust_5="13000.00000" pt_clust_6="13000.00000" pt_clust_7="13000.00000" pt_clust_8="13000.00000" pt_clust_9="67.41557"></scales>
<clustering>
<clus scale="   67.416">  2  9  1 -1</clus>
<clus scale="   90.224">  5  6 -1 -1</clus>
<clus scale="   97.690">  7  8 -1 -1</clus>
<clus scale="  103.269">  1  5  2 -1</clus>
<clus scale="   67.416">  2  5  1 -1</clus>
</clustering>
</event>
<event>
 9    1  0.1803370E-005  0.1020257E+03  0.7546771E-02  0.1277164E+00
         -3   -1    0    0    0  501 -0.00000000000E+00  0.00000000000E+00  0.19588604838E+03  0.19588604838E+03  0.00000000000E+00 0.  1.
          3   -1    0    0  502    0  0.00000000000E+00 -0.00000000000E+00 -0.28983051771E+03  0.28983051771E+03  0.00000000000E+00 0. -1.
         23    2    1    2    0    0 -0.53552493805E+02  0.34672703702E+01  0.10995706163E+03  0.15205574769E+03  0.90280138714E+02 0.  0.
         23    2    1    2    0    0  0.23156228546E+02 -0.12111930414E+02  0.27557518914E+02  0.10005440826E+03  0.92566505734E+02 0.  0.
        -11    1    4    4    0    0  0.35602573110E+02 -0.46105221014E+02  0.76792066086E+01  0.58755466393E+02  0.00000000000E+00 0. -1.
         11    1    4    4    0    0 -0.12446344565E+02  0.33993290600E+02  0.19878312306E+02  0.41298941863E+02  0.00000000000E+00 0.  1.
        -13    1    3    3    0    0 -0.43633316171E+02  0.27406468174E+02  0.11467283429E+03  0.12571730073E+03  0.00000000000E+00 0.  1.
         13    1    3    3    0    0 -0.99191776337E+01 -0.23939197804E+02 -0.47157726618E+01  0.26338446959E+02  0.00000000000E+00 0. -1.
         21    1    1    2  502  501  0.30396265260E+02  0.86446600442E+01 -0.23145904988E+03  0.23360641014E+03  0.00000000000E+00 0. -1.
<scales pt_clust_5="13000.00000" pt_clust_6="13000.00000" pt_clust_7="13000.00000" pt_clust_8="13000.00000" pt_clust_9="31.60163"></scales>
<clustering>
<clus scale="   31.602">  2  9  1 -1</clus>
<clus scale="   90.280">  7  8 -1 -1</clus>
<clus scale="   92.567">  5  6 -1 -1</clus>
<clus scale="   99.956">  1  7  2 -1</clus>
<clus scale="   31.602">  2  5  1 -1</clus>
</clustering>
</event>
<event>
 9    1  0.1803370E-005  0.1879370E+03  0.7546771E-02  0.1160724E+00
          1   -1    0    0  502    0  0.00000000000E+00  0.00000000000E+00  0.94718634477E+03  0.94718634477E+03  0.00000000000E+00 0. -1.
         -1   -1    0    0    0  501 -0.00000000000E+00 -0.00000000000E+00 -0.52769188958E+02  0.52769188958E+02  0.00000000000E+00 0.  1.
         23    2    1    2    0    0 -0.12015235797E+03  0.12073761707E+03  0.20281134910E+03  0.27984521412E+03  0.90370012960E+02 0.  0.
         23    2    1    2    0    0  0.94005610191E+02 -0.10956651402E+03  0.59338999272E+03  0.61786164195E+03  0.93805380440E+02 0.  0.
        -11    1    4    4    0    0  0.10224503228E+03 -0.71596719406E+02  0.52056260382E+03  0.53531818701E+03  0.00000000000E+00 0. -1.
         11    1    4    4    0    0 -0.82394220866E+01 -0.37969794616E+02  0.72827388897E+02  0.82543454938E+02  0.00000000000E+00 0.  1.
        -11    1    3    3    0    0  0.75589466802E+01  0.38301694268E+02  0.27185577424E+02  0.47573239101E+02  0.00000000000E+00 0. -1.
         11    1    3    3    0    0 -0.12771130465E+03  0.82435922798E+02  0.17562577167E+03  0.23227197502E+03  0.00000000000E+00 0.  1.
         21    1    1    2  502  501  0.26146747780E+02 -0.11171103045E+02  0.98215814002E+02  0.10224867766E+03  0.00000000000E+00 0. -1.
<scales pt_clust_5="13000.00000" pt_clust_6="13000.00000" pt_clust_7="13000.00000" pt_clust_8="13000.00000" pt_clust_9="28.43318"></scales>
<clustering>
<clus scale="   28.433">  1  9  2 -1</clus>
<clus scale="   90.370">  7  8 -1 -1</clus>
<clus scale="   93.805">  5  6 -1 -1</clus>
<clus scale="  186.246">  2  7  1 -1</clus>
<clus scale="   28.433">  1  5  2 -1</clus>
</clustering>
</event>
<event>
 9    1  0.1803370E-005  0.1512331E+03  0.7546771E-02  0.1200128E+00
          4   -1    0    0  502    0  0.00000000000E+00  0.00000000000E+00  0.24460746293E+03  0.24460746293E+03  0.00000000000E+00 0. -1.
         -4   -1    0    0    0  501 -0.00000000000E+00 -0.00000000000E+00 -0.13127460523E+03  0.13127460523E+03  0.00000000000E+00 0.  1.
         23    2    1    2    0    0  0.16276199219E+01  0.12216639091E+03  0.36589609013E+02  0.15334097903E+03  0.85131546135E+02 0.  0.
         23    2    1    2    0    0 -0.53853067646E+02 -0.11197366091E+03  0.67945979595E+02  0.16860797243E+03  0.91508134005E+02 0.  0.
        -11    1    3    3    0    0 -0.41661945234E+02  0.64949468533E+02  0.18758486718E+02  0.79410528064E+02  0.00000000000E+00 0.  1.
         11    1    3    3    0    0  0.43289565156E+02  0.57216922374E+02  0.17831122295E+02  0.73930450963E+02  0.00000000000E+00 0. -1.
        -13    1    4    4    0    0 -0.28630067161E+02 -0.23735014312E+02 -0.19372251680E+02  0.41932276175E+02  0.00000000000E+00 0.  1.
         13    1    4    4    0    0 -0.25223000485E+02 -0.88238646602E+02  0.87318231275E+02  0.12667569625E+03  0.00000000000E+00 0. -1.
         21    1    1    2  502  501  0.52225447724E+02 -0.10192729993E+02  0.87972690857E+01  0.53933116710E+02  0.00000000000E+00 0. -1.
<scales pt_clust_5="13000.00000" pt_clust_6="13000.00000" pt_clust_7="13000.00000" pt_clust_8="13000.00000" pt_clust_9="53.21080"></scales>
<clustering>
<clus scale="   53.211">  2  9  1 -1</clus>
<clus scale="   85.132">  5  6 -1 -1</clus>
<clus scale="   91.508">  7  8 -1 -1</clus>
<clus scale="  147.462">  2  5  1 -1</clus>
<clus scale="  151.233">  1  5  2 -1</clus>
</clustering>
</event>
<event>
 9    1  0.1803370E-005  0.2090418E+03  0.7546771E-02  0.1142820E+00
          3   -1    0    0  502    0  0.00000000000E+00  0.00000000000E+00  0.33545732481E+03  0.33545732481E+03  0.00000000000E+00 0. -1.
         -3   -1    0    0    0  501 -0.00000000000E+00 -0.00000000000E+00 -0.50654122522E+03  0.50654122522E+03  0.00000000000E+00 0.  1.
         23    2    1    2    0    0  0.15312401219E+03 -0.90967241895E+02 -0.35760835803E+03  0.41036811029E+03  0.93788304171E+02 0.  0.
         23    2    1    2    0    0 -0.17867138641E+03  0.15000147847E+03  0.16611738224E+02  0.24994928599E+03  0.88174757479E+02 0.  0.
        -13    1    3    3    0    0  0.16242476961E+03 -0.67905752398E+02 -0.30456035106E+03  0.35178118828E+03  0.00000000000E+00 0.  1.
         13    1    3    3    0    0 -0.93007574186E+01 -0.23061489498E+02 -0.53048006968E+02  0.58586922002E+02  0.00000000000E+00 0. -1.
        -13    1    4    4    0    0 -0.18491768064E+03  0.12505035791E+03  0.19425508344E+02  0.22407474423E+03  0.00000000000E+00 0. -1.
         13    1    4    4    0    0  0.62462942370E+01  0.24951120563E+02 -0.28137701199E+01  0.25874541760E+02  0.00000000000E+00 0.  1.
         21    1    1    2  502  501  0.25547374216E+02 -0.59034236579E+02  0.16991271939E+03  0.18168115375E+03  0.00000000000E+00 0. -1.
<scales pt_clust_5="13000.00000" pt_clust_6="13000.00000" pt_clust_7="13000.00000" pt_clust_8="13000.00000" pt_clust_9="64.32503"></scales>
<clustering>
<clus scale="   64.325">  1  9  2 -1</clus>
<clus scale="   88.175">  7  8 -1 -1</clus>
<clus scale="   93.788">  5  6 -1 -1</clus>
<clus scale="  206.584">  1  7  2 -1</clus>
<clus scale="   64.325">  1  5  2 -1</clus>
</clustering>
</event>
<event>
 9    1  0.1803370E-005  0.1005180E+03  0.7546771E-02  0.1280253E+00
          1   -1    0    0  502    0  0.00000000000E+00  0.00000000000E+00  0.53165541404E+03  0.53165541404E+03  0.00000000000E+00 0. -1.
         -1   -1    0    0    0  501 -0.00000000000E+00 -0.00000000000E+00 -0.58385525795E+02  0.58385525795E+02  0.00000000000E+00 0.  1.
         23    2    1    2    0    0  0.36533695477E+02 -0.23113969975E+02 -0.98733905560E+00  0.99027327807E+02  0.89086869409E+02 0.  0.
         23    2    1    2    0    0 -0.15415108012E+02  0.37932544307E+02  0.34511833403E+03  0.35932291897E+03  0.91267694959E+02 0.  0.
        -13    1    3    3    0    0  0.35825740666E+02  0.15253025825E+02  0.30442295983E+02  0.49425417305E+02  0.00000000000E+00 0.  1.
         13    1    3    3    0    0  0.70795481153E+00 -0.38366995800E+02 -0.31429635039E+02  0.49601910502E+02  0.00000000000E+00 0. -1.
        -13    1    4    4    0    0 -0.39358728243E+02 -0.50244799627E+01  0.75859305627E+02  0.85609515464E+02  0.00000000000E+00 0.  1.
         13    1    4    4    0    0  0.23943620231E+02  0.42957024270E+02  0.26925902840E+03  0.27371340351E+03  0.00000000000E+00 0. -1.
         21    1    1    2  502  501 -0.21118587466E+02 -0.14818574332E+02  0.12913889327E+03  0.13169069305E+03  0.00000000000E+00 0.  1.
<scales pt_clust_5="13000.00000" pt_clust_6="13000.00000" pt_clust_7="13000.00000" pt_clust_8="13000.00000" pt_clust_9="25.79893"></scales>
<clustering>
<clus scale="   25.799">  1  9  2 -1</clus>
<clus scale="   89.087">  5  6 -1 -1</clus>
<clus scale="   91.268">  7  8 -1 -1</clus>
<clus scale="   98.542">  2  5  1 -1</clus>
<clus scale="   25.799">  1  5  2 -1</clus>
</clustering>
</event>
<event>
 9    1  0.1803370E-005  0.9298080E+02  0.7546771E-02  0.1296414E+00
          2   -1    0    0  502    0  0.00000000000E+00  0.00000000000E+00  0.28370347543E+03  0.28370347543E+03  0.00000000000E+00 0. -1.
         -2   -1    0    0    0  501 -0.00000000000E+00 -0.00000000000E+00 -0.41343861166E+02  0.41343861166E+02  0.00000000000E+00 0.  1.
         23    2    1    2    0    0  0.13994936106E+02  0.40322264314E+01  0.63308606212E+02  0.11281529299E+03  0.92234449234E+02 0.  0.
         23    2    1    2    0    0 -0.54884478662E+01  0.14536973209E+02  0.15674150213E+03  0.18198490206E+03  0.91154590866E+02 0.  0.
        -11    1    3    3    0    0  0.52008530593E+02  0.24530219949E+01  0.21623717911E+02  0.56378096346E+02  0.00000000000E+00 0.  1.
         11    1    3    3    0    0 -0.38013594487E+02  0.15792044365E+01  0.41684888301E+02  0.56437196645E+02  0.00000000000E+00 0. -1.
        -11    1    4    4    0    0  0.26361848686E+01  0.48394028461E+02  0.49683928963E+02  0.69407667145E+02  0.00000000000E+00 0.  1.
         11    1    4    4    0    0 -0.81246327348E+01 -0.33857055253E+02  0.10705757317E+03  0.11257723491E+03  0.00000000000E+00 0. -1.
         21    1    1    2  502  501 -0.85064882398E+01 -0.18569199640E+02  0.22309505924E+02  0.30247141551E+02  0.00000000000E+00 0. -1.
<scales pt_clust_5="13000.00000" pt_clust_6="13000.00000" pt_clust_7="13000.00000" pt_clust_8="13000.00000" pt_clust_9="20.42487"></scales>
<clustering>
<clus scale="   20.425">  2  9  1 -1</clus>
<clus scale="   91.155">  7  8 -1 -1</clus>
<clus scale="   91.910">  1  7  2 -1</clus>
<clus scale="   92.234">  5  6 -1 -1</clus>
<clus scale="   91.910">  1  5  2 -1</clus>
</clustering>
</event>
<event>
 9    1  0.1803370E-005  0.1374887E+03  0.7546771E-02  0.1217194E+00
         -2   -1    0    0    0  501 -0.00000000000E+00  0.00000000000E+00  0.24460823537E+03  0.24460823537E+03  0.00000000000E+00 0.  1.
          2   -1    0    0  502    0  0.00000000000E+00 -0.00000000000E+00 -0.10678504599E+03  0.10678504599E+03  0.00000000000E+00 0. -1.
         23    2    1    2    0    0  0.54672646579E+02 -0.81342418304E+02  0.12417787605E+03  0.18185733455E+03  0.89700936058E+02 0.  0.
         23    2    1    2    0    0 -0.65173505985E+02  0.99584772872E+02  0.10108490255E+02  0.14819207964E+03  0.87715437759E+02 0.  0.
        -13    1    4    4    0    0 -0.44635749550E+02  0.61982970506E+02  0.48652495914E+02  0.90561051945E+02  0.00000000000E+00 0.  1.
         13    1    4    4    0    0 -0.20537756435E+02  0.37601802366E+02 -0.38544005659E+02  0.57631027692E+02  0.00000000000E+00 0. -1.
        -13    1    3    3    0    0  0.79046003992E+02 -0.71462971155E+02  0.99468214022E+02  0.14577089076E+03  0.00000000000E+00 0.  1.
         13    1    3    3    0    0 -0.24373357413E+02 -0.98794471498E+01  0.24709662030E+02  0.36086443787E+02  0.00000000000E+00 0. -1.
         21    1    1    2  502  501  0.10500859407E+02 -0.18242354567E+02  0.35368230782E+01  0.21343867174E+02  0.00000000000E+00 0. -1.
<scales pt_clust_5="13000.00000" pt_clust_6="13000.00000" pt_clust_7="13000.00000" pt_clust_8="13000.00000" pt_clust_9="21.04879"></scales>
<clustering>
<clus scale="   21.049">  2  9  1 -1</clus>
<clus scale="   87.715">  5  6 -1 -1</clus>
<clus scale="   89.701">  7  8 -1 -1</clus>
<clus scale="  136.202">  2  5  1 -1</clus>
<clus scale="   21.049">  2  5  1 -1</clus>
</clustering>
</event>
<event>
 9    1  0.1803370E-005  0.1114977E+03  0.7546771E-02  0.1259538E+00
          1   -1    0    0  502    0  0.00000000000E+00  0.00000000000E+00  0.36302303159E+03  0.36302303159E+03  0.00000000000E+00 0. -1.
         -1   -1    0    0    0  501 -0.00000000000E+00 -0.00000000000E+00 -0.63046643229E+02  0.63046643229E+02  0.00000000000E+00 0.  1.
         23    2    1    2    0    0 -0.39076536230E+02  0.50386468450E+02  0.19879090117E+02  0.11639902895E+03  0.95329868515E+02 0.  0.
         23    2    1    2    0    0  0.16096278625E+02 -0.39319212551E+02  0.17727014051E+03  0.20372726117E+03  0.90967046596E+02 0.  0.
        -13    1    4    4    0    0  0.97520946565E+01  0.28732711914E+02  0.72982969751E+02  0.79039141935E+02  0.00000000000E+00 0.  1.
         13    1    4    4    0    0  0.63441839685E+01 -0.68051924465E+02  0.10428717076E+03  0.12468811923E+03  0.00000000000E+00 0. -1.
        -13    1    3    3    0    0  0.16675460118E+02 -0.16324909779E+02 -0.86643018018E+01  0.24892645001E+02  0.00000000000E+00 0. -1.
         13    1    3    3    0    0 -0.55751996348E+02  0.66711378229E+02  0.28543391919E+02  0.91506383953E+02  0.00000000000E+00 0.  1.
         21    1    1    2  502  501  0.22980257605E+02 -0.11067255899E+02  0.10282715774E+03  0.10594338470E+03  0.00000000000E+00 0. -1.
<scales pt_clust_5="13000.00000" pt_clust_6="13000.00000" pt_clust_7="13000.00000" pt_clust_8="13000.00000" pt_clust_9="25.50640"></scales>
<clustering>
<clus scale="   25.506">  1  9  2 -1</clus>
<clus scale="   90.967">  5  6 -1 -1</clus>
<clus scale="   95.330">  7  8 -1 -1</clus>
<clus scale="  107.791">  1  5  2 -1</clus>
<clus scale="   25.506">  1  5  2 -1</clus>
</clustering>
</event>
<event>
 9    1  0.1803370E-005  0.1745908E+03  0.7546771E-02  0.1173622E+00
         -1   -1    0    0    0  501 -0.00000000000E+00  0.00000000000E+00  0.70295876659E+02  0.70295876659E+02  0.00000000000E+00 0.  1.
          1   -1    0    0  502    0  0.00000000000E+00 -0.00000000000E+00 -0.61534161178E+03  0.61534161178E+03  0.00000000000E+00 0. -1.
         23    2    1    2    0    0  0.24094721545E+02 -0.15534839763E+03 -0.19640148743E+03  0.26636412111E+03  0.87536395283E+02 0.  0.
         23    2    1    2    0    0 -0.69822734033E+02  0.12930999980E+03 -0.30617962613E+03  0.35165463197E+03  0.91207052859E+02 0.  0.
        -11    1    3    3    0    0 -0.19385153652E+02 -0.12431592327E+03 -0.14828647600E+03  0.19447136531E+03  0.00000000000E+00 0.  1.
         11    1    3    3    0    0  0.43479875197E+02 -0.31032474357E+02 -0.48115011422E+02  0.71892755797E+02  0.00000000000E+00 0. -1.
        -13    1    4    4    0    0 -0.73623663669E+02  0.73865098288E+02 -0.12855127263E+03  0.16553527204E+03  0.00000000000E+00 0.  1.
         13    1    4    4    0    0  0.38009296359E+01  0.55444901515E+02 -0.17762835350E+03  0.18611935992E+03  0.00000000000E+00 0. -1.
         21    1    1    2  502  501  0.45728012488E+02  0.26038397823E+02 -0.42464621568E+02  0.67618735364E+02  0.00000000000E+00 0. -1.
<scales pt_clust_5="13000.00000" pt_clust_6="13000.00000" pt_clust_7="13000.00000" pt_clust_8="13000.00000" pt_clust_9="52.62176"></scales>
<clustering>
<clus scale="   52.622">  1  9  2 -1</clus>
<clus scale="   87.536">  5  6 -1 -1</clus>
<clus scale="   91.207">  7  8 -1 -1</clus>
<clus scale="  172.702">  1  5  2 -1</clus>
<clus scale="  174.591">  2  5  1 -1</clus>
</clustering>
</event>
<event>
 9    1  0.1803370E-005  0.2163738E+03  0.7546771E-02  0.1136868E+00
          1   -1    0    0  502    0  0.00000000000E+00  0.00000000000E+00  0.10786079621E+04  0.10786079621E+04  0.00000000000E+00 0. -1.
         -1   -1    0    0    0  501 -0.00000000000E+00 -0.00000000000E+00 -0.53559999239E+02  0.53559999239E+02  0.00000000000E+00 0.  1.
         23    2    1    2    0    0 -0.16248894029E+03  0.10749380994E+03  0.33738411292E+03  0.39949881333E+03  0.88395063792E+02 0.  0.
         23    2    1    2    0    0  0.15024858934E+03 -0.13034426360E+03  0.53931916400E+03  0.58207660082E+03  0.91562781268E+02 0.  0.
        -11    1    3    3    0    0 -0.90956511657E+02  0.80376297899E+01  0.15078991658E+03  0.17628184662E+03  0.00000000000E+00 0.  1.
         11    1    3    3    0    0 -0.71532428634E+02  0.99456180148E+02  0.18659419635E+03  0.22321696671E+03  0.00000000000E+00 0. -1.
        -13    1    4    4    0    0  0.81287255165E+02 -0.11812437166E+03  0.29639537352E+03  0.32925856477E+03  0.00000000000E+00 0.  1.
         13    1    4    4    0    0  0.68961334179E+02 -0.12219891942E+02  0.24292379048E+03  0.25281803605E+03  0.00000000000E+00 0. -1.
         21    1    1    2  502  501  0.12240350948E+02  0.22850453662E+02  0.14834468595E+03  0.15059254720E+03  0.00000000000E+00 0. -1.
<scales pt_clust_5="13000.00000" pt_clust_6="13000.00000" pt_clust_7="13000.00000" pt_clust_8="13000.00000" pt_clust_9="25.92237"></scales>
<clustering>
<clus scale="   25.922">  1  9  2 -1</clus>
<clus scale="   88.395">  5  6 -1 -1</clus>
<clus scale="   91.563">  7  8 -1 -1</clus>
<clus scale="  215.053">  2  5  1 -1</clus>
<clus scale="   25.922">  1  5  2 -1</clus>
</clustering>
</event>
<event>
 9    1  0.1803370E-005  0.1113598E+03  0.7546771E-02  0.1258912E+00
          1   -1    0    0  502    0  0.00000000000E+00  0.00000000000E+00  0.15837144457E+03  0.15837144457E+03  0.00000000000E+00 0. -1.
         -1   -1    0    0    0  501 -0.00000000000E+00 -0.00000000000E+00 -0.13200561891E+03  0.13200561891E+03  0.00000000000E+00 0.  1.
         23    2    1    2    0    0  0.17386444521E+02 -0.62152875480E+02 -0.67998773830E+02  0.13074139397E+03  0.91127440831E+02 0.  0.
         23    2    1    2    0    0  0.52828656152E+00  0.50597322800E+02  0.69482016325E+02  0.12686966071E+03  0.93315550984E+02 0.  0.
        -11    1    3    3    0    0  0.21115388742E+02 -0.85130956182E+02 -0.47625213659E+02  0.99806314020E+02  0.00000000000E+00 0.  1.
         11    1    3    3    0    0 -0.37289442211E+01  0.22978080702E+02 -0.20373560171E+02  0.30935079954E+02  0.00000000000E+00 0. -1.
        -13    1    4    4    0    0 -0.34419746971E+02  0.41721556790E+02  0.67410566541E+01  0.54505496304E+02  0.00000000000E+00 0.  1.
         13    1    4    4    0    0  0.34948033533E+02  0.88757660103E+01  0.62740959671E+02  0.72364164408E+02  0.00000000000E+00 0. -1.
         21    1    1    2  502  501 -0.17914731082E+02  0.11555552680E+02  0.24882583159E+02  0.32766008792E+02  0.00000000000E+00 0. -1.
<scales pt_clust_5="13000.00000" pt_clust_6="13000.00000" pt_clust_7="13000.00000" pt_clust_8="13000.00000" pt_clust_9="21.31826"></scales>
<clustering>
<clus scale="   21.318">  1  9  2 -1</clus>
<clus scale="   91.127">  5  6 -1 -1</clus>
<clus scale="   93.316">  7  8 -1 -1</clus>
<clus scale="  109.533">  2  5  1 -1</clus>
<clus scale="   21.318">  1  5  2 -1</clus>
</clustering>
</event>
<event>
 9    1  0.1803370E-005  0.1052548E+03  0.7546771E-02  0.1269706E+00
          2   -1    0    0  502    0  0.00000000000E+00  0.00000000000E+00  0.67014936205E+03  0.67014936205E+03  0.00000000000E+00 0. -1.
         -2   -1    0    0    0  501 -0.00000000000E+00 -0.00000000000E+00 -0.23957890226E+02  0.23957890226E+02  0.00000000000E+00 0.  1.
         23    2    1    2    0    0 -0.19292593892E+02  0.55449091335E+02  0.17114432775E+03  0.20238673706E+03  0.90681886333E+02 0.  0.
         23    2    1    2    0    0  0.16624010256E+01 -0.44293093650E+02  0.32895950505E+03  0.34415060548E+03  0.90888071625E+02 0.  0.
        -11    1    3    3    0    0  0.18525208863E+02  0.65904311640E+02  0.11629097568E+03  0.13494499873E+03  0.00000000000E+00 0. -1.
         11    1    3    3    0    0 -0.37817802754E+02 -0.10455220304E+02  0.54853352067E+02  0.67441738336E+02  0.00000000000E+00 0.  1.
        -11    1    4    4    0    0  0.19211976284E+02  0.23534069049E+02  0.82055615003E+02  0.87499007950E+02  0.00000000000E+00 0. -1.
         11    1    4    4    0    0 -0.17549575258E+02 -0.67827162699E+02  0.24690389005E+03  0.25665159752E+03  0.00000000000E+00 0.  1.
         21    1    1    2  502  501  0.17630192866E+02 -0.11155997686E+02  0.14608763902E+03  0.14756990973E+03  0.00000000000E+00 0.  1.
<scales pt_clust_5="13000.00000" pt_clust_6="13000.00000" pt_clust_7="13000.00000" pt_clust_8="13000.00000" pt_clust_9="20.86336"></scales>
<clustering>
<clus scale="   20.863">  1  9  2 -1</clus>
<clus scale="   90.682">  5  6 -1 -1</clus>
<clus scale="   90.888">  7  8 -1 -1</clus>
<clus scale="  105.077">  2  5  1 -1</clus>
<clus scale="   20.863">  1  5  2 -1</clus>
</clustering>
</event>
<event>
 9    1  0.1803370E-005  0.2352707E+03  0.7546771E-02  0.1123298E+00
          2   -1    0    0  502    0  0.00000000000E+00  0.00000000000E+00  0.39797733361E+03  0.39797733361E+03  0.00000000000E+00 0. -1.
         -2   -1    0    0    0  501 -0.00000000000E+00 -0.00000000000E+00 -0.47090435861E+03  0.47090435861E+03  0.00000000000E+00 0.  1.
         23    2    1    2    0    0 -0.18407031479E+03  0.14262372441E+03 -0.36514390821E+03  0.44194671448E+03  0.88110255818E+02 0.  0.
         23    2    1    2    0    0  0.12425988427E+03 -0.95762303396E+02  0.75555349023E+02  0.19733641333E+03  0.92855326568E+02 0.  0.
        -11    1    3    3    0    0 -0.10562232700E+03  0.70429411197E+02 -0.12028645257E+03  0.17488627331E+03  0.00000000000E+00 0. -1.
         11    1    3    3    0    0 -0.78447987790E+02  0.72194313218E+02 -0.24485745565E+03  0.26706044117E+03  0.00000000000E+00 0.  1.
        -13    1    4    4    0    0  0.75091658774E+02 -0.10377260437E+02  0.61894608489E+02  0.97864126786E+02  0.00000000000E+00 0.  1.
         13    1    4    4    0    0  0.49168225491E+02 -0.85385042959E+02  0.13660740534E+02  0.99472286547E+02  0.00000000000E+00 0. -1.
         21    1    1    2  502  501  0.59810430526E+02 -0.46861421019E+02  0.21666153419E+03  0.22959856441E+03  0.00000000000E+00 0. -1.
<scales pt_clust_5="13000.00000" pt_clust_6="13000.00000" pt_clust_7="13000.00000" pt_clust_8="13000.00000" pt_clust_9="75.98211"></scales>
<clustering>
<clus scale="   75.982">  1  9  2 -1</clus>
<clus scale="   88.110">  5  6 -1 -1</clus>
<clus scale="   92.855">  7  8 -1 -1</clus>
<clus scale="  233.439">  2  5  1 -1</clus>
<clus scale="   75.982">  1  5  2 -1</clus>
</clustering>
</event>
<event>
 9    1  0.1803370E-005  0.9625882E+02  0.7546771E-02  0.1288957E+00
          2   -1    0    0  502    0  0.00000000000E+00  0.00000000000E+00  0.48175322944E+03  0.48175322944E+03  0.00000000000E+00 0. -1.
         -2   -1    0    0    0  501 -0.00000000000E+00 -0.00000000000E+00 -0.38612830680E+02  0.38612830680E+02  0.00000000000E+00 0.  1.
         23    2    1    2    0    0 -0.15906728901E+02  0.13053682866E+02  0.10728654807E+03  0.14273572206E+03  0.91867623763E+02 0.  0.
         23    2    1    2    0    0 -0.22165842108E+02 -0.32473486510E+02  0.31482973571E+03  0.32999985572E+03  0.90754010416E+02 0.  0.
        -11    1    3    3    0    0 -0.23994896870E+02  0.47148523239E+02  0.38142873241E+02  0.65219760031E+02  0.00000000000E+00 0.  1.
         11    1    3    3    0    0  0.80881679692E+01 -0.34094840373E+02  0.69143674826E+02  0.77515962031E+02  0.00000000000E+00 0. -1.
        -13    1    4    4    0    0  0.22533008122E+02 -0.20629970790E+02  0.35356846618E+02  0.46727280603E+02  0.00000000000E+00 0. -1.
         13    1    4    4    0    0 -0.44698850230E+02 -0.11843515720E+02  0.27947288909E+03  0.28327257512E+03  0.00000000000E+00 0.  1.
         21    1    1    2  502  501  0.38072571009E+02  0.19419803644E+02  0.21024114983E+02  0.47630482336E+02  0.00000000000E+00 0.  1.
<scales pt_clust_5="13000.00000" pt_clust_6="13000.00000" pt_clust_7="13000.00000" pt_clust_8="13000.00000" pt_clust_9="42.73932"></scales>
<clustering>
<clus scale="   42.739">  2  9  1 -1</clus>
<clus scale="   90.754">  7  8 -1 -1</clus>
<clus scale="   91.868">  5  6 -1 -1</clus>
<clus scale="   95.197">  1  7  2 -1</clus>
<clus scale="   95.197">  1  5  2 -1</clus>
</clustering>
</event>
<event>
 9    1  0.1803370E-005  0.1046823E+03  0.7546771E-02  0.1276130E+00
          1   -1    0    0  502    0  0.00000000000E+00  0.00000000000E+00  0.30014386973E+03  0.30014386973E+03  0.00000000000E+00 0. -1.
         -1   -1    0    0    0  501 -0.00000000000E+00 -0.00000000000E+00 -0.77951368566E+02  0.77951368566E+02  0.00000000000E+00 0.  1.
         23    2    1    2    0    0 -0.13984235929E+02 -0.12554026765E+02 -0.19880271589E+02  0.96619538455E+02  0.92665784248E+02 0.  0.
         23    2    1    2    0    0 -0.13602830122E+02  0.28960189079E+02  0.15700490956E+03  0.19055403178E+03  0.10313373775E+03 0.  0.
        -13    1    4    4    0    0  0.22558407266E+02  0.56041305810E+02  0.10908317773E+03  0.12469422344E+03  0.00000000000E+00 0. -1.
         13    1    4    4    0    0 -0.36161237388E+02 -0.27081116731E+02  0.47921731828E+02  0.65859808338E+02  0.00000000000E+00 0.  1.
        -13    1    3    3    0    0  0.98081832798E+01 -0.42516537603E+02 -0.34537558810E+02  0.55647995450E+02  0.00000000000E+00 0.  1.
         13    1    3    3    0    0 -0.23792419209E+02  0.29962510838E+02  0.14657287221E+02  0.40971543005E+02  0.00000000000E+00 0. -1.
         21    1    1    2  502  501  0.27587066051E+02 -0.16406162315E+02  0.85067863189E+02  0.90921668059E+02  0.00000000000E+00 0.  1.
<scales pt_clust_5="13000.00000" pt_clust_6="13000.00000" pt_clust_7="13000.00000" pt_clust_8="13000.00000" pt_clust_9="32.09686"></scales>
<clustering>
<clus scale="   32.097">  1  9  2 -1</clus>
<clus scale="   92.666">  7  8 -1 -1</clus>
<clus scale="   94.386">  2  7  1 -1</clus>
<clus scale="  103.134">  5  6 -1 -1</clus>
<clus scale="   32.097">  1  5  2 -1</clus>
</clustering>
</event>
<event>
 9    1  0.1803370E-005  0.1974861E+03  0.7546771E-02  0.1151955E+00
         -1   -1    0    0    0  501 -0.00000000000E+00  0.00000000000E+00  0.11925206107E+03  0.11925206107E+03  0.00000000000E+00 0.  1.
          1   -1    0    0  502    0  0.00000000000E+00 -0.00000000000E+00 -0.62752482854E+03  0.62752482854E+03  0.00000000000E+00 0. -1.
         23    2    1    2    0    0 -0.17519301251E+03  0.20074674127E+02 -0.58578343996E+01  0.19852879467E+03  0.91015294957E+02 0.  0.
         23    2    1    2    0    0  0.17163446202E+03  0.48106018770E+01 -0.45389248430E+03  0.49360042089E+03  0.90230026919E+02 0.  0.
        -11    1    3    3    0    0 -0.11422707331E+03 -0.10436503600E+02  0.33900861954E+02  0.11960774777E+03  0.00000000000E+00 0.  1.
         11    1    3    3    0    0 -0.60965939197E+02  0.30511177727E+02 -0.39758696353E+02  0.78921046902E+02  0.00000000000E+00 0. -1.
        -13    1    4    4    0    0  0.10945199040E+03 -0.31812037974E+02 -0.20616164621E+03  0.23557242693E+03  0.00000000000E+00 0.  1.
         13    1    4    4    0    0  0.62182471618E+02  0.36622639851E+02 -0.24773083809E+03  0.25802799396E+03  0.00000000000E+00 0. -1.
         21    1    1    2  502  501  0.35585504942E+01 -0.24885276004E+02 -0.48522448778E+02  0.54647674048E+02  0.00000000000E+00 0. -1.
<scales pt_clust_5="13000.00000" pt_clust_6="13000.00000" pt_clust_7="13000.00000" pt_clust_8="13000.00000" pt_clust_9="25.13842"></scales>
<clustering>
<clus scale="   25.138">  2  9  1 -1</clus>
<clus scale="   90.230">  7  8 -1 -1</clus>
<clus scale="   91.015">  5  6 -1 -1</clus>
<clus scale="  197.125">  2  7  1 -1</clus>
<clus scale="   25.138">  2  5  1 -1</clus>
</clustering>
</event>
<event>
 9    1  0.1803370E-005  0.1063527E+03  0.7546771E-02  0.1270515E+00
         -1   -1    0    0    0  501 -0.00000000000E+00  0.00000000000E+00  0.69317244449E+03  0.69317244449E+03  0.00000000000E+00 0.  1.
          1   -1    0    0  502    0  0.00000000000E+00 -0.00000000000E+00 -0.27225320559E+02  0.27225320559E+02  0.00000000000E+00 0. -1.
         23    2    1    2    0    0  0.14508243479E+02 -0.68978817346E+02  0.36915613611E+03  0.38649686900E+03  0.90194293333E+02 0.  0.
         23    2    1    2    0    0  0.25492551815E+02  0.42528744773E+02  0.24474088868E+03  0.26312743503E+03  0.82942028824E+02 0.  0.
        -13    1    4    4    0    0  0.38167917877E+02 -0.32494249465E+01  0.17226500308E+03  0.17647260412E+03  0.00000000000E+00 0.  1.
         13    1    4    4    0    0 -0.12675366062E+02  0.45778169719E+02  0.72475885597E+02  0.86654830914E+02  0.00000000000E+00 0. -1.
        -13    1    3    3    0    0  0.46566754842E+02 -0.17109698088E+02  0.11720903988E+03  0.12727593431E+03  0.00000000000E+00 0.  1.
         13    1    3    3    0    0 -0.32058511364E+02 -0.51869119258E+02  0.25194709623E+03  0.25922093469E+03  0.00000000000E+00 0. -1.
         21    1    1    2  502  501 -0.40000795294E+02  0.26450072573E+02  0.52050099145E+02  0.70773461017E+02  0.00000000000E+00 0. -1.
<scales pt_clust_5="13000.00000" pt_clust_6="13000.00000" pt_clust_7="13000.00000" pt_clust_8="13000.00000" pt_clust_9="47.95487"></scales>
<clustering>
<clus scale="   47.955">  2  9  1 -1</clus>
<clus scale="   82.942">  5  6 -1 -1</clus>
<clus scale="   90.194">  7  8 -1 -1</clus>
<clus scale="  100.276">  2  5  1 -1</clus>
<clus scale="   47.955">  2  5  1 -1</clus>
</clustering>
</event>
<event>
 9    1  0.1803370E-005  0.1106347E+03  0.7546771E-02  0.1261186E+00
         -1   -1    0    0    0  501 -0.00000000000E+00  0.00000000000E+00  0.37920856376E+02  0.37920856376E+02  0.00000000000E+00 0.  1.
          1   -1    0    0  502    0  0.00000000000E+00 -0.00000000000E+00 -0.59493470881E+03  0.59493470881E+03  0.00000000000E+00 0. -1.
         23    2    1    2    0    0 -0.19997442741E+02  0.35399914535E+02 -0.63101053748E+02  0.11316012048E+03  0.84678321999E+02 0.  0.
         23    2    1    2    0    0  0.54803832308E+02 -0.48312457681E+02 -0.43492816536E+03  0.45000035526E+03  0.89444156353E+02 0.  0.
        -11    1    4    4    0    0 -0.20682364702E+02  0.35434219175E+01 -0.48079882238E+02  0.52459423601E+02  0.00000000000E+00 0.  1.
         11    1    4    4    0    0  0.75486197010E+02 -0.51855879599E+02 -0.38684828312E+03  0.39754093166E+03  0.00000000000E+00 0. -1.
        -13    1    3    3    0    0 -0.15955757029E+01  0.45490357757E+02  0.11863854184E+01  0.45533789882E+02  0.00000000000E+00 0.  1.
         13    1    3    3    0    0 -0.18401867038E+02 -0.10090443223E+02 -0.64287439166E+02  0.67626330593E+02  0.00000000000E+00 0. -1.
         21    1    1    2  502  501 -0.34806389567E+02  0.12912543146E+02 -0.58984633319E+02  0.69695089447E+02  0.00000000000E+00 0. -1.
<scales pt_clust_5="13000.00000" pt_clust_6="13000.00000" pt_clust_7="13000.00000" pt_clust_8="13000.00000" pt_clust_9="37.12437"></scales>
<clustering>
<clus scale="   37.124">  1  9  2 -1</clus>
<clus scale="   84.678">  7  8 -1 -1</clus>
<clus scale="   89.444">  5  6 -1 -1</clus>
<clus scale="  106.819">  1  7  2 -1</clus>
<clus scale="  110.635">  2  5  1 -1</clus>
</clustering>
</event>
<event>
 9    1  0.1803370E-005  0.1084553E+03  0.7546771E-02  0.1264608E+00
          1   -1    0    0  502    0  0.00000000000E+00  0.00000000000E+00  0.39426082727E+02  0.39426082727E+02  0.00000000000E+00 0. -1.
         -1   -1    0    0    0  501 -0.00000000000E+00 -0.00000000000E+00 -0.62250543509E+03  0.62250543509E+03  0.00000000000E+00 0.  1.
         23    2    1    2    0    0 -0.64405908471E+02 -0.27758652357E+02 -0.44803448107E+03  0.46230192887E+03  0.89830470201E+02 0.  0.
         23    2    1    2    0    0  0.53675202054E+02  0.58311706342E+01 -0.64888766387E+02  0.12534741363E+03  0.92662787756E+02 0.  0.
        -11    1    4    4    0    0  0.49089108467E+02  0.43234827980E+02 -0.23836274314E+02  0.69621540444E+02  0.00000000000E+00 0. -1.
         11    1    4    4    0    0  0.45860935862E+01 -0.37403657346E+02 -0.41052492073E+02  0.55725873189E+02  0.00000000000E+00 0.  1.
        -11    1    3    3    0    0 -0.68564218164E+02 -0.53418511862E+02 -0.36916846181E+03  0.37926236646E+03  0.00000000000E+00 0.  1.
         11    1    3    3    0    0  0.41583096923E+01  0.25659859505E+02 -0.78866019266E+02  0.83039562404E+02  0.00000000000E+00 0. -1.
         21    1    1    2  502  501  0.10730706418E+02  0.21927481723E+02 -0.70156104903E+02  0.74282175318E+02  0.00000000000E+00 0.  1.
<scales pt_clust_5="13000.00000" pt_clust_6="13000.00000" pt_clust_7="13000.00000" pt_clust_8="13000.00000" pt_clust_9="24.41234"></scales>
<clustering>
<clus scale="   24.412">  2  9  1 -1</clus>
<clus scale="   89.830">  7  8 -1 -1</clus>
<clus scale="   92.663">  5  6 -1 -1</clus>
<clus scale="  106.046">  2  7  1 -1</clus>
<clus scale="  108.455">  1  5  2 -1</clus>
</clustering>
</event>
<event>
 9    1  0.1803370E-005  0.1609603E+03  0.7546771E-02  0.1187662E+00
         -1   -1    0    0    0  501 -0.00000000000E+00  0.00000000000E+00  0.21112097826E+03  0.21112097826E+03  0.00000000000E+00 0.  1.
          1   -1    0    0  502    0  0.00000000000E+00 -0.00000000000E+00 -0.23138527335E+03  0.23138527335E+03  0.00000000000E+00 0. -1.
         23    2    1    2    0    0  0.26652706176E+02  0.12703899952E+03  0.51326744641E+02  0.16622877902E+03  0.90267924046E+02 0.  0.
         23    2    1    2    0    0 -0.84128343444E+02 -0.11772906400E+03  0.15954166411E+02  0.17113810367E+03  0.89977799609E+02 0.  0.
        -11    1    4    4    0    0 -0.42800814046E+02 -0.14867492772E+02 -0.26434218238E+02  0.52456838621E+02  0.00000000000E+00 0.  1.
         11    1    4    4    0    0 -0.41327529399E+02 -0.10286157123E+03  0.42388384648E+02  0.11868126505E+03  0.00000000000E+00 0. -1.
        -13    1    3    3    0    0  0.40226776227E+02  0.64858035120E+02  0.66016117650E+02  0.10091028706E+03  0.00000000000E+00 0. -1.
         13    1    3    3    0    0 -0.13574070051E+02  0.62180964404E+02 -0.14689373009E+02  0.65318491955E+02  0.00000000000E+00 0.  1.
         21    1    1    2  502  501  0.57475637268E+02 -0.93099355265E+01 -0.87545206146E+02  0.10513936893E+03  0.00000000000E+00 0.  1.
<scales pt_clust_5="13000.00000" pt_clust_6="13000.00000" pt_clust_7="13000.00000" pt_clust_8="13000.00000" pt_clust_9="58.22477"></scales>
<clustering>
<clus scale="   58.225">  2  9  1 -1</clus>
<clus scale="   89.978">  5  6 -1 -1</clus>
<clus scale="   90.268">  7  8 -1 -1</clus>
<clus scale="  160.798">  2  5  1 -1</clus>
<clus scale="   58.225">  2  5  1 -1</clus>
</clustering>
</event>
<event>
 9    1  0.1803370E-005  0.2048331E+03  0.7546771E-02  0.1145814E+00
         -1   -1    0    0    0  501 -0.00000000000E+00  0.00000000000E+00  0.74311143158E+02  0.74311143158E+02  0.00000000000E+00 0.  1.
          1   -1    0    0  502    0  0.00000000000E+00 -0.00000000000E+00 -0.71410266164E+03  0.71410266164E+03  0.00000000000E+00 0. -1.
         23    2    1    2    0    0 -0.13437356455E+03  0.14279737353E+03 -0.19554779073E+03  0.29174336830E+03  0.91803647788E+02 0.  0.
         23    2    1    2    0    0  0.12401828872E+03 -0.12540632449E+03 -0.42141719787E+03  0.46616255570E+03  0.92778184520E+02 0.  0.
        -11    1    4    4    0    0  0.56497170942E+02 -0.10884506403E+03 -0.32440775825E+03  0.34681345403E+03  0.00000000000E+00 0. -1.
         11    1    4    4    0    0  0.67521117777E+02 -0.16561260462E+02 -0.97009439619E+02  0.11934910167E+03  0.00000000000E+00 0.  1.
        -11    1    3    3    0    0 -0.12467270846E+02  0.39511410964E+02 -0.93203715752E+02  0.10199763266E+03  0.00000000000E+00 0. -1.
         11    1    3    3    0    0 -0.12190629370E+03  0.10328596257E+03 -0.10234407498E+03  0.18974573563E+03  0.00000000000E+00 0.  1.
         21    1    1    2  502  501  0.10355275827E+02 -0.17391049044E+02 -0.22826529878E+02  0.30507880795E+02  0.00000000000E+00 0. -1.
<scales pt_clust_5="13000.00000" pt_clust_6="13000.00000" pt_clust_7="13000.00000" pt_clust_8="13000.00000" pt_clust_9="20.24056"></scales>
<clustering>
<clus scale="   20.241">  1  9  2 -1</clus>
<clus scale="   91.804">  7  8 -1 -1</clus>
<clus scale="   92.778">  5  6 -1 -1</clus>
<clus scale="  204.394">  1  7  2 -1</clus>
<clus scale="  204.833">  2  5  1 -1</clus>
</clustering>
</event>
<event>
 9    1  0.1803370E-005  0.1039714E+03  0.7546771E-02  0.1273292E+00
          1   -1    0    0  502    0  0.00000000000E+00  0.00000000000E+00  0.14092377622E+03  0.14092377622E+03  0.00000000000E+00 0. -1.
         -1   -1    0    0    0  501 -0.00000000000E+00 -0.00000000000E+00 -0.16314939883E+03  0.16314939883E+03  0.00000000000E+00 0.  1.
         23    2    1    2    0    0 -0.26390237647E+02  0.47679370269E+02 -0.51794643286E+02  0.11717225572E+03  0.89871494057E+02 0.  0.
         23    2    1    2    0    0  0.57852688125E+02  0.27396167689E+01 -0.18315365837E+02  0.11058005379E+03  0.92401605225E+02 0.  0.
        -11    1    3    3    0    0  0.11729887984E+02 -0.22237346880E+02 -0.85566350960E+01  0.26557595383E+02  0.00000000000E+00 0. -1.
         11    1    3    3    0    0 -0.38120125631E+02  0.69916717148E+02 -0.43238008190E+02  0.90614660332E+02  0.00000000000E+00 0.  1.
        -13    1    4    4    0    0  0.58279929925E+02 -0.28048165738E+02  0.13751582005E+02  0.66123791793E+02  0.00000000000E+00 0. -1.
         13    1    4    4    0    0 -0.42724180084E+00  0.30787782507E+02 -0.32066947842E+02  0.44456262002E+02  0.00000000000E+00 0.  1.
         21    1    1    2  502  501 -0.31462450478E+02 -0.50418987037E+02  0.47884386513E+02  0.76320865533E+02  0.00000000000E+00 0.  1.
<scales pt_clust_5="13000.00000" pt_clust_6="13000.00000" pt_clust_7="13000.00000" pt_clust_8="13000.00000" pt_clust_9="59.43030"></scales>
<clustering>
<clus scale="   59.430">  1  9  2 -1</clus>
<clus scale="   89.871">  5  6 -1 -1</clus>
<clus scale="   92.402">  7  8 -1 -1</clus>
<clus scale="  101.729">  2  5  1 -1</clus>
<clus scale="   59.430">  1  5  2 -1</clus>
</clustering>
</event>
<event>
 9    1  0.1803370E-005  0.9750699E+02  0.7546771E-02  0.1285722E+00
         -2   -1    0    0    0  501 -0.00000000000E+00  0.00000000000E+00  0.42697282977E+02  0.42697282977E+02  0.00000000000E+00 0.  1.
          2   -1    0    0  502    0  0.00000000000E+00 -0.00000000000E+00 -0.33610032794E+03  0.33610032794E+03  0.00000000000E+00 0. -1.
         23    2    1    2    0    0  0.36933241116E+02  0.10609571490E+02 -0.89572135924E+02  0.13336768180E+03  0.91033750373E+02 0.  0.
         23    2    1    2    0    0 -0.20619451665E+02 -0.26884594316E+02 -0.10178923451E+03  0.14081865136E+03  0.91218973414E+02 0.  0.
        -11    1    3    3    0    0 -0.48303534114E+01  0.32613825492E+02 -0.78120519608E+02  0.84792744448E+02  0.00000000000E+00 0. -1.
         11    1    3    3    0    0  0.41763594527E+02 -0.22004254002E+02 -0.11451616317E+02  0.48574937347E+02  0.00000000000E+00 0.  1.
        -13    1    4    4    0    0  0.18418176231E+02 -0.44785550156E+02 -0.29406736967E+02  0.56654487002E+02  0.00000000000E+00 0.  1.
         13    1    4    4    0    0 -0.39037627896E+02  0.17900955840E+02 -0.72382497547E+02  0.84164164363E+02  0.00000000000E+00 0. -1.
         21    1    1    2  502  501 -0.16313789451E+02  0.16275022826E+02 -0.10204167452E+03  0.10461127775E+03  0.00000000000E+00 0. -1.
<scales pt_clust_5="13000.00000" pt_clust_6="13000.00000" pt_clust_7="13000.00000" pt_clust_8="13000.00000" pt_clust_9="23.04379"></scales>
<clustering>
<clus scale="   23.044">  2  9  1 -1</clus>
<clus scale="   91.034">  5  6 -1 -1</clus>
<clus scale="   91.219">  7  8 -1 -1</clus>
<clus scale="   97.334">  1  5  2 -1</clus>
<clus scale="   23.044">  2  5  1 -1</clus>
</clustering>
</event>
<event>
 9    1  0.1803370E-005  0.1188877E+03  0.7546771E-02  0.1246024E+00
         -1   -1    0    0    0  501 -0.00000000000E+00  0.00000000000E+00  0.61693770022E+02  0.61693770022E+02  0.00000000000E+00 0.  1.
          1   -1    0    0  502    0  0.00000000000E+00 -0.00000000000E+00 -0.46685969925E+03  0.46685969925E+03  0.00000000000E+00 0. -1.
         23    2    1    2    0    0 -0.31269074988E+00  0.66557247433E+02 -0.48497354782E+02  0.12077307142E+03  0.88341249690E+02 0.  0.
         23    2    1    2    0    0  0.27785316960E+02 -0.94936049631E+02 -0.17012788508E+03  0.21710389066E+03  0.91682739393E+02 0.  0.
        -11    1    4    4    0    0  0.32992789132E+02 -0.24245259808E+02 -0.12858200896E+03  0.13494328359E+03  0.00000000000E+00 0. -1.
         11    1    4    4    0    0 -0.52074721715E+01 -0.70690789824E+02 -0.41545876115E+02  0.82160607072E+02  0.00000000000E+00 0.  1.
        -13    1    3    3    0    0  0.22772814300E+02  0.77535903304E+02 -0.50232698646E+02  0.95151150206E+02  0.00000000000E+00 0. -1.
         13    1    3    3    0    0 -0.23085505050E+02 -0.10978655870E+02  0.17353438636E+01  0.25621921210E+02  0.00000000000E+00 0.  1.
         21    1    1    2  502  501 -0.27472626210E+02  0.28378802198E+02 -0.18654068936E+03  0.19067650719E+03  0.00000000000E+00 0. -1.
<scales pt_clust_5="13000.00000" pt_clust_6="13000.00000" pt_clust_7="13000.00000" pt_clust_8="13000.00000" pt_clust_9="39.49812"></scales>
<clustering>
<clus scale="   39.498">  2  9  1 -1</clus>
<clus scale="   88.341">  7  8 -1 -1</clus>
<clus scale="   91.683">  5  6 -1 -1</clus>
<clus scale="  116.330">  1  7  2 -1</clus>
<clus scale="   39.498">  2  5  1 -1</clus>
</clustering>
</event>
<event>
 9    1  0.1803370E-005  0.9796657E+02  0.7546771E-02  0.1285895E+00
          1   -1    0    0  502    0  0.00000000000E+00  0.00000000000E+00  0.84996188247E+03  0.84996188247E+03  0.00000000000E+00 0. -1.
         -1   -1    0    0    0  501 -0.00000000000E+00 -0.00000000000E+00 -0.18461008227E+02  0.18461008227E+02  0.00000000000E+00 0.  1.
         23    2    1    2    0    0  0.40006919238E+02 -0.60548568620E+01  0.18717230997E+03  0.21261840623E+03  0.92389924612E+02 0.  0.
         23    2    1    2    0    0 -0.16457247088E+02 -0.77276561100E+01  0.42548088913E+03  0.43526231245E+03  0.89937400308E+02 0.  0.
        -11    1    3    3    0    0 -0.16605985047E+02  0.27846337355E+02  0.85173358301E+02  0.91135493676E+02  0.00000000000E+00 0.  1.
         11    1    3    3    0    0  0.56612904285E+02 -0.33901194217E+02  0.10199895167E+03  0.12148291255E+03  0.00000000000E+00 0. -1.
        -13    1    4    4    0    0  0.36142611786E+02 -0.13773804845E+02  0.19124630168E+03  0.19511830768E+03  0.00000000000E+00 0. -1.
         13    1    4    4    0    0 -0.52599858874E+02  0.60461487354E+01  0.23423458745E+03  0.24014400477E+03  0.00000000000E+00 0.  1.
         21    1    1    2  502  501 -0.23549672150E+02  0.13782512972E+02  0.21884767515E+03  0.22054217202E+03  0.00000000000E+00 0.  1.
<scales pt_clust_5="13000.00000" pt_clust_6="13000.00000" pt_clust_7="13000.00000" pt_clust_8="13000.00000" pt_clust_9="27.28635"></scales>
<clustering>
<clus scale="   27.286">  1  9  2 -1</clus>
<clus scale="   89.937">  7  8 -1 -1</clus>
<clus scale="   92.390">  5  6 -1 -1</clus>
<clus scale="   95.657">  1  7  2 -1</clus>
<clus scale="   27.286">  1  5  2 -1</clus>
</clustering>
</event>
<event>
 9    1  0.1803370E-005  0.9518389E+02  0.7546771E-02  0.1291248E+00
          1   -1    0    0  502    0  0.00000000000E+00  0.00000000000E+00  0.32340964803E+02  0.32340964803E+02  0.00000000000E+00 0. -1.
         -1   -1    0    0    0  501 -0.00000000000E+00 -0.00000000000E+00 -0.41097782424E+03  0.41097782424E+03  0.00000000000E+00 0.  1.
         23    2    1    2    0    0 -0.53311724311E+01  0.10805314382E+02 -0.22057970809E+03  0.23960837953E+03  0.92798662186E+02 0.  0.
         23    2    1    2    0    0  0.18053205001E+02 -0.30471869745E+02 -0.14895926979E+03  0.17858283578E+03  0.91915788218E+02 0.  0.
        -13    1    4    4    0    0 -0.17231037500E+02 -0.34074328996E+02 -0.16744544855E+02  0.41693504677E+02  0.00000000000E+00 0. -1.
         13    1    4    4    0    0  0.35284242501E+02  0.36024592506E+01 -0.13221472493E+03  0.13688933110E+03  0.00000000000E+00 0.  1.
        -13    1    3    3    0    0  0.38960424080E+02 -0.13913075869E+02 -0.78288653513E+02  0.88547171573E+02  0.00000000000E+00 0.  1.
         13    1    3    3    0    0 -0.44291596511E+02  0.24718390251E+02 -0.14229105457E+03  0.15106120796E+03  0.00000000000E+00 0. -1.
         21    1    1    2  502  501 -0.12722032570E+02  0.19666555363E+02 -0.90978815627E+01  0.25127573729E+02  0.00000000000E+00 0. -1.
<scales pt_clust_5="13000.00000" pt_clust_6="13000.00000" pt_clust_7="13000.00000" pt_clust_8="13000.00000" pt_clust_9="23.42271"></scales>
<clustering>
<clus scale="   23.423">  1  9  2 -1</clus>
<clus scale="   91.916">  5  6 -1 -1</clus>
<clus scale="   92.799">  7  8 -1 -1</clus>
<clus scale="   94.323">  1  5  2 -1</clus>
<clus scale="   23.423">  1  5  2 -1</clus>
</clustering>
</event>
<event>
 9    1  0.1803370E-005  0.1227688E+03  0.7546771E-02  0.1248180E+00
         -1   -1    0    0    0  501 -0.00000000000E+00  0.00000000000E+00  0.37000655978E+02  0.37000655978E+02  0.00000000000E+00 0.  1.
          1   -1    0    0  502    0  0.00000000000E+00 -0.00000000000E+00 -0.59849651888E+03  0.59849651888E+03  0.00000000000E+00 0. -1.
         23    2    1    2    0    0  0.85681748138E+01 -0.49821807620E+02 -0.77198333797E+02  0.12926918481E+03  0.90527969529E+02 0.  0.
         23    2    1    2    0    0 -0.15084727983E+02  0.20987514394E+02 -0.40599141096E+03  0.42252775068E+03  0.11416063044E+03 0.  0.
        -13    1    3    3    0    0  0.41542488854E+02 -0.48664107623E+02 -0.27564233009E+02  0.69668936351E+02  0.00000000000E+00 0.  1.
         13    1    3    3    0    0 -0.32974314040E+02 -0.11576999972E+01 -0.49634100787E+02  0.59600248462E+02  0.00000000000E+00 0. -1.
        -13    1    4    4    0    0 -0.60069516587E+00 -0.46951209902E+02 -0.14269702348E+03  0.15022389109E+03  0.00000000000E+00 0.  1.
         13    1    4    4    0    0 -0.14484032818E+02  0.67938724296E+02 -0.26329438748E+03  0.27230385959E+03  0.00000000000E+00 0. -1.
         21    1    1    2  502  501  0.65165531695E+01  0.28834293226E+02 -0.78306118144E+02  0.83700239366E+02  0.00000000000E+00 0.  1.
<scales pt_clust_5="13000.00000" pt_clust_6="13000.00000" pt_clust_7="13000.00000" pt_clust_8="13000.00000" pt_clust_9="29.56149"></scales>
<clustering>
<clus scale="   29.561">  2  9  1 -1</clus>
<clus scale="   90.528">  5  6 -1 -1</clus>
<clus scale="  101.167">  1  5  2 -1</clus>
<clus scale="  114.161">  7  8 -1 -1</clus>
<clus scale="   29.561">  2  5  1 -1</clus>
</clustering>
</event>
<event>
 9    1  0.1803370E-005  0.1094516E+03  0.7546771E-02  0.1261596E+00
          1   -1    0    0  502    0  0.00000000000E+00  0.00000000000E+00  0.36649914628E+03  0.36649914628E+03  0.00000000000E+00 0. -1.
         -1   -1    0    0    0  501 -0.00000000000E+00 -0.00000000000E+00 -0.94786188901E+02  0.94786188901E+02  0.00000000000E+00 0.  1.
         23    2    1    2    0    0 -0.51740538337E+02  0.61350262281E+02  0.27716356205E+02  0.12436199049E+03  0.90866772186E+02 0.  0.
         23    2    1    2    0    0  0.63194736401E+02  0.27376622473E+02  0.21416487339E+03  0.24261750864E+03  0.90849371703E+02 0.  0.
        -13    1    4    4    0    0  0.46911203542E+02 -0.28621654256E+02  0.11766034550E+03  0.12986076010E+03  0.00000000000E+00 0. -1.
         13    1    4    4    0    0  0.16283532858E+02  0.55998276729E+02  0.96504527891E+02  0.11275674854E+03  0.00000000000E+00 0.  1.
        -13    1    3    3    0    0 -0.18016868450E+02  0.41333103456E+02 -0.30307294666E+02  0.54328308459E+02  0.00000000000E+00 0.  1.
         13    1    3    3    0    0 -0.33723669887E+02  0.20017158825E+02  0.58023650871E+02  0.70033682028E+02  0.00000000000E+00 0. -1.
         21    1    1    2  502  501 -0.11454198064E+02 -0.88726884755E+02  0.29831727791E+02  0.94305836058E+02  0.00000000000E+00 0.  1.
<scales pt_clust_5="13000.00000" pt_clust_6="13000.00000" pt_clust_7="13000.00000" pt_clust_8="13000.00000" pt_clust_9="89.46317"></scales>
<clustering>
<clus scale="   89.463">  2  9  1 -1</clus>
<clus scale="   90.849">  5  6 -1 -1</clus>
<clus scale="   90.867">  7  8 -1 -1</clus>
<clus scale="  109.437">  1  5  2 -1</clus>
<clus scale="  109.437">  1  5  2 -1</clus>
</clustering>
</event>
<event>
 9    1  0.1803370E-005  0.1675675E+03  0.7546771E-02  0.1180651E+00
         -1   -1    0    0    0  501 -0.00000000000E+00  0.00000000000E+00  0.11545453573E+03  0.11545453573E+03  0.00000000000E+00 0.  1.
          1   -1    0    0  502    0  0.00000000000E+00 -0.00000000000E+00 -0.39697456671E+03  0.39697456671E+03  0.00000000000E+00 0. -1.
         23    2    1    2    0    0 -0.29824691899E+02  0.12825582111E+03 -0.46310386140E+02  0.16611923715E+03  0.90065982443E+02 0.  0.
         23    2    1    2    0    0 -0.84370276456E+00 -0.15499139775E+03 -0.10191234086E+03  0.20694160226E+03  0.91736886351E+02 0.  0.
        -11    1    3    3    0    0  0.20544256854E+02  0.13585954390E+02 -0.31523595568E+02  0.40004771264E+02  0.00000000000E+00 0.  1.
         11    1    3    3    0    0 -0.50368948753E+02  0.11466986672E+03 -0.14786790572E+02  0.12611446589E+03  0.00000000000E+00 0. -1.
        -13    1    4    4    0    0 -0.38348556171E+02 -0.61006191660E+02 -0.70934395226E+02  0.10111407225E+03  0.00000000000E+00 0. -1.
         13    1    4    4    0    0  0.37504853407E+02 -0.93985206088E+02 -0.30977945631E+02  0.10582753001E+03  0.00000000000E+00 0.  1.
         21    1    1    2  502  501  0.30668394663E+02  0.26735576641E+02 -0.13329730398E+03  0.13936826302E+03  0.00000000000E+00 0. -1.
<scales pt_clust_5="13000.00000" pt_clust_6="13000.00000" pt_clust_7="13000.00000" pt_clust_8="13000.00000" pt_clust_9="40.68589"></scales>
<clustering>
<clus scale="   40.686">  2  9  1 -1</clus>
<clus scale="   90.066">  5  6 -1 -1</clus>
<clus scale="   91.737">  7  8 -1 -1</clus>
<clus scale="  166.659">  1  5  2 -1</clus>
<clus scale="   40.686">  2  5  1 -1</clus>
</clustering>
</event>
<event>
 9    1  0.1803370E-005  0.1119975E+03  0.7546771E-02  0.1266797E+00
         -3   -1    0    0    0  501 -0.00000000000E+00  0.00000000000E+00  0.31158457809E+02  0.31158457809E+02  0.00000000000E+00 0.  1.
          3   -1    0    0  502    0  0.00000000000E+00 -0.00000000000E+00 -0.44739980532E+03  0.44739980532E+03  0.00000000000E+00 0. -1.
         23    2    1    2    0    0  0.66978322437E+02  0.44797095509E+01 -0.13940877807E+03  0.17963197755E+03  0.91250624551E+02 0.  0.
         23    2    1    2    0    0 -0.61743586430E+02  0.15960152218E+02 -0.21730240161E+03  0.23576750716E+03  0.65566658909E+02 0.  0.
        -13    1    3    3    0    0  0.51728424069E+02 -0.15506910398E+02 -0.19971263428E+02  0.57577300125E+02  0.00000000000E+00 0.  1.
         13    1    3    3    0    0  0.15249898368E+02  0.19986619949E+02 -0.11943751464E+03  0.12205467742E+03  0.00000000000E+00 0. -1.
        -13    1    4    4    0    0 -0.34564337703E+02 -0.18227673146E+02 -0.53553771590E+02  0.66294403690E+02  0.00000000000E+00 0.  1.
         13    1    4    4    0    0 -0.27179248727E+02  0.34187825364E+02 -0.16374863002E+03  0.16947310347E+03  0.00000000000E+00 0. -1.
         21    1    1    2  502  501 -0.52347360070E+01 -0.20439861769E+02 -0.59530167826E+02  0.63158778421E+02  0.00000000000E+00 0. -1.
<scales pt_clust_5="13000.00000" pt_clust_6="13000.00000" pt_clust_7="13000.00000" pt_clust_8="13000.00000" pt_clust_9="21.09954"></scales>
<clustering>
<clus scale="   21.100">  2  9  1 -1</clus>
<clus scale="   65.567">  7  8 -1 -1</clus>
<clus scale="   91.251">  5  6 -1 -1</clus>
<clus scale="   92.281">  2  7  1 -1</clus>
<clus scale="   21.100">  2  5  1 -1</clus>
</clustering>
</event>
<event>
 9    1  0.1803370E-005  0.9539112E+02  0.7546771E-02  0.1292512E+00
          2   -1    0    0  502    0  0.00000000000E+00  0.00000000000E+00  0.72751466490E+03  0.72751466490E+03  0.00000000000E+00 0. -1.
         -2   -1    0    0    0  501 -0.00000000000E+00 -0.00000000000E+00 -0.18199253965E+02  0.18199253965E+02  0.00000000000E+00 0.  1.
         23    2    1    2    0    0  0.73562612720E+01  0.32175906638E+02  0.21394315552E+03  0.23457196093E+03  0.90348920915E+02 0.  0.
         23    2    1    2    0    0 -0.77333384110E+01 -0.20753566441E+01  0.40441875050E+03  0.41533629342E+03  0.94263456600E+02 0.  0.
        -11    1    4    4    0    0 -0.30573207023E+02 -0.39988103489E+02  0.21299051157E+03  0.21885777899E+03  0.00000000000E+00 0. -1.
         11    1    4    4    0    0  0.22839868612E+02  0.37912746845E+02  0.19142823893E+03  0.19647851443E+03  0.00000000000E+00 0.  1.
        -11    1    3    3    0    0  0.39653991555E+02  0.46096916356E+02  0.14293592686E+03  0.15533204412E+03  0.00000000000E+00 0.  1.
         11    1    3    3    0    0 -0.32297730283E+02 -0.13921009718E+02  0.71007228665E+02  0.79239916808E+02  0.00000000000E+00 0. -1.
         21    1    1    2  502  501  0.37707713903E+00 -0.30100549994E+02  0.90953504912E+02  0.95805664514E+02  0.00000000000E+00 0.  1.
<scales pt_clust_5="13000.00000" pt_clust_6="13000.00000" pt_clust_7="13000.00000" pt_clust_8="13000.00000" pt_clust_9="30.10291"></scales>
<clustering>
<clus scale="   30.103">  2  9  1 -1</clus>
<clus scale="   90.349">  7  8 -1 -1</clus>
<clus scale="   91.525">  2  7  1 -1</clus>
<clus scale="   94.263">  5  6 -1 -1</clus>
<clus scale="   95.391">  1  5  2 -1</clus>
</clustering>
</event>
<event>
 9    1  0.1803370E-005  0.1044916E+03  0.7546771E-02  0.1273495E+00
         -1   -1    0    0    0  501 -0.00000000000E+00  0.00000000000E+00  0.16969081990E+03  0.16969081990E+03  0.00000000000E+00 0.  1.
          1   -1    0    0  502    0  0.00000000000E+00 -0.00000000000E+00 -0.84731146499E+02  0.84731146499E+02  0.00000000000E+00 0. -1.
         23    2    1    2    0    0  0.82115797070E+01 -0.46706605960E+02  0.57578104505E+02  0.12254765037E+03  0.97230403735E+02 0.  0.
         23    2    1    2    0    0  0.14451407084E+02  0.28868655066E+02  0.31722703725E+02  0.10270842990E+03  0.92197880821E+02 0.  0.
        -11    1    3    3    0    0 -0.25408224767E+02  0.75826844540E+01  0.52097036521E+02  0.58456618133E+02  0.00000000000E+00 0.  1.
         11    1    3    3    0    0  0.33619804474E+02 -0.54289290414E+02  0.54810679841E+01  0.64091032234E+02  0.00000000000E+00 0. -1.
        -13    1    4    4    0    0 -0.69700147298E+00  0.59538666887E+02  0.58710599977E+01  0.59831496816E+02  0.00000000000E+00 0.  1.
         13    1    4    4    0    0  0.15148408557E+02 -0.30670011821E+02  0.25851643727E+02  0.42876933079E+02  0.00000000000E+00 0. -1.
         21    1    1    2  502  501 -0.22662986791E+02  0.17837950894E+02 -0.43411348305E+01  0.29165886135E+02  0.00000000000E+00 0.  1.
<scales pt_clust_5="13000.00000" pt_clust_6="13000.00000" pt_clust_7="13000.00000" pt_clust_8="13000.00000" pt_clust_9="28.84100"></scales>
<clustering>
<clus scale="   28.841">  2  9  1 -1</clus>
<clus scale="   92.198">  7  8 -1 -1</clus>
<clus scale="   97.230">  5  6 -1 -1</clus>
<clus scale="   99.826">  2  7  1 -1</clus>
<clus scale="   28.841">  2  5  1 -1</clus>
</clustering>
</event>
<event>
 9    1  0.1803370E-005  0.1067953E+03  0.7546771E-02  0.1268925E+00
          1   -1    0    0  502    0  0.00000000000E+00  0.00000000000E+00  0.63636670209E+02  0.63636670209E+02  0.00000000000E+00 0. -1.
         -1   -1    0    0    0  501 -0.00000000000E+00 -0.00000000000E+00 -0.28708619213E+03  0.28708619213E+03  0.00000000000E+00 0.  1.
         23    2    1    2    0    0 -0.35701368479E+02 -0.46142113683E+02 -0.15231668603E+03  0.18617348915E+03  0.89758079587E+02 0.  0.
         23    2    1    2    0    0  0.28778421655E+02  0.22139072752E+02 -0.87911218909E+02  0.13445639556E+03  0.95035802729E+02 0.  0.
        -11    1    3    3    0    0  0.24756451230E+02 -0.13663830323E+00 -0.69555393550E+02  0.73829894483E+02  0.00000000000E+00 0.  1.
         11    1    3    3    0    0 -0.60457819708E+02 -0.46005475380E+02 -0.82761292482E+02  0.11234359466E+03  0.00000000000E+00 0. -1.
        -11    1    4    4    0    0  0.89224933837E+01  0.52617604219E+02 -0.81651629306E+02  0.97545946765E+02  0.00000000000E+00 0.  1.
         11    1    4    4    0    0  0.19855928271E+02 -0.30478531467E+02 -0.62595896032E+01  0.36910448790E+02  0.00000000000E+00 0. -1.
         21    1    1    2  502  501  0.69229468238E+01  0.24003040931E+02  0.16778383015E+02  0.30092977641E+02  0.00000000000E+00 0.  1.
<scales pt_clust_5="13000.00000" pt_clust_6="13000.00000" pt_clust_7="13000.00000" pt_clust_8="13000.00000" pt_clust_9="24.98146"></scales>
<clustering>
<clus scale="   24.981">  1  9  2 -1</clus>
<clus scale="   89.758">  5  6 -1 -1</clus>
<clus scale="   95.036">  7  8 -1 -1</clus>
<clus scale="  102.127">  2  5  1 -1</clus>
<clus scale="   24.981">  1  5  2 -1</clus>
</clustering>
</event>
<event>
 9    1  0.1803370E-005  0.9691677E+02  0.7546771E-02  0.1287391E+00
          1   -1    0    0  502    0  0.00000000000E+00  0.00000000000E+00  0.38502573479E+03  0.38502573479E+03  0.00000000000E+00 0. -1.
         -1   -1    0    0    0  501 -0.00000000000E+00 -0.00000000000E+00 -0.10562678247E+03  0.10562678247E+03  0.00000000000E+00 0.  1.
         23    2    1    2    0    0 -0.32383947541E+02  0.19259162250E+02 -0.66158255121E+02  0.11592452665E+03  0.87418223330E+02 0.  0.
         23    2    1    2    0    0  0.64863363631E+02 -0.10182750870E+02  0.24313821145E+03  0.26689968053E+03  0.88364615329E+02 0.  0.
        -11    1    4    4    0    0  0.78721261025E+01  0.34587355222E+02  0.56828860682E+02  0.66990856966E+02  0.00000000000E+00 0.  1.
         11    1    4    4    0    0  0.56991237528E+02 -0.44770106092E+02  0.18630935077E+03  0.19990882357E+03  0.00000000000E+00 0. -1.
        -11    1    3    3    0    0 -0.96850280089E+01 -0.31411390357E+02 -0.46664568946E+02  0.57079393888E+02  0.00000000000E+00 0. -1.
         11    1    3    3    0    0 -0.22698919532E+02  0.50670552608E+02 -0.19493686175E+02  0.58845132766E+02  0.00000000000E+00 0.  1.
         21    1    1    2  502  501 -0.32479416090E+02 -0.90764113801E+01  0.10241899599E+03  0.10782831007E+03  0.00000000000E+00 0.  1.
<scales pt_clust_5="13000.00000" pt_clust_6="13000.00000" pt_clust_7="13000.00000" pt_clust_8="13000.00000" pt_clust_9="33.72379"></scales>
<clustering>
<clus scale="   33.724">  1  9  2 -1</clus>
<clus scale="   87.418">  7  8 -1 -1</clus>
<clus scale="   88.365">  5  6 -1 -1</clus>
<clus scale="   96.055">  2  7  1 -1</clus>
<clus scale="   33.724">  1  5  2 -1</clus>
</clustering>
</event>
<event>
 9    1  0.1803370E-005  0.9810452E+02  0.7546771E-02  0.1284513E+00
         -4   -1    0    0    0  501 -0.00000000000E+00  0.00000000000E+00  0.25957166189E+03  0.25957166189E+03  0.00000000000E+00 0.  1.
          4   -1    0    0  502    0  0.00000000000E+00 -0.00000000000E+00 -0.65997945688E+02  0.65997945688E+02  0.00000000000E+00 0. -1.
         23    2    1    2    0    0 -0.12947937246E+02 -0.27858045764E+02  0.15741667232E+03  0.18416603877E+03  0.90517408938E+02 0.  0.
         23    2    1    2    0    0  0.34655124119E+02  0.46363897589E+02  0.23949796727E+02  0.11037639689E+03  0.90877761857E+02 0.  0.
        -11    1    3    3    0    0  0.66407096851E+01 -0.51220934489E+02  0.47750003217E+02  0.70340215824E+02  0.00000000000E+00 0.  1.
         11    1    3    3    0    0 -0.19588646931E+02  0.23362888725E+02  0.10966666910E+03  0.11382582295E+03  0.00000000000E+00 0. -1.
        -13    1    4    4    0    0 -0.10120436112E+01  0.60563425940E+02 -0.71202455815E+01  0.60988939088E+02  0.00000000000E+00 0. -1.
         13    1    4    4    0    0  0.35667167730E+02 -0.14199528351E+02  0.31070042308E+02  0.49387457804E+02  0.00000000000E+00 0.  1.
         21    1    1    2  502  501 -0.21707186873E+02 -0.18505851825E+02  0.12207247154E+02  0.31027171911E+02  0.00000000000E+00 0.  1.
<scales pt_clust_5="13000.00000" pt_clust_6="13000.00000" pt_clust_7="13000.00000" pt_clust_8="13000.00000" pt_clust_9="28.52488"></scales>
<clustering>
<clus scale="   28.525">  2  9  1 -1</clus>
<clus scale="   90.517">  5  6 -1 -1</clus>
<clus scale="   90.878">  7  8 -1 -1</clus>
<clus scale="   97.771">  1  5  2 -1</clus>
<clus scale="   28.525">  2  5  1 -1</clus>
</clustering>
</event>
<event>
 9    1  0.1803370E-005  0.1155548E+03  0.7546771E-02  0.1250947E+00
         -1   -1    0    0    0  501 -0.00000000000E+00  0.00000000000E+00  0.15402429024E+03  0.15402429024E+03  0.00000000000E+00 0.  1.
          1   -1    0    0  502    0  0.00000000000E+00 -0.00000000000E+00 -0.24581770438E+03  0.24581770438E+03  0.00000000000E+00 0. -1.
         23    2    1    2    0    0 -0.74590387952E+02 -0.11263904067E+02  0.75969522722E+02  0.14025125090E+03  0.90600460745E+02 0.  0.
         23    2    1    2    0    0  0.60004568263E+02  0.26066435572E+02 -0.22973181849E+02  0.11331725250E+03  0.89627146296E+02 0.  0.
        -11    1    3    3    0    0 -0.39055292679E+02  0.52649986278E+01  0.90298010314E+02  0.98522925066E+02  0.00000000000E+00 0.  1.
         11    1    3    3    0    0 -0.35535095273E+02 -0.16528902695E+02 -0.14328487593E+02  0.41728325836E+02  0.00000000000E+00 0. -1.
        -11    1    4    4    0    0  0.18047565402E+02 -0.29984529732E+02 -0.25427831107E+02  0.43259232944E+02  0.00000000000E+00 0. -1.
         11    1    4    4    0    0  0.41957002861E+02  0.56050965304E+02  0.24546492573E+01  0.70058019552E+02  0.00000000000E+00 0.  1.
         21    1    1    2  502  501  0.14585819689E+02 -0.14802531505E+02 -0.14478975502E+03  0.14627349122E+03  0.00000000000E+00 0.  1.
<scales pt_clust_5="13000.00000" pt_clust_6="13000.00000" pt_clust_7="13000.00000" pt_clust_8="13000.00000" pt_clust_9="20.78127"></scales>
<clustering>
<clus scale="   20.781">  2  9  1 -1</clus>
<clus scale="   89.627">  7  8 -1 -1</clus>
<clus scale="   90.600">  5  6 -1 -1</clus>
<clus scale="  114.793">  2  7  1 -1</clus>
<clus scale="   20.781">  2  5  1 -1</clus>
</clustering>
</event>
<event>
 9    1  0.1803370E-005  0.1181056E+03  0.7546771E-02  0.1247355E+00
          2   -1    0    0  502    0  0.00000000000E+00  0.00000000000E+00  0.11067388969E+03  0.11067388969E+03  0.00000000000E+00 0. -1.
         -2   -1    0    0    0  501 -0.00000000000E+00 -0.00000000000E+00 -0.26250561730E+03  0.26250561730E+03  0.00000000000E+00 0.  1.
         23    2    1    2    0    0 -0.55253388148E+02  0.14788066043E+02 -0.10378392358E+03  0.15103065558E+03  0.93635102038E+02 0.  0.
         23    2    1    2    0    0  0.76722033989E+02 -0.78948171742E+02 -0.57972506454E+02  0.15376814042E+03  0.90358979531E+02 0.  0.
        -11    1    4    4    0    0  0.90873268403E+02 -0.62515582353E+02 -0.23085432112E+02  0.11269022195E+03  0.00000000000E+00 0.  1.
         11    1    4    4    0    0 -0.14151234414E+02 -0.16432589389E+02 -0.34887074342E+02  0.41077918468E+02  0.00000000000E+00 0. -1.
        -13    1    3    3    0    0 -0.43532816920E+02  0.39237445900E+02 -0.18371789349E+02  0.61418286801E+02  0.00000000000E+00 0. -1.
         13    1    3    3    0    0 -0.11720571228E+02 -0.24449379856E+02 -0.85412134230E+02  0.89612368783E+02  0.00000000000E+00 0.  1.
         21    1    1    2  502  501 -0.21468645841E+02  0.64160105699E+02  0.99247024272E+01  0.68380710992E+02  0.00000000000E+00 0. -1.
<scales pt_clust_5="13000.00000" pt_clust_6="13000.00000" pt_clust_7="13000.00000" pt_clust_8="13000.00000" pt_clust_9="67.65665"></scales>
<clustering>
<clus scale="   67.657">  1  9  2 -1</clus>
<clus scale="   90.359">  5  6 -1 -1</clus>
<clus scale="   93.635">  7  8 -1 -1</clus>
<clus scale="  115.526">  1  5  2 -1</clus>
<clus scale="   67.657">  1  5  2 -1</clus>
</clustering>
</event>
<event>
 9    1  0.1803370E-005  0.9391908E+02  0.7546771E-02  0.1294948E+00
         -2   -1    0    0    0  501 -0.00000000000E+00  0.00000000000E+00  0.38631177181E+03  0.38631177181E+03  0.00000000000E+00 0.  1.
          2   -1    0    0  502    0  0.00000000000E+00 -0.00000000000E+00 -0.36442352474E+02  0.36442352474E+02  0.00000000000E+00 0. -1.
         23    2    1    2    0    0 -0.19348007727E+02  0.45510756030E+01  0.24862174899E+03  0.26609144524E+03  0.92719067438E+02 0.  0.
         23    2    1    2    0    0  0.57802559157E+01  0.13026770123E+02  0.98212701657E+02  0.13425117341E+03  0.90413133438E+02 0.  0.
        -11    1    4    4    0    0  0.45433415327E+02  0.37294843932E+01  0.73866372343E+02  0.86800606249E+02  0.00000000000E+00 0.  1.
         11    1    4    4    0    0 -0.39653159411E+02  0.92972857298E+01  0.24346329314E+02  0.47450567165E+02  0.00000000000E+00 0. -1.
        -13    1    3    3    0    0 -0.59833048510E+01 -0.34678305549E+02  0.39497789492E+02  0.52900474359E+02  0.00000000000E+00 0. -1.
         13    1    3    3    0    0 -0.13364702876E+02  0.39229381152E+02  0.20912395950E+03  0.21319097088E+03  0.00000000000E+00 0.  1.
         21    1    1    2  502  501  0.13567751812E+02 -0.17577845726E+02  0.30349686858E+01  0.22411505628E+02  0.00000000000E+00 0. -1.
<scales pt_clust_5="13000.00000" pt_clust_6="13000.00000" pt_clust_7="13000.00000" pt_clust_8="13000.00000" pt_clust_9="22.20506"></scales>
<clustering>
<clus scale="   22.205">  2  9  1 -1</clus>
<clus scale="   90.413">  5  6 -1 -1</clus>
<clus scale="   91.643">  2  5  1 -1</clus>
<clus scale="   92.719">  7  8 -1 -1</clus>
<clus scale="   22.205">  2  5  1 -1</clus>
</clustering>
</event>
<event>
 9    1  0.1803370E-005  0.1104785E+03  0.7546771E-02  0.1273465E+00
          4   -1    0    0  502    0  0.00000000000E+00  0.00000000000E+00  0.10239803516E+03  0.10239803516E+03  0.00000000000E+00 0. -1.
         -4   -1    0    0    0  501 -0.00000000000E+00 -0.00000000000E+00 -0.16178127764E+03  0.16178127764E+03  0.00000000000E+00 0.  1.
         23    2    1    2    0    0  0.45447061430E+02  0.14660529104E+02 -0.56044877131E+02  0.12928200285E+03  0.10626590000E+03 0.  0.
         23    2    1    2    0    0 -0.13754654032E+02  0.24541251245E+02 -0.85276315246E+01  0.84220720160E+02  0.78923669990E+02 0.  0.
        -11    1    4    4    0    0  0.19260510386E+02 -0.16807428644E+02 -0.16908340702E+02  0.30648799377E+02  0.00000000000E+00 0.  1.
         11    1    4    4    0    0 -0.33015164418E+02  0.41348679888E+02  0.83807091776E+01  0.53571920783E+02  0.00000000000E+00 0. -1.
        -11    1    3    3    0    0 -0.68458232553E+01 -0.21840823877E+02  0.19747242646E+02  0.30229794505E+02  0.00000000000E+00 0. -1.
         11    1    3    3    0    0  0.52292884685E+02  0.36501352981E+02 -0.75792119778E+02  0.99052208348E+02  0.00000000000E+00 0.  1.
         21    1    1    2  502  501 -0.31692407397E+02 -0.39201780349E+02  0.51892661693E+01  0.50676589788E+02  0.00000000000E+00 0.  1.
<scales pt_clust_5="13000.00000" pt_clust_6="13000.00000" pt_clust_7="13000.00000" pt_clust_8="13000.00000" pt_clust_9="50.41020"></scales>
<clustering>
<clus scale="   50.410">  1  9  2 -1</clus>
<clus scale="   78.924">  5  6 -1 -1</clus>
<clus scale="   84.510">  1  5  2 -1</clus>
<clus scale="  106.266">  7  8 -1 -1</clus>
<clus scale="   50.410">  1  5  2 -1</clus>
</clustering>
</event>
<event>
 9    1  0.1803370E-005  0.1039260E+03  0.7546771E-02  0.1272518E+00
          1   -1    0    0  502    0  0.00000000000E+00  0.00000000000E+00  0.78420253276E+02  0.78420253276E+02  0.00000000000E+00 0. -1.
         -1   -1    0    0    0  501 -0.00000000000E+00 -0.00000000000E+00 -0.36904004778E+03  0.36904004778E+03  0.00000000000E+00 0.  1.
         23    2    1    2    0    0 -0.38259975546E+02  0.13746456302E+02 -0.22310979664E+03  0.24450052883E+03  0.91376892319E+02 0.  0.
         23    2    1    2    0    0  0.83608139254E+02  0.16175749051E+02 -0.79013986507E+02  0.14742477354E+03  0.90768265284E+02 0.  0.
        -11    1    3    3    0    0  0.28071101801E+02 -0.84466693626E+01 -0.80257422065E+02  0.85443471232E+02  0.00000000000E+00 0. -1.
         11    1    3    3    0    0 -0.66331077347E+02  0.22193125665E+02 -0.14285237458E+03  0.15905705759E+03  0.00000000000E+00 0.  1.
        -13    1    4    4    0    0 -0.19888719895E+02  0.33960713383E+01 -0.13174352790E+02  0.24096847326E+02  0.00000000000E+00 0.  1.
         13    1    4    4    0    0  0.10349685915E+03  0.12779677712E+02 -0.65839633716E+02  0.12332792621E+03  0.00000000000E+00 0. -1.
         21    1    1    2  502  501 -0.45348163708E+02 -0.29922205353E+02  0.11503988643E+02  0.55534998691E+02  0.00000000000E+00 0. -1.
<scales pt_clust_5="13000.00000" pt_clust_6="13000.00000" pt_clust_7="13000.00000" pt_clust_8="13000.00000" pt_clust_9="54.33042"></scales>
<clustering>
<clus scale="   54.330">  1  9  2 -1</clus>
<clus scale="   90.768">  7  8 -1 -1</clus>
<clus scale="   91.377">  5  6 -1 -1</clus>
<clus scale="  103.391">  1  7  2 -1</clus>
<clus scale="   54.330">  1  5  2 -1</clus>
</clustering>
</event>
<event>
 9    1  0.1803370E-005  0.1225068E+03  0.7546771E-02  0.1239557E+00
         -2   -1    0    0    0  501 -0.00000000000E+00  0.00000000000E+00  0.24484488527E+03  0.24484488527E+03  0.00000000000E+00 0.  1.
          2   -1    0    0  502    0  0.00000000000E+00 -0.00000000000E+00 -0.85770647791E+02  0.85770647791E+02  0.00000000000E+00 0. -1.
         23    2    1    2    0    0 -0.29572366361E+02 -0.55219013806E+02  0.53288706083E+02  0.12115553632E+03  0.88968047339E+02 0.  0.
         23    2    1    2    0    0  0.52922908399E+02  0.90173254798E+02  0.86000417067E+02  0.16300036344E+03  0.90779935189E+02 0.  0.
        -11    1    4    4    0    0  0.64346142138E+02  0.39846601138E+02  0.18286357140E+02  0.77862497312E+02  0.00000000000E+00 0. -1.
         11    1    4    4    0    0 -0.11423233738E+02  0.50326653660E+02  0.67714059927E+02  0.85137866132E+02  0.00000000000E+00 0.  1.
        -13    1    3    3    0    0 -0.37603834190E+02 -0.11615840707E+02 -0.12963184058E+02  0.41436942962E+02  0.00000000000E+00 0.  1.
         13    1    3    3    0    0  0.80314678293E+01 -0.43603173099E+02  0.66251890141E+02  0.79718593359E+02  0.00000000000E+00 0. -1.
         21    1    1    2  502  501 -0.23350542039E+02 -0.34954240992E+02  0.19785114324E+02  0.46459633292E+02  0.00000000000E+00 0. -1.
<scales pt_clust_5="13000.00000" pt_clust_6="13000.00000" pt_clust_7="13000.00000" pt_clust_8="13000.00000" pt_clust_9="42.03626"></scales>
<clustering>
<clus scale="   42.036">  2  9  1 -1</clus>
<clus scale="   88.968">  7  8 -1 -1</clus>
<clus scale="   90.780">  5  6 -1 -1</clus>
<clus scale="  121.170">  1  7  2 -1</clus>
<clus scale="   42.036">  2  5  1 -1</clus>
</clustering>
</event>
<event>
 9    1  0.1803370E-005  0.9610360E+02  0.7546771E-02  0.1289591E+00
          1   -1    0    0  502    0  0.00000000000E+00  0.00000000000E+00  0.46426947321E+03  0.46426947321E+03  0.00000000000E+00 0. -1.
         -1   -1    0    0    0  501 -0.00000000000E+00 -0.00000000000E+00 -0.73245921128E+02  0.73245921128E+02  0.00000000000E+00 0.  1.
         23    2    1    2    0    0 -0.15534158374E+02  0.17924845685E+02  0.34531391487E+02  0.10241937368E+03  0.93459621969E+02 0.  0.
         23    2    1    2    0    0  0.16410365254E+02  0.59435740134E+02  0.54429354353E+02  0.12328298871E+03  0.91838082495E+02 0.  0.
        -11    1    4    4    0    0  0.91644580018E+01  0.22008085376E+02  0.75882042302E+02  0.79538842438E+02  0.00000000000E+00 0. -1.
         11    1    4    4    0    0  0.72459072519E+01  0.37427654758E+02 -0.21452687949E+02  0.43744146270E+02  0.00000000000E+00 0.  1.
        -13    1    3    3    0    0  0.51281369366E+01 -0.31902507623E+02  0.36108089953E+02  0.48454741162E+02  0.00000000000E+00 0.  1.
         13    1    3    3    0    0 -0.20662295311E+02  0.49827353308E+02 -0.15766984658E+01  0.53964632522E+02  0.00000000000E+00 0. -1.
         21    1    1    2  502  501 -0.87620687948E+00 -0.77360585819E+02  0.30206280625E+03  0.31181303195E+03  0.00000000000E+00 0. -1.
<scales pt_clust_5="13000.00000" pt_clust_6="13000.00000" pt_clust_7="13000.00000" pt_clust_8="13000.00000" pt_clust_9="77.36555"></scales>
<clustering>
<clus scale="   77.366">  1  9  2 -1</clus>
<clus scale="   91.838">  5  6 -1 -1</clus>
<clus scale="   93.460">  7  8 -1 -1</clus>
<clus scale="   94.527">  1  5  2 -1</clus>
<clus scale="   77.366">  1  5  2 -1</clus>
</clustering>
</event>
<event>
 9    1  0.1803370E-005  0.1029706E+03  0.7546771E-02  0.1274438E+00
          1   -1    0    0  502    0  0.00000000000E+00  0.00000000000E+00  0.17405345536E+03  0.17405345536E+03  0.00000000000E+00 0. -1.
         -1   -1    0    0    0  501 -0.00000000000E+00 -0.00000000000E+00 -0.50429552891E+03  0.50429552891E+03  0.00000000000E+00 0.  1.
         23    2    1    2    0    0 -0.49643541103E+02  0.15593737031E+02 -0.39443514429E+03  0.40816494388E+03  0.91169581277E+02 0.  0.
         23    2    1    2    0    0  0.16592724563E+02 -0.33891490706E+02 -0.76005559619E+02  0.12498479722E+03  0.91762752744E+02 0.  0.
        -13    1    4    4    0    0  0.21326452887E+02 -0.11815680778E+02  0.16711447088E+02  0.29558422975E+02  0.00000000000E+00 0. -1.
         13    1    4    4    0    0 -0.47337283241E+01 -0.22075809928E+02 -0.92717006707E+02  0.95426374240E+02  0.00000000000E+00 0.  1.
        -13    1    3    3    0    0 -0.65082108988E+02 -0.18350958264E+02 -0.26096030312E+03  0.26957877955E+03  0.00000000000E+00 0.  1.
         13    1    3    3    0    0  0.15438567885E+02  0.33944695295E+02 -0.13347484117E+03  0.13858616433E+03  0.00000000000E+00 0. -1.
         21    1    1    2  502  501  0.33050816540E+02  0.18297753674E+02  0.14019863037E+03  0.14519924318E+03  0.00000000000E+00 0. -1.
<scales pt_clust_5="13000.00000" pt_clust_6="13000.00000" pt_clust_7="13000.00000" pt_clust_8="13000.00000" pt_clust_9="37.77783"></scales>
<clustering>
<clus scale="   37.778">  1  9  2 -1</clus>
<clus scale="   91.170">  7  8 -1 -1</clus>
<clus scale="   91.763">  5  6 -1 -1</clus>
<clus scale="  102.442">  2  7  1 -1</clus>
<clus scale="   37.778">  1  5  2 -1</clus>
</clustering>
</event>
<event>
 9    1  0.1803370E-005  0.9625380E+02  0.7546771E-02  0.1288474E+00
         -2   -1    0    0    0  501 -0.00000000000E+00  0.00000000000E+00  0.95568672510E+02  0.95568672510E+02  0.00000000000E+00 0.  1.
          2   -1    0    0  502    0  0.00000000000E+00 -0.00000000000E+00 -0.30543644895E+03  0.30543644895E+03  0.00000000000E+00 0. -1.
         23    2    1    2    0    0  0.58962329458E+01  0.32472402020E+02  0.53631704118E+02  0.11079082981E+03  0.91153857991E+02 0.  0.
         23    2    1    2    0    0 -0.18259495091E+02 -0.71246108398E+01 -0.20143850020E+03  0.22204592617E+03  0.91338681448E+02 0.  0.
        -11    1    3    3    0    0 -0.21628998793E+02  0.55514034415E+02  0.42584514763E+02  0.73232933189E+02  0.00000000000E+00 0.  1.
         11    1    3    3    0    0  0.27525231739E+02 -0.23041632395E+02  0.11047189355E+02  0.37557896618E+02  0.00000000000E+00 0. -1.
        -13    1    4    4    0    0  0.29885964660E+02  0.95864582305E+01 -0.30855902848E+02  0.44013154916E+02  0.00000000000E+00 0.  1.
         13    1    4    4    0    0 -0.48145459750E+02 -0.16711069070E+02 -0.17058259735E+03  0.17803277126E+03  0.00000000000E+00 0. -1.
         21    1    1    2  502  501  0.12363262145E+02 -0.25347791180E+02 -0.62060980358E+02  0.68168365475E+02  0.00000000000E+00 0. -1.
<scales pt_clust_5="13000.00000" pt_clust_6="13000.00000" pt_clust_7="13000.00000" pt_clust_8="13000.00000" pt_clust_9="28.20214"></scales>
<clustering>
<clus scale="   28.202">  2  9  1 -1</clus>
<clus scale="   91.154">  5  6 -1 -1</clus>
<clus scale="   91.339">  7  8 -1 -1</clus>
<clus scale="   96.078">  1  5  2 -1</clus>
<clus scale="   28.202">  2  5  1 -1</clus>
</clustering>
</event>
<event>
 9    1  0.1803370E-005  0.1038500E+03  0.7546771E-02  0.1272600E+00
          1   -1    0    0  502    0  0.00000000000E+00  0.00000000000E+00  0.33985791734E+03  0.33985791734E+03  0.00000000000E+00 0. -1.
         -1   -1    0    0    0  501 -0.00000000000E+00 -0.00000000000E+00 -0.11270158100E+03  0.11270158100E+03  0.00000000000E+00 0.  1.
         23    2    1    2    0    0 -0.56354749755E+02  0.21378857357E+02 -0.60699338055E+02  0.12485108127E+03  0.90942121654E+02 0.  0.
         23    2    1    2    0    0  0.94066092334E+01 -0.47468425764E+01  0.10906076093E+03  0.14210568839E+03  0.90491769167E+02 0.  0.
        -13    1    3    3    0    0 -0.73651827854E+01 -0.32459385379E+02 -0.60529105774E+01  0.33830390821E+02  0.00000000000E+00 0. -1.
         13    1    3    3    0    0 -0.48989566970E+02  0.53838242737E+02 -0.54646427478E+02  0.91020690444E+02  0.00000000000E+00 0.  1.
        -13    1    4    4    0    0 -0.35065205229E+02 -0.40786961579E+01  0.15586581360E+02  0.38589453204E+02  0.00000000000E+00 0.  1.
         13    1    4    4    0    0  0.44471814462E+02 -0.66814641849E+00  0.93474179572E+02  0.10351623519E+03  0.00000000000E+00 0. -1.
         21    1    1    2  502  501  0.46948140522E+02 -0.16632014781E+02  0.17879491346E+03  0.18560272868E+03  0.00000000000E+00 0. -1.
<scales pt_clust_5="13000.00000" pt_clust_6="13000.00000" pt_clust_7="13000.00000" pt_clust_8="13000.00000" pt_clust_9="49.80715"></scales>
<clustering>
<clus scale="   49.807">  1  9  2 -1</clus>
<clus scale="   90.492">  7  8 -1 -1</clus>
<clus scale="   90.942">  5  6 -1 -1</clus>
<clus scale="  103.456">  1  7  2 -1</clus>
<clus scale="   49.807">  1  5  2 -1</clus>
</clustering>
</event>
<event>
 9    1  0.1803370E-005  0.9343245E+02  0.7546771E-02  0.1296750E+00
          2   -1    0    0  502    0  0.00000000000E+00  0.00000000000E+00  0.14498101765E+03  0.14498101765E+03  0.00000000000E+00 0. -1.
         -2   -1    0    0    0  501 -0.00000000000E+00 -0.00000000000E+00 -0.14266737861E+03  0.14266737861E+03  0.00000000000E+00 0.  1.
         23    2    1    2    0    0  0.31167237825E+01  0.14614234090E+02  0.31569316344E+02  0.95845017027E+02  0.89254443864E+02 0.  0.
         23    2    1    2    0    0 -0.19105667316E+02  0.19741915583E+02  0.46362943329E+02  0.10722106949E+03  0.92693394986E+02 0.  0.
        -13    1    3    3    0    0  0.42509274221E+02  0.25551130604E+02  0.18220031008E+02  0.52838132062E+02  0.00000000000E+00 0.  1.
         13    1    3    3    0    0 -0.39392550439E+02 -0.10936896514E+02  0.13349285336E+02  0.43006884965E+02  0.00000000000E+00 0. -1.
        -13    1    4    4    0    0 -0.31248102005E+02  0.46306760946E+02  0.43235360403E+01  0.56030821448E+02  0.00000000000E+00 0. -1.
         13    1    4    4    0    0  0.12142434689E+02 -0.26564845364E+02  0.42039407289E+02  0.51190248042E+02  0.00000000000E+00 0.  1.
         21    1    1    2  502  501  0.15988943534E+02 -0.34356149672E+02 -0.75618620628E+02  0.84582309742E+02  0.00000000000E+00 0.  1.
<scales pt_clust_5="13000.00000" pt_clust_6="13000.00000" pt_clust_7="13000.00000" pt_clust_8="13000.00000" pt_clust_9="37.89448"></scales>
<clustering>
<clus scale="   37.894">  2  9  1 -1</clus>
<clus scale="   89.254">  5  6 -1 -1</clus>
<clus scale="   90.022">  2  5  1 -1</clus>
<clus scale="   92.693">  7  8 -1 -1</clus>
<clus scale="   93.432">  1  5  2 -1</clus>
</clustering>
</event>
<event>
 9    1  0.1803370E-005  0.9370937E+02  0.7546771E-02  0.1294345E+00
          1   -1    0    0  502    0  0.00000000000E+00  0.00000000000E+00  0.29874663393E+03  0.29874663393E+03  0.00000000000E+00 0. -1.
         -1   -1    0    0    0  501 -0.00000000000E+00 -0.00000000000E+00 -0.92976232881E+02  0.92976232881E+02  0.00000000000E+00 0.  1.
         23    2    1    2    0    0 -0.14075771355E+02 -0.19205120247E+01 -0.44111686711E+02  0.10295401974E+03  0.91934071868E+02 0.  0.
         23    2    1    2    0    0  0.45647928326E+02 -0.22426889081E+02  0.18689153528E+03  0.21422083074E+03  0.91517318863E+02 0.  0.
        -13    1    4    4    0    0 -0.21210023750E+02  0.11557502834E+02  0.80540002206E+02  0.84084082528E+02  0.00000000000E+00 0.  1.
         13    1    4    4    0    0  0.66857952075E+02 -0.33984391915E+02  0.10635153307E+03  0.13013674822E+03  0.00000000000E+00 0. -1.
        -13    1    3    3    0    0  0.23100473584E+02  0.90277555558E+01  0.17368293085E+02  0.30278537859E+02  0.00000000000E+00 0. -1.
         13    1    3    3    0    0 -0.37176244939E+02 -0.10948267581E+02 -0.61479979796E+02  0.72675481880E+02  0.00000000000E+00 0.  1.
         21    1    1    2  502  501 -0.31572156970E+02  0.24347401106E+02  0.62990552483E+02  0.74548016329E+02  0.00000000000E+00 0. -1.
<scales pt_clust_5="13000.00000" pt_clust_6="13000.00000" pt_clust_7="13000.00000" pt_clust_8="13000.00000" pt_clust_9="39.86975"></scales>
<clustering>
<clus scale="   39.870">  1  9  2 -1</clus>
<clus scale="   91.517">  5  6 -1 -1</clus>
<clus scale="   91.934">  7  8 -1 -1</clus>
<clus scale="   93.301">  1  5  2 -1</clus>
<clus scale="   39.870">  1  5  2 -1</clus>
</clustering>
</event>
<event>
 9    1  0.1803370E-005  0.1152034E+03  0.7546771E-02  0.1251346E+00
         -1   -1    0    0    0  501 -0.00000000000E+00  0.00000000000E+00  0.12273783062E+03  0.12273783062E+03  0.00000000000E+00 0.  1.
          1   -1    0    0  502    0  0.00000000000E+00 -0.00000000000E+00 -0.19375004421E+03  0.19375004421E+03  0.00000000000E+00 0. -1.
         23    2    1    2    0    0 -0.65127323964E+02  0.44333690051E+01  0.18771800082E+02  0.11304906781E+03  0.90368623802E+02 0.  0.
         23    2    1    2    0    0  0.80270785496E+02  0.12024285789E+02 -0.11187398248E+02  0.12172218212E+03  0.90017494349E+02 0.  0.
        -11    1    3    3    0    0 -0.82675832196E+02  0.23114359167E+02  0.14116769717E+02  0.86999138020E+02  0.00000000000E+00 0. -1.
         11    1    3    3    0    0  0.17548508232E+02 -0.18680990162E+02  0.46550303652E+01  0.26049929794E+02  0.00000000000E+00 0.  1.
        -13    1    4    4    0    0  0.62388413475E+02 -0.12590873799E+02  0.30124711686E+02  0.70415498955E+02  0.00000000000E+00 0.  1.
         13    1    4    4    0    0  0.17882372021E+02  0.24615159588E+02 -0.41312109934E+02  0.51306683169E+02  0.00000000000E+00 0. -1.
         21    1    1    2  502  501 -0.15143461532E+02 -0.16457654795E+02 -0.78596615421E+02  0.81716624894E+02  0.00000000000E+00 0.  1.
<scales pt_clust_5="13000.00000" pt_clust_6="13000.00000" pt_clust_7="13000.00000" pt_clust_8="13000.00000" pt_clust_9="22.36468"></scales>
<clustering>
<clus scale="   22.365">  2  9  1 -1</clus>
<clus scale="   90.017">  7  8 -1 -1</clus>
<clus scale="   90.369">  5  6 -1 -1</clus>
<clus scale="  114.928">  2  7  1 -1</clus>
<clus scale="   22.365">  2  5  1 -1</clus>
</clustering>
</event>
<event>
 9    1  0.1803370E-005  0.9335531E+02  0.7546771E-02  0.1296056E+00
          1   -1    0    0  502    0  0.00000000000E+00  0.00000000000E+00  0.72898903853E+02  0.72898903853E+02  0.00000000000E+00 0. -1.
         -1   -1    0    0    0  501 -0.00000000000E+00 -0.00000000000E+00 -0.23760735281E+03  0.23760735281E+03  0.00000000000E+00 0.  1.
         23    2    1    2    0    0 -0.60593240346E+01 -0.23316188615E+02 -0.16570853397E+03  0.18989184175E+03  0.89550171840E+02 0.  0.
         23    2    1    2    0    0  0.71634907392E+01 -0.45944412833E+01 -0.49363294085E+01  0.92058094038E+02  0.91530873696E+02 0.  0.
        -11    1    3    3    0    0  0.35057091726E+02  0.98037769031E+01 -0.43208124566E+02  0.56498280950E+02  0.00000000000E+00 0.  1.
         11    1    3    3    0    0 -0.41116415761E+02 -0.33119965518E+02 -0.12250040940E+03  0.13339356080E+03  0.00000000000E+00 0. -1.
        -11    1    4    4    0    0  0.47656725287E+02  0.76395806571E+01  0.52443422657E+01  0.48549251112E+02  0.00000000000E+00 0.  1.
         11    1    4    4    0    0 -0.40493234548E+02 -0.12234021940E+02 -0.10180671674E+02  0.43508842926E+02  0.00000000000E+00 0. -1.
         21    1    1    2  502  501 -0.11041667046E+01  0.27910629898E+02  0.59364144185E+01  0.28556320869E+02  0.00000000000E+00 0.  1.
<scales pt_clust_5="13000.00000" pt_clust_6="13000.00000" pt_clust_7="13000.00000" pt_clust_8="13000.00000" pt_clust_9="27.93246"></scales>
<clustering>
<clus scale="   27.932">  1  9  2 -1</clus>
<clus scale="   89.550">  5  6 -1 -1</clus>
<clus scale="   91.414">  2  5  1 -1</clus>
<clus scale="   91.531">  7  8 -1 -1</clus>
<clus scale="   27.932">  1  5  2 -1</clus>
</clustering>
</event>
<event>
 9    1  0.1803370E-005  0.1576955E+03  0.7546771E-02  0.1192777E+00
          1   -1    0    0  502    0  0.00000000000E+00  0.00000000000E+00  0.22818438804E+03  0.22818438804E+03  0.00000000000E+00 0. -1.
         -1   -1    0    0    0  501 -0.00000000000E+00 -0.00000000000E+00 -0.25123333545E+03  0.25123333545E+03  0.00000000000E+00 0.  1.
         23    2    1    2    0    0 -0.15673046116E+02 -0.13165375725E+03 -0.15934018010E+03  0.22743402899E+03  0.93587330207E+02 0.  0.
         23    2    1    2    0    0  0.51560183570E+01  0.11245204264E+03  0.30940799253E+02  0.14438245129E+03  0.84952414700E+02 0.  0.
        -13    1    3    3    0    0  0.14240647481E+02 -0.20246235200E+02 -0.88882113428E+02  0.92264490287E+02  0.00000000000E+00 0.  1.
         13    1    3    3    0    0 -0.29913693597E+02 -0.11140752205E+03 -0.70458066671E+02  0.13516953870E+03  0.00000000000E+00 0. -1.
        -13    1    4    4    0    0 -0.28823671396E+02  0.99888477887E+02  0.15971311924E+02  0.10518362445E+03  0.00000000000E+00 0.  1.
         13    1    4    4    0    0  0.33979689753E+02  0.12563564752E+02  0.14969487329E+02  0.39198826843E+02  0.00000000000E+00 0. -1.
         21    1    1    2  502  501  0.10517027759E+02  0.19201714608E+02  0.10535043343E+03  0.10760124321E+03  0.00000000000E+00 0.  1.
<scales pt_clust_5="13000.00000" pt_clust_6="13000.00000" pt_clust_7="13000.00000" pt_clust_8="13000.00000" pt_clust_9="21.89323"></scales>
<clustering>
<clus scale="   21.893">  1  9  2 -1</clus>
<clus scale="   84.952">  7  8 -1 -1</clus>
<clus scale="   93.587">  5  6 -1 -1</clus>
<clus scale="  152.729">  1  7  2 -1</clus>
<clus scale="   21.893">  1  5  2 -1</clus>
</clustering>
</event>
<event>
 9    1  0.1803370E-005  0.1319249E+03  0.7546771E-02  0.1238525E+00
          2   -1    0    0  502    0  0.00000000000E+00  0.00000000000E+00  0.11289615604E+03  0.11289615604E+03  0.00000000000E+00 0. -1.
         -2   -1    0    0    0  501 -0.00000000000E+00 -0.00000000000E+00 -0.28658026708E+03  0.28658026708E+03  0.00000000000E+00 0.  1.
         23    2    1    2    0    0 -0.27222259463E+02  0.56459505967E+01 -0.11645178399E+03  0.15290262899E+03  0.95106612763E+02 0.  0.
         23    2    1    2    0    0 -0.55367184488E+02  0.53590633069E+02 -0.77768996939E+02  0.14288317784E+03  0.91815600823E+02 0.  0.
        -13    1    4    4    0    0 -0.42316708994E+02  0.73713680738E+02 -0.31275890341E+02  0.90568161649E+02  0.00000000000E+00 0.  1.
         13    1    4    4    0    0 -0.13050475495E+02 -0.20123047668E+02 -0.46493106598E+02  0.52315016193E+02  0.00000000000E+00 0. -1.
        -13    1    3    3    0    0  0.20784767921E+02  0.26513350834E+02 -0.85953416088E+02  0.92319846659E+02  0.00000000000E+00 0.  1.
         13    1    3    3    0    0 -0.48007027385E+02 -0.20867400237E+02 -0.30498367898E+02  0.60582782335E+02  0.00000000000E+00 0. -1.
         21    1    1    2  502  501  0.82589443952E+02 -0.59236583666E+02  0.20536669886E+02  0.10369061629E+03  0.00000000000E+00 0. -1.
<scales pt_clust_5="13000.00000" pt_clust_6="13000.00000" pt_clust_7="13000.00000" pt_clust_8="13000.00000" pt_clust_9="94.73160"></scales>
<clustering>
<clus scale="   91.816">  5  6 -1 -1</clus>
<clus scale="   95.107">  7  8 -1 -1</clus>
<clus scale="   99.087">  2  7  1 -1</clus>
<clus scale="   94.732">  1  9  2 -1</clus>
<clus scale="   94.732">  1  5  2 -1</clus>
</clustering>
</event>
<event>
 9    1  0.2155813E-005  0.1157064E+03  0.7546771E-02  0.1251334E+00
          2   -1    0    0  502    0  0.00000000000E+00  0.00000000000E+00  0.58718783112E+03  0.58718783112E+03  0.00000000000E+00 0. -1.
         -2   -1    0    0    0  501 -0.00000000000E+00 -0.00000000000E+00 -0.83487139671E+02  0.83487139671E+02  0.00000000000E+00 0.  1.
         23    2    1    2    0    0  0.59122750861E+02  0.45560402079E+02 -0.15860387758E+02  0.12120336834E+03  0.94167163539E+02 0.  0.
         23    2    1    2    0    0  0.47072556349E+01 -0.20704185771E+02  0.40724855808E+03  0.41791855756E+03  0.91398638581E+02 0.  0.
        -11    1    3    3    0    0  0.61741361533E+02  0.16755117341E+02 -0.46484480826E+02  0.79079306008E+02  0.00000000000E+00 0.  1.
         11    1    3    3    0    0 -0.26186106719E+01  0.28805284738E+02  0.30624093068E+02  0.42124062327E+02  0.00000000000E+00 0. -1.
        -13    1    4    4    0    0  0.46343417427E+02 -0.86620075926E+01  0.26682492758E+03  0.27095808660E+03  0.00000000000E+00 0.  1.
         13    1    4    4    0    0 -0.41636161792E+02 -0.12042178178E+02  0.14042363049E+03  0.14696047096E+03  0.00000000000E+00 0. -1.
         21    1    1    2  502  501 -0.63830006496E+02 -0.24856216308E+02  0.11231252113E+03  0.13155304489E+03  0.00000000000E+00 0. -1.
<scales pt_clust_5="13000.00000" pt_clust_6="13000.00000" pt_clust_7="13000.00000" pt_clust_8="13000.00000" pt_clust_9="68.49891"></scales>
<clustering>
<clus scale="   68.499">  1  9  2 -1</clus>
<clus scale="   91.399">  7  8 -1 -1</clus>
<clus scale="   94.167">  5  6 -1 -1</clus>
<clus scale="  113.465">  1  7  2 -1</clus>
<clus scale="   68.499">  1  5  2 -1</clus>
</clustering>
</event>
<event>
 9    1  0.1803370E-005  0.1717640E+03  0.7546771E-02  0.1176043E+00
         -2   -1    0    0    0  501 -0.00000000000E+00  0.00000000000E+00  0.42124672249E+02  0.42124672249E+02  0.00000000000E+00 0.  1.
          2   -1    0    0  502    0  0.00000000000E+00 -0.00000000000E+00 -0.10865480499E+04  0.10865480499E+04  0.00000000000E+00 0. -1.
         23    2    1    2    0    0 -0.14868298598E+03 -0.15272241504E+02 -0.32645453526E+03  0.37036537957E+03  0.90873973797E+02 0.  0.
         23    2    1    2    0    0  0.14191589050E+03 -0.34447083537E+02 -0.38581095176E+03  0.42238075957E+03  0.90712149213E+02 0.  0.
        -13    1    4    4    0    0  0.24070034978E+02 -0.39621099274E+02 -0.17256471764E+03  0.17868346276E+03  0.00000000000E+00 0. -1.
         13    1    4    4    0    0  0.11784585553E+03  0.51740157377E+01 -0.21324623412E+03  0.24369729681E+03  0.00000000000E+00 0.  1.
        -13    1    3    3    0    0 -0.51963576622E+01 -0.24177118128E+02 -0.19781176442E+02  0.31667493039E+02  0.00000000000E+00 0.  1.
         13    1    3    3    0    0 -0.14348662831E+03  0.89048766240E+01 -0.30667335882E+03  0.33869788653E+03  0.00000000000E+00 0. -1.
         21    1    1    2  502  501  0.67670954723E+01  0.49719325041E+02 -0.33215789060E+03  0.33592658298E+03  0.00000000000E+00 0. -1.
<scales pt_clust_5="13000.00000" pt_clust_6="13000.00000" pt_clust_7="13000.00000" pt_clust_8="13000.00000" pt_clust_9="50.17773"></scales>
<clustering>
<clus scale="   50.178">  2  9  1 -1</clus>
<clus scale="   90.712">  5  6 -1 -1</clus>
<clus scale="   90.874">  7  8 -1 -1</clus>
<clus scale="  171.678">  2  5  1 -1</clus>
<clus scale="   50.178">  2  5  1 -1</clus>
</clustering>
</event>
<event>
 9    1  0.1803370E-005  0.9013194E+02  0.7546771E-02  0.1303352E+00
          2   -1    0    0  502    0  0.00000000000E+00  0.00000000000E+00  0.55243266689E+02  0.55243266689E+02  0.00000000000E+00 0. -1.
         -2   -1    0    0    0  501 -0.00000000000E+00 -0.00000000000E+00 -0.25061794160E+03  0.25061794160E+03  0.00000000000E+00 0.  1.
         23    2    1    2    0    0  0.12118310632E+02  0.16826038190E+01 -0.16400601016E+03  0.18709597492E+03  0.89203407186E+02 0.  0.
         23    2    1    2    0    0 -0.72655319470E+01 -0.23327311840E+02 -0.18225393080E+02  0.92981741821E+02  0.87843542318E+02 0.  0.
        -13    1    4    4    0    0  0.19126480872E+02  0.27392545900E+02 -0.16407235224E+01  0.33449451641E+02  0.00000000000E+00 0. -1.
         13    1    4    4    0    0 -0.26392012819E+02 -0.50719857740E+02 -0.16584669558E+02  0.59532290180E+02  0.00000000000E+00 0.  1.
        -13    1    3    3    0    0  0.16333372630E-01  0.41019452811E+02 -0.43657301554E+02  0.59904555375E+02  0.00000000000E+00 0.  1.
         13    1    3    3    0    0  0.12101977259E+02 -0.39336848992E+02 -0.12034870860E+03  0.12719141954E+03  0.00000000000E+00 0. -1.
         21    1    1    2  502  501 -0.48527786849E+01  0.21644708021E+02 -0.13143271671E+02  0.25783491550E+02  0.00000000000E+00 0. -1.
<scales pt_clust_5="13000.00000" pt_clust_6="13000.00000" pt_clust_7="13000.00000" pt_clust_8="13000.00000" pt_clust_9="22.18204"></scales>
<clustering>
<clus scale="   22.182">  1  9  2 -1</clus>
<clus scale="   87.844">  5  6 -1 -1</clus>
<clus scale="   88.786">  1  5  2 -1</clus>
<clus scale="   89.203">  7  8 -1 -1</clus>
<clus scale="   22.182">  1  5  2 -1</clus>
</clustering>
</event>
<event>
 9    1  0.1803370E-005  0.9305888E+02  0.7546771E-02  0.1295659E+00
         -3   -1    0    0    0  501 -0.00000000000E+00  0.00000000000E+00  0.74648114200E+02  0.74648114200E+02  0.00000000000E+00 0.  1.
          3   -1    0    0  502    0  0.00000000000E+00 -0.00000000000E+00 -0.57587638516E+03  0.57587638516E+03  0.00000000000E+00 0. -1.
         23    2    1    2    0    0 -0.51277011516E+00  0.28679790770E+02  0.32399576530E+02  0.99269698127E+02  0.89341743183E+02 0.  0.
         23    2    1    2    0    0  0.29668096697E+02  0.23761370781E+01 -0.32611951739E+03  0.33941946239E+03  0.89251273581E+02 0.  0.
        -11    1    4    4    0    0  0.16648024264E+02  0.45574791551E+02 -0.18539841859E+03  0.19164235427E+03  0.00000000000E+00 0.  1.
         11    1    4    4    0    0  0.13020072433E+02 -0.43198654473E+02 -0.14072109880E+03  0.14777710812E+03  0.00000000000E+00 0. -1.
        -13    1    3    3    0    0 -0.24270167067E+02  0.44664484237E+02 -0.61993894543E+01  0.51209272513E+02  0.00000000000E+00 0.  1.
         13    1    3    3    0    0  0.23757396952E+02 -0.15984693467E+02  0.38598965984E+02  0.48060425614E+02  0.00000000000E+00 0. -1.
         21    1    1    2  502  501 -0.29155326582E+02 -0.31055927849E+02 -0.20750833010E+03  0.21183533884E+03  0.00000000000E+00 0. -1.
<scales pt_clust_5="13000.00000" pt_clust_6="13000.00000" pt_clust_7="13000.00000" pt_clust_8="13000.00000" pt_clust_9="42.59699"></scales>
<clustering>
<clus scale="   42.597">  2  9  1 -1</clus>
<clus scale="   89.251">  5  6 -1 -1</clus>
<clus scale="   89.342">  7  8 -1 -1</clus>
<clus scale="   92.972">  2  5  1 -1</clus>
<clus scale="   42.597">  2  5  1 -1</clus>
</clustering>
</event>
<event>
 9    1  0.1803370E-005  0.1178317E+03  0.7546771E-02  0.1255677E+00
         -4   -1    0    0    0  501 -0.00000000000E+00  0.00000000000E+00  0.49385202999E+03  0.49385202999E+03  0.00000000000E+00 0.  1.
          4   -1    0    0  502    0  0.00000000000E+00 -0.00000000000E+00 -0.52006855247E+02  0.52006855247E+02  0.00000000000E+00 0. -1.
         23    2    1    2    0    0  0.61308960097E+02  0.20159657778E+02  0.37108683173E+03  0.38443513262E+03  0.76939808432E+02 0.  0.
         23    2    1    2    0    0 -0.50557205860E+02  0.10072979471E+02  0.52690666074E+02  0.12459912058E+03  0.10045465932E+03 0.  0.
        -11    1    4    4    0    0 -0.19458541382E+02 -0.51809472810E+01  0.78730357875E+02  0.81264668206E+02  0.00000000000E+00 0.  1.
         11    1    4    4    0    0 -0.31098664477E+02  0.15253926752E+02 -0.26039691801E+02  0.43334452376E+02  0.00000000000E+00 0. -1.
        -11    1    3    3    0    0 -0.59435454354E+01  0.28640206488E+02  0.71029750995E+02  0.76816747434E+02  0.00000000000E+00 0. -1.
         11    1    3    3    0    0  0.67252505532E+02 -0.84805487092E+01  0.30005708074E+03  0.30761838519E+03  0.00000000000E+00 0.  1.
         21    1    1    2  502  501 -0.10751754237E+02 -0.30232637250E+02  0.18067676936E+02  0.36824632030E+02  0.00000000000E+00 0. -1.
<scales pt_clust_5="13000.00000" pt_clust_6="13000.00000" pt_clust_7="13000.00000" pt_clust_8="13000.00000" pt_clust_9="32.08758"></scales>
<clustering>
<clus scale="   32.088">  2  9  1 -1</clus>
<clus scale="   76.940">  7  8 -1 -1</clus>
<clus scale="   98.554">  1  7  2 -1</clus>
<clus scale="  100.455">  5  6 -1 -1</clus>
<clus scale="   32.088">  2  5  1 -1</clus>
</clustering>
</event>
<event>
 9    1  0.1803370E-005  0.1227085E+03  0.7546771E-02  0.1239392E+00
         -1   -1    0    0    0  501 -0.00000000000E+00  0.00000000000E+00  0.70232431808E+02  0.70232431808E+02  0.00000000000E+00 0.  1.
          1   -1    0    0  502    0  0.00000000000E+00 -0.00000000000E+00 -0.37585555393E+03  0.37585555393E+03  0.00000000000E+00 0. -1.
         23    2    1    2    0    0  0.72202193504E+02  0.17168018399E+02 -0.38939607371E+02  0.12477338797E+03  0.92434883684E+02 0.  0.
         23    2    1    2    0    0 -0.87063254032E+02 -0.36307290875E+02 -0.13621777962E+03  0.18861768403E+03  0.90128340002E+02 0.  0.
        -13    1    4    4    0    0 -0.53008505013E+02 -0.68451010489E+01 -0.96955316907E+01  0.54320901565E+02  0.00000000000E+00 0.  1.
         13    1    4    4    0    0 -0.34054749019E+02 -0.29462189826E+02 -0.12652224792E+03  0.13429678246E+03  0.00000000000E+00 0. -1.
        -13    1    3    3    0    0  0.41636300358E+01 -0.30789128038E+02 -0.26039337538E+02  0.40538294486E+02  0.00000000000E+00 0. -1.
         13    1    3    3    0    0  0.68038563468E+02  0.47957146436E+02 -0.12900269833E+02  0.84235093488E+02  0.00000000000E+00 0.  1.
         21    1    1    2  502  501  0.14861060528E+02  0.19139272476E+02 -0.13046573514E+03  0.13269691374E+03  0.00000000000E+00 0. -1.
<scales pt_clust_5="13000.00000" pt_clust_6="13000.00000" pt_clust_7="13000.00000" pt_clust_8="13000.00000" pt_clust_9="24.23144"></scales>
<clustering>
<clus scale="   24.231">  2  9  1 -1</clus>
<clus scale="   90.128">  5  6 -1 -1</clus>
<clus scale="   92.435">  7  8 -1 -1</clus>
<clus scale="  120.981">  2  5  1 -1</clus>
<clus scale="   24.231">  2  5  1 -1</clus>
</clustering>
</event>
<event>
 9    1  0.1803370E-005  0.1036823E+03  0.7546771E-02  0.1273363E+00
          2   -1    0    0  502    0  0.00000000000E+00  0.00000000000E+00  0.53863195190E+03  0.53863195190E+03  0.00000000000E+00 0. -1.
         -2   -1    0    0    0  501 -0.00000000000E+00 -0.00000000000E+00 -0.31148776285E+02  0.31148776285E+02  0.00000000000E+00 0.  1.
         23    2    1    2    0    0  0.49320272719E+02 -0.13664219211E+02  0.10795114048E+03  0.15086393083E+03  0.92126416990E+02 0.  0.
         23    2    1    2    0    0 -0.41531812996E+02 -0.10707381367E+02  0.31557740818E+03  0.33114997898E+03  0.90728543033E+02 0.  0.
        -11    1    4    4    0    0 -0.70516441119E+02 -0.46230720409E+01  0.22798030816E+03  0.23868171730E+03  0.00000000000E+00 0.  1.
         11    1    4    4    0    0  0.28984628123E+02 -0.60843093259E+01  0.87597100017E+02  0.92468261684E+02  0.00000000000E+00 0. -1.
        -13    1    3    3    0    0  0.17033453707E+02  0.39550770203E+02  0.41254731015E+02  0.59635180891E+02  0.00000000000E+00 0. -1.
         13    1    3    3    0    0  0.32286819012E+02 -0.53214989414E+02  0.66696409467E+02  0.91228749943E+02  0.00000000000E+00 0.  1.
         21    1    1    2  502  501 -0.77884597231E+01  0.24371600578E+02  0.83954626951E+02  0.87766818366E+02  0.00000000000E+00 0.  1.
<scales pt_clust_5="13000.00000" pt_clust_6="13000.00000" pt_clust_7="13000.00000" pt_clust_8="13000.00000" pt_clust_9="25.58584"></scales>
<clustering>
<clus scale="   25.586">  1  9  2 -1</clus>
<clus scale="   90.729">  5  6 -1 -1</clus>
<clus scale="   92.126">  7  8 -1 -1</clus>
<clus scale="  102.442">  1  5  2 -1</clus>
<clus scale="   25.586">  1  5  2 -1</clus>
</clustering>
</event>
<event>
 9    1  0.1803370E-005  0.9758855E+02  0.7546771E-02  0.1285807E+00
          1   -1    0    0  502    0  0.00000000000E+00  0.00000000000E+00  0.74635077247E+03  0.74635077247E+03  0.00000000000E+00 0. -1.
         -1   -1    0    0    0  501 -0.00000000000E+00 -0.00000000000E+00 -0.70831353395E+02  0.70831353395E+02  0.00000000000E+00 0.  1.
         23    2    1    2    0    0  0.15368140872E+02 -0.29581168414E+02 -0.29876489793E+02  0.10149222717E+03  0.91087003763E+02 0.  0.
         23    2    1    2    0    0  0.51340169069E+01  0.36389280070E+02  0.55266638366E+03  0.56144011190E+03  0.91784147790E+02 0.  0.
        -13    1    3    3    0    0  0.11568975398E+02 -0.50080703127E+02  0.13692303955E+02  0.53192078405E+02  0.00000000000E+00 0. -1.
         13    1    3    3    0    0  0.37991654740E+01  0.20499534714E+02 -0.43568793748E+02  0.48300148762E+02  0.00000000000E+00 0.  1.
        -13    1    4    4    0    0  0.38041209349E+02  0.50340008561E+02  0.35925146788E+03  0.36475041775E+03  0.00000000000E+00 0.  1.
         13    1    4    4    0    0 -0.32907192442E+02 -0.13950728490E+02  0.19341491578E+03  0.19668969415E+03  0.00000000000E+00 0. -1.
         21    1    1    2  502  501 -0.20502157779E+02 -0.68081116568E+01  0.15272952521E+03  0.15424978680E+03  0.00000000000E+00 0. -1.
<scales pt_clust_5="13000.00000" pt_clust_6="13000.00000" pt_clust_7="13000.00000" pt_clust_8="13000.00000" pt_clust_9="21.60298"></scales>
<clustering>
<clus scale="   21.603">  1  9  2 -1</clus>
<clus scale="   91.087">  5  6 -1 -1</clus>
<clus scale="   91.784">  7  8 -1 -1</clus>
<clus scale="   96.933">  2  5  1 -1</clus>
<clus scale="   21.603">  1  5  2 -1</clus>
</clustering>
</event>
<event>
 9    1  0.1803370E-005  0.1220793E+03  0.7546771E-02  0.1253760E+00
          1   -1    0    0  502    0  0.00000000000E+00  0.00000000000E+00  0.12756071293E+03  0.12756071293E+03  0.00000000000E+00 0. -1.
         -1   -1    0    0    0  501 -0.00000000000E+00 -0.00000000000E+00 -0.20964261124E+03  0.20964261124E+03  0.00000000000E+00 0.  1.
         23    2    1    2    0    0  0.25292779672E+01  0.24487648567E+01 -0.11915185423E+03  0.14577401155E+03  0.83907713483E+02 0.  0.
         23    2    1    2    0    0 -0.18148789222E+02  0.46904046324E+02  0.53182388613E+02  0.13721418935E+03  0.11606032564E+03 0.  0.
        -11    1    3    3    0    0 -0.40644869313E+02  0.23384655144E+01 -0.61298556803E+02  0.73586594490E+02  0.00000000000E+00 0.  1.
         11    1    3    3    0    0  0.43174147281E+02  0.11029934224E+00 -0.57853297425E+02  0.72187417063E+02  0.00000000000E+00 0. -1.
        -13    1    4    4    0    0  0.37970012620E+02 -0.16784053472E+02  0.15059238922E+02  0.44161147927E+02  0.00000000000E+00 0. -1.
         13    1    4    4    0    0 -0.56118801842E+02  0.63688099795E+02  0.38123149690E+02  0.93053041423E+02  0.00000000000E+00 0.  1.
         21    1    1    2  502  501  0.15619511254E+02 -0.49352811180E+02 -0.16112432691E+02  0.54215123263E+02  0.00000000000E+00 0. -1.
<scales pt_clust_5="13000.00000" pt_clust_6="13000.00000" pt_clust_7="13000.00000" pt_clust_8="13000.00000" pt_clust_9="51.76552"></scales>
<clustering>
<clus scale="   51.766">  2  9  1 -1</clus>
<clus scale="   83.908">  5  6 -1 -1</clus>
<clus scale="   92.054">  2  5  1 -1</clus>
<clus scale="  116.060">  7  8 -1 -1</clus>
<clus scale="  122.079">  1  5  2 -1</clus>
</clustering>
</event>
<event>
 9    1  0.1803370E-005  0.1097496E+03  0.7546771E-02  0.1261400E+00
          1   -1    0    0  502    0  0.00000000000E+00  0.00000000000E+00  0.12415914668E+03  0.12415914668E+03  0.00000000000E+00 0. -1.
         -1   -1    0    0    0  501 -0.00000000000E+00 -0.00000000000E+00 -0.21352010476E+03  0.21352010476E+03  0.00000000000E+00 0.  1.
         23    2    1    2    0    0  0.67561389620E+02 -0.25302601215E+01 -0.15322851772E+03  0.19049735647E+03  0.90770703393E+02 0.  0.
         23    2    1    2    0    0 -0.35525597779E+02 -0.10326336609E+02  0.54624865803E+02  0.11144659830E+03  0.89820749184E+02 0.  0.
        -11    1    3    3    0    0 -0.11735443079E+02  0.20559180363E+02 -0.11170966947E+02  0.26176153728E+02  0.00000000000E+00 0. -1.
         11    1    3    3    0    0  0.79296832699E+02 -0.23089440484E+02 -0.14205755077E+03  0.16432120274E+03  0.00000000000E+00 0.  1.
        -13    1    4    4    0    0  0.18984201256E+02 -0.24173174988E+02 -0.30523345722E+01  0.30887846035E+02  0.00000000000E+00 0.  1.
         13    1    4    4    0    0 -0.54509799035E+02  0.13846838378E+02  0.57677200376E+02  0.80558752269E+02  0.00000000000E+00 0. -1.
         21    1    1    2  502  501 -0.32035791841E+02  0.12856596731E+02  0.92426938417E+01  0.35735296666E+02  0.00000000000E+00 0.  1.
<scales pt_clust_5="13000.00000" pt_clust_6="13000.00000" pt_clust_7="13000.00000" pt_clust_8="13000.00000" pt_clust_9="34.51933"></scales>
<clustering>
<clus scale="   34.519">  1  9  2 -1</clus>
<clus scale="   89.821">  7  8 -1 -1</clus>
<clus scale="   90.771">  5  6 -1 -1</clus>
<clus scale="  108.965">  1  7  2 -1</clus>
<clus scale="   34.519">  1  5  2 -1</clus>
</clustering>
</event>
<event>
 9    1  0.1803370E-005  0.1500780E+03  0.7546771E-02  0.1200387E+00
          2   -1    0    0  502    0  0.00000000000E+00  0.00000000000E+00  0.36160049343E+03  0.36160049343E+03  0.00000000000E+00 0. -1.
         -2   -1    0    0    0  501 -0.00000000000E+00 -0.00000000000E+00 -0.15096129752E+03  0.15096129752E+03  0.00000000000E+00 0.  1.
         23    2    1    2    0    0  0.27871622060E+02 -0.11778327216E+03 -0.83630401767E+02  0.17350528385E+03  0.91979959260E+02 0.  0.
         23    2    1    2    0    0 -0.39236489146E+02  0.99140417936E+02  0.21622488684E+03  0.25801520215E+03  0.91925612891E+02 0.  0.
        -11    1    4    4    0    0 -0.19000726690E+02  0.22742287510E+02  0.20296350328E+01  0.29704522792E+02  0.00000000000E+00 0.  1.
         11    1    4    4    0    0 -0.20235762455E+02  0.76398130425E+02  0.21419525180E+03  0.22831067936E+03  0.00000000000E+00 0. -1.
        -11    1    3    3    0    0 -0.21537991580E+02 -0.55695683289E+02 -0.71626972306E+02  0.93254047526E+02  0.00000000000E+00 0.  1.
         11    1    3    3    0    0  0.49409613640E+02 -0.62087588873E+02 -0.12003429461E+02  0.80251236321E+02  0.00000000000E+00 0. -1.
         21    1    1    2  502  501  0.11364867085E+02  0.18642854227E+02  0.78044710841E+02  0.81041304950E+02  0.00000000000E+00 0. -1.
<scales pt_clust_5="13000.00000" pt_clust_6="13000.00000" pt_clust_7="13000.00000" pt_clust_8="13000.00000" pt_clust_9="21.83383"></scales>
<clustering>
<clus scale="   21.834">  1  9  2 -1</clus>
<clus scale="   91.926">  5  6 -1 -1</clus>
<clus scale="   91.980">  7  8 -1 -1</clus>
<clus scale="  150.045">  1  5  2 -1</clus>
<clus scale="   21.834">  1  5  2 -1</clus>
</clustering>
</event>
<event>
 9    1  0.1803370E-005  0.9859663E+02  0.7546771E-02  0.1285583E+00
         -1   -1    0    0    0  501 -0.00000000000E+00  0.00000000000E+00  0.38663962810E+02  0.38663962810E+02  0.00000000000E+00 0.  1.
          1   -1    0    0  502    0  0.00000000000E+00 -0.00000000000E+00 -0.46187338072E+03  0.46187338072E+03  0.00000000000E+00 0. -1.
         23    2    1    2    0    0 -0.44874536700E+02  0.10071418522E+02 -0.93431605044E+02  0.13909571297E+03  0.92211685977E+02 0.  0.
         23    2    1    2    0    0  0.16308304882E+02 -0.18819737209E+02 -0.12620597100E+03  0.15568921263E+03  0.87698577517E+02 0.  0.
        -11    1    4    4    0    0  0.41280718420E+02  0.10654908457E+02 -0.10081930743E+03  0.10946304189E+03  0.00000000000E+00 0.  1.
         11    1    4    4    0    0 -0.24972413538E+02 -0.29474645666E+02 -0.25386663561E+02  0.46226170746E+02  0.00000000000E+00 0. -1.
        -11    1    3    3    0    0  0.17041815893E+02 -0.20966738501E+02 -0.51428621996E+02  0.58094154376E+02  0.00000000000E+00 0.  1.
         11    1    3    3    0    0 -0.61916352593E+02  0.31038157022E+02 -0.42002983048E+02  0.81001558595E+02  0.00000000000E+00 0. -1.
         21    1    1    2  502  501  0.28566231819E+02  0.87483186877E+01 -0.20357184187E+03  0.20575241793E+03  0.00000000000E+00 0.  1.
<scales pt_clust_5="13000.00000" pt_clust_6="13000.00000" pt_clust_7="13000.00000" pt_clust_8="13000.00000" pt_clust_9="29.87579"></scales>
<clustering>
<clus scale="   29.876">  2  9  1 -1</clus>
<clus scale="   87.699">  5  6 -1 -1</clus>
<clus scale="   92.212">  7  8 -1 -1</clus>
<clus scale="   94.389">  2  5  1 -1</clus>
<clus scale="   29.876">  2  5  1 -1</clus>
</clustering>
</event>
<event>
 9    1  0.1803370E-005  0.9664738E+02  0.7546771E-02  0.1287633E+00
         -1   -1    0    0    0  501 -0.00000000000E+00  0.00000000000E+00  0.16337452347E+03  0.16337452347E+03  0.00000000000E+00 0.  1.
          1   -1    0    0  502    0  0.00000000000E+00 -0.00000000000E+00 -0.17872791152E+03  0.17872791152E+03  0.00000000000E+00 0. -1.
         23    2    1    2    0    0  0.46016996666E+01 -0.33559586761E+02  0.85112893244E+02  0.13107819787E+03  0.93754295140E+02 0.  0.
         23    2    1    2    0    0  0.36773966602E+02 -0.29836312774E+02 -0.81145990903E+02  0.13289447673E+03  0.93987977561E+02 0.  0.
        -13    1    4    4    0    0  0.24875660920E+01 -0.59018783300E+02 -0.36226963660E+02  0.69295004606E+02  0.00000000000E+00 0. -1.
         13    1    4    4    0    0  0.34286400510E+02  0.29182470526E+02 -0.44919027243E+02  0.63599472124E+02  0.00000000000E+00 0.  1.
        -13    1    3    3    0    0 -0.34760897802E+02 -0.34912802091E+02  0.76130303861E+02  0.90681017483E+02  0.00000000000E+00 0.  1.
         13    1    3    3    0    0  0.39362597469E+02  0.13532153300E+01  0.89825893835E+01  0.40397180387E+02  0.00000000000E+00 0. -1.
         21    1    1    2  502  501 -0.41375666269E+02  0.63395899535E+02 -0.19320290387E+02  0.78129760384E+02  0.00000000000E+00 0.  1.
<scales pt_clust_5="13000.00000" pt_clust_6="13000.00000" pt_clust_7="13000.00000" pt_clust_8="13000.00000" pt_clust_9="75.70327"></scales>
<clustering>
<clus scale="   75.703">  2  9  1 -1</clus>
<clus scale="   93.754">  7  8 -1 -1</clus>
<clus scale="   93.988">  5  6 -1 -1</clus>
<clus scale="   96.420">  1  7  2 -1</clus>
<clus scale="   75.703">  2  5  1 -1</clus>
</clustering>
</event>
<event>
 9    1  0.1803370E-005  0.9613173E+02  0.7546771E-02  0.1289432E+00
         -2   -1    0    0    0  501 -0.00000000000E+00  0.00000000000E+00  0.27289698025E+03  0.27289698025E+03  0.00000000000E+00 0.  1.
          2   -1    0    0  502    0  0.00000000000E+00 -0.00000000000E+00 -0.54894225425E+03  0.54894225425E+03  0.00000000000E+00 0. -1.
         23    2    1    2    0    0  0.17131554244E+02 -0.22094174918E+02  0.25223283828E+03  0.26936579866E+03  0.90304407777E+02 0.  0.
         23    2    1    2    0    0 -0.64457511175E+02  0.22453229787E+02 -0.37542464441E+03  0.39246075583E+03  0.91776156818E+02 0.  0.
        -11    1    4    4    0    0  0.16811383267E+02 -0.11487856288E+02 -0.32047527959E+02  0.37968901719E+02  0.00000000000E+00 0.  1.
         11    1    4    4    0    0 -0.81268894442E+02  0.33941086075E+02 -0.34337711645E+03  0.35449185411E+03  0.00000000000E+00 0. -1.
        -13    1    3    3    0    0  0.98856405066E+01  0.17852786300E+02  0.82228790384E+01  0.22001445556E+02  0.00000000000E+00 0. -1.
         13    1    3    3    0    0  0.72459137378E+01 -0.39946961218E+02  0.24400995925E+03  0.24736435311E+03  0.00000000000E+00 0.  1.
         21    1    1    2  502  501  0.47325956931E+02 -0.35905486897E+00 -0.15285346788E+03  0.16001268001E+03  0.00000000000E+00 0.  1.
<scales pt_clust_5="13000.00000" pt_clust_6="13000.00000" pt_clust_7="13000.00000" pt_clust_8="13000.00000" pt_clust_9="47.32732"></scales>
<clustering>
<clus scale="   47.327">  2  9  1 -1</clus>
<clus scale="   90.304">  7  8 -1 -1</clus>
<clus scale="   91.776">  5  6 -1 -1</clus>
<clus scale="   94.728">  1  7  2 -1</clus>
<clus scale="   47.327">  2  5  1 -1</clus>
</clustering>
</event>
<event>
 9    1  0.1803370E-005  0.1001277E+03  0.7546771E-02  0.1281945E+00
          1   -1    0    0  502    0  0.00000000000E+00  0.00000000000E+00  0.21777016804E+03  0.21777016804E+03  0.00000000000E+00 0. -1.
         -1   -1    0    0    0  501 -0.00000000000E+00 -0.00000000000E+00 -0.62102989354E+02  0.62102989354E+02  0.00000000000E+00 0.  1.
         23    2    1    2    0    0  0.26371172780E+02 -0.10228597277E+02  0.43168342195E+02  0.10239933380E+03  0.88442381458E+02 0.  0.
         23    2    1    2    0    0 -0.50264560125E+02  0.15169189200E+02  0.66263711326E+02  0.12519581478E+03  0.92338953281E+02 0.  0.
        -11    1    3    3    0    0 -0.19147957997E+02 -0.20486843209E+02 -0.11689791959E+02  0.30381018353E+02  0.00000000000E+00 0.  1.
         11    1    3    3    0    0  0.45519130777E+02  0.10258245932E+02  0.54858134155E+02  0.72018315443E+02  0.00000000000E+00 0. -1.
        -11    1    4    4    0    0 -0.10026248855E+02  0.51085150574E+02  0.28463988675E+02  0.59333101441E+02  0.00000000000E+00 0. -1.
         11    1    4    4    0    0 -0.40238311270E+02 -0.35915961375E+02  0.37799722651E+02  0.65862713335E+02  0.00000000000E+00 0.  1.
         21    1    1    2  502  501  0.23893387345E+02 -0.49405919227E+01  0.46235125162E+02  0.52278008820E+02  0.00000000000E+00 0. -1.
<scales pt_clust_5="13000.00000" pt_clust_6="13000.00000" pt_clust_7="13000.00000" pt_clust_8="13000.00000" pt_clust_9="24.39884"></scales>
<clustering>
<clus scale="   24.399">  1  9  2 -1</clus>
<clus scale="   88.442">  5  6 -1 -1</clus>
<clus scale="   92.339">  7  8 -1 -1</clus>
<clus scale="   96.546">  2  5  1 -1</clus>
<clus scale="   24.399">  1  5  2 -1</clus>
</clustering>
</event>
<event>
 9    1  0.1803370E-005  0.9779768E+02  0.7546771E-02  0.1288259E+00
         -2   -1    0    0    0  501 -0.00000000000E+00  0.00000000000E+00  0.26950021942E+02  0.26950021942E+02  0.00000000000E+00 0.  1.
          2   -1    0    0  502    0  0.00000000000E+00 -0.00000000000E+00 -0.74369844347E+03  0.74369844347E+03  0.00000000000E+00 0. -1.
         23    2    1    2    0    0  0.43033219937E+01 -0.43174214442E+02 -0.17355740301E+03  0.19999725460E+03  0.89410280925E+02 0.  0.
         23    2    1    2    0    0  0.19427448347E+02 -0.43659858395E+01 -0.19048242297E+03  0.21396286859E+03  0.95394277047E+02 0.  0.
        -11    1    4    4    0    0 -0.27636059072E+02  0.27177883467E+02 -0.56747976331E+02  0.68722062894E+02  0.00000000000E+00 0. -1.
         11    1    4    4    0    0  0.47063507419E+02 -0.31543869306E+02 -0.13373444664E+03  0.14524080570E+03  0.00000000000E+00 0.  1.
        -13    1    3    3    0    0  0.93658309022E+01 -0.68294068965E+02 -0.95059995621E+02  0.11742317238E+03  0.00000000000E+00 0.  1.
         13    1    3    3    0    0 -0.50625089085E+01  0.25119854524E+02 -0.78497407384E+02  0.82574082216E+02  0.00000000000E+00 0. -1.
         21    1    1    2  502  501 -0.23730770340E+02  0.47540200281E+02 -0.35270859555E+03  0.35668834223E+03  0.00000000000E+00 0. -1.
<scales pt_clust_5="13000.00000" pt_clust_6="13000.00000" pt_clust_7="13000.00000" pt_clust_8="13000.00000" pt_clust_9="53.13398"></scales>
<clustering>
<clus scale="   53.134">  2  9  1 -1</clus>
<clus scale="   89.410">  7  8 -1 -1</clus>
<clus scale="   91.970">  1  7  2 -1</clus>
<clus scale="   95.394">  5  6 -1 -1</clus>
<clus scale="   53.134">  2  5  1 -1</clus>
</clustering>
</event>
<event>
 9    1  0.1803370E-005  0.1227001E+03  0.7546771E-02  0.1238841E+00
          4   -1    0    0  502    0  0.00000000000E+00  0.00000000000E+00  0.11320062977E+03  0.11320062977E+03  0.00000000000E+00 0. -1.
         -4   -1    0    0    0  501 -0.00000000000E+00 -0.00000000000E+00 -0.23878411378E+03  0.23878411378E+03  0.00000000000E+00 0.  1.
         23    2    1    2    0    0 -0.30137997924E+02  0.64057564115E+02 -0.96120842387E+02  0.15065565321E+03  0.91903422475E+02 0.  0.
         23    2    1    2    0    0  0.39598239604E+02 -0.88036907957E+02 -0.72278577621E+02  0.15135200080E+03  0.91458830197E+02 0.  0.
        -13    1    4    4    0    0  0.62994142775E+02 -0.89472500015E+02 -0.61882151508E+02  0.12570994773E+03  0.00000000000E+00 0. -1.
         13    1    4    4    0    0 -0.23395903171E+02  0.14355920580E+01 -0.10396426113E+02  0.25642053071E+02  0.00000000000E+00 0.  1.
        -13    1    3    3    0    0 -0.16169766624E+02  0.30500533216E+02 -0.10722822796E+03  0.11264828783E+03  0.00000000000E+00 0.  1.
         13    1    3    3    0    0 -0.13968231300E+02  0.33557030899E+02  0.11107385576E+02  0.38007365375E+02  0.00000000000E+00 0. -1.
         21    1    1    2  502  501 -0.94602416798E+01  0.23979343842E+02  0.42815936004E+02  0.49977089547E+02  0.00000000000E+00 0.  1.
<scales pt_clust_5="13000.00000" pt_clust_6="13000.00000" pt_clust_7="13000.00000" pt_clust_8="13000.00000" pt_clust_9="25.77800"></scales>
<clustering>
<clus scale="   25.778">  1  9  2 -1</clus>
<clus scale="   91.459">  5  6 -1 -1</clus>
<clus scale="   91.903">  7  8 -1 -1</clus>
<clus scale="  122.367">  1  5  2 -1</clus>
<clus scale="   25.778">  1  5  2 -1</clus>
</clustering>
</event>
<event>
 9    1  0.1803370E-005  0.9116596E+02  0.7546771E-02  0.1304329E+00
          2   -1    0    0  502    0  0.00000000000E+00  0.00000000000E+00  0.43523613385E+03  0.43523613385E+03  0.00000000000E+00 0. -1.
         -2   -1    0    0    0  501 -0.00000000000E+00 -0.00000000000E+00 -0.46395184100E+02  0.46395184100E+02  0.00000000000E+00 0.  1.
         23    2    1    2    0    0  0.26103067798E+02  0.18723032393E+02  0.44453170934E+02  0.10522414614E+03  0.89800414450E+02 0.  0.
         23    2    1    2    0    0  0.78097527577E+01  0.26171560489E+02  0.14463042668E+03  0.16887740623E+03  0.82799004804E+02 0.  0.
        -11    1    3    3    0    0  0.89350222138E+01  0.43702382925E+02 -0.73473194518E+01  0.45207477240E+02  0.00000000000E+00 0.  1.
         11    1    3    3    0    0  0.17168045584E+02 -0.24979350532E+02  0.51800490386E+02  0.60016668905E+02  0.00000000000E+00 0. -1.
        -11    1    4    4    0    0 -0.24201305892E+02  0.19873798520E+01  0.66417039045E+01  0.25174691981E+02  0.00000000000E+00 0. -1.
         11    1    4    4    0    0  0.32011058650E+02  0.24184180637E+02  0.13798872278E+03  0.14370271425E+03  0.00000000000E+00 0.  1.
         21    1    1    2  502  501 -0.33912820556E+02 -0.44894592882E+02  0.19975735213E+03  0.20752976557E+03  0.00000000000E+00 0. -1.
<scales pt_clust_5="13000.00000" pt_clust_6="13000.00000" pt_clust_7="13000.00000" pt_clust_8="13000.00000" pt_clust_9="56.26370"></scales>
<clustering>
<clus scale="   56.264">  1  9  2 -1</clus>
<clus scale="   82.799">  7  8 -1 -1</clus>
<clus scale="   84.278">  1  7  2 -1</clus>
<clus scale="   89.800">  5  6 -1 -1</clus>
<clus scale="   56.264">  1  5  2 -1</clus>
</clustering>
</event>
<event>
 9    1  0.1803370E-005  0.2287577E+03  0.7546771E-02  0.1156297E+00
          1   -1    0    0  502    0  0.00000000000E+00  0.00000000000E+00  0.23707328667E+03  0.23707328667E+03  0.00000000000E+00 0. -1.
         -1   -1    0    0    0  501 -0.00000000000E+00 -0.00000000000E+00 -0.11074234132E+04  0.11074234132E+04  0.00000000000E+00 0.  1.
         23    2    1    2    0    0  0.16461534884E+03 -0.13108808511E+03 -0.81071071605E+03  0.84245592830E+03  0.90541851494E+02 0.  0.
         23    2    1    2    0    0 -0.46759325647E+02 -0.51695313815E+02  0.15748853345E+03  0.19472276502E+03  0.90859655756E+02 0.  0.
        -11    1    4    4    0    0 -0.66807097616E+02 -0.91337255394E+01  0.90147858124E+02  0.11257552824E+03  0.00000000000E+00 0.  1.
         11    1    4    4    0    0  0.20047771970E+02 -0.42561588276E+02  0.67340675321E+02  0.82147236778E+02  0.00000000000E+00 0. -1.
        -13    1    3    3    0    0  0.15416549344E+02 -0.14478627990E+02 -0.19054026359E+02  0.28466762770E+02  0.00000000000E+00 0.  1.
         13    1    3    3    0    0  0.14919879950E+03 -0.11660945712E+03 -0.79165668969E+03  0.81398916552E+03  0.00000000000E+00 0. -1.
         21    1    1    2  502  501 -0.11785602320E+03  0.18278339892E+03 -0.21712794395E+03  0.30731800659E+03  0.00000000000E+00 0.  1.
<scales pt_clust_5="13000.00000" pt_clust_6="13000.00000" pt_clust_7="13000.00000" pt_clust_8="13000.00000" pt_clust_9="210.07677"></scales>
<clustering>
<clus scale="   90.542">  7  8 -1 -1</clus>
<clus scale="   90.860">  5  6 -1 -1</clus>
<clus scale="  114.518">  1  5  2 -1</clus>
<clus scale="  210.077">  1  9  2 -1</clus>
<clus scale="  114.518">  1  5  2 -1</clus>
</clustering>
</event>
<event>
 9    1  0.1803370E-005  0.9282189E+02  0.7546771E-02  0.1296733E+00
         -1   -1    0    0    0  501 -0.00000000000E+00  0.00000000000E+00  0.32695810053E+03  0.32695810053E+03  0.00000000000E+00 0.  1.
          1   -1    0    0  502    0  0.00000000000E+00 -0.00000000000E+00 -0.44577186673E+02  0.44577186673E+02  0.00000000000E+00 0. -1.
         23    2    1    2    0    0 -0.31812049207E+01 -0.25511844537E+02  0.19114168012E+03  0.21309099438E+03  0.90618186538E+02 0.  0.
         23    2    1    2    0    0  0.89157191143E+01 -0.78647406406E+01  0.81529772120E+02  0.12321426677E+03  0.91614996590E+02 0.  0.
        -11    1    4    4    0    0  0.36774004287E+02 -0.29147149908E+02  0.17247107879E+02  0.49993464265E+02  0.00000000000E+00 0. -1.
         11    1    4    4    0    0 -0.27858285172E+02  0.21282409267E+02  0.64282664241E+02  0.73220802501E+02  0.00000000000E+00 0.  1.
        -13    1    3    3    0    0  0.12163046255E+02 -0.50124137713E+02  0.16872945516E+03  0.17643695167E+03  0.00000000000E+00 0. -1.
         13    1    3    3    0    0 -0.15344251175E+02  0.24612293175E+02  0.22412224954E+02  0.36654042708E+02  0.00000000000E+00 0.  1.
         21    1    1    2  502  501 -0.57345141936E+01  0.33376585178E+02  0.97094616233E+01  0.35230026060E+02  0.00000000000E+00 0.  1.
<scales pt_clust_5="13000.00000" pt_clust_6="13000.00000" pt_clust_7="13000.00000" pt_clust_8="13000.00000" pt_clust_9="33.86563"></scales>
<clustering>
<clus scale="   33.866">  2  9  1 -1</clus>
<clus scale="   90.618">  7  8 -1 -1</clus>
<clus scale="   91.615">  5  6 -1 -1</clus>
<clus scale="   91.838">  1  7  2 -1</clus>
<clus scale="   33.866">  2  5  1 -1</clus>
</clustering>
</event>
<event>
 9    1  0.1803370E-005  0.9647689E+02  0.7546771E-02  0.1288725E+00
          2   -1    0    0  502    0  0.00000000000E+00  0.00000000000E+00  0.46368020905E+03  0.46368020905E+03  0.00000000000E+00 0. -1.
         -2   -1    0    0    0  501 -0.00000000000E+00 -0.00000000000E+00 -0.39416745235E+02  0.39416745235E+02  0.00000000000E+00 0.  1.
         23    2    1    2    0    0  0.25779064964E+02  0.21091258251E+02  0.53888403364E+02  0.10925527243E+03  0.89013219078E+02 0.  0.
         23    2    1    2    0    0 -0.25142518121E+02 -0.43992208388E+02  0.22443951866E+03  0.24611882964E+03  0.87372307696E+02 0.  0.
        -11    1    4    4    0    0 -0.24852487036E+02  0.21286743012E+01  0.10162425134E+02  0.26934220812E+02  0.00000000000E+00 0. -1.
         11    1    4    4    0    0 -0.29003108442E+00 -0.46120882689E+02  0.21427709353E+03  0.21918460883E+03  0.00000000000E+00 0.  1.
        -11    1    3    3    0    0 -0.13934726792E+02  0.28883035192E+02  0.60283143349E+02  0.68282235645E+02  0.00000000000E+00 0. -1.
         11    1    3    3    0    0  0.39713791756E+02 -0.77917769414E+01 -0.63947399854E+01  0.40973036781E+02  0.00000000000E+00 0.  1.
         21    1    1    2  502  501 -0.63654684388E+00  0.22900950137E+02  0.14593554179E+03  0.14772285222E+03  0.00000000000E+00 0. -1.
<scales pt_clust_5="13000.00000" pt_clust_6="13000.00000" pt_clust_7="13000.00000" pt_clust_8="13000.00000" pt_clust_9="22.90980"></scales>
<clustering>
<clus scale="   22.910">  1  9  2 -1</clus>
<clus scale="   87.372">  5  6 -1 -1</clus>
<clus scale="   89.013">  7  8 -1 -1</clus>
<clus scale="   94.965">  1  5  2 -1</clus>
<clus scale="   22.910">  1  5  2 -1</clus>
</clustering>
</event>
<event>
 9    1  0.1803370E-005  0.9730694E+02  0.7546771E-02  0.1286784E+00
         -2   -1    0    0    0  501 -0.00000000000E+00  0.00000000000E+00  0.33543752210E+02  0.33543752210E+02  0.00000000000E+00 0.  1.
          2   -1    0    0  502    0  0.00000000000E+00 -0.00000000000E+00 -0.50668822009E+03  0.50668822009E+03  0.00000000000E+00 0. -1.
         23    2    1    2    0    0 -0.10727808029E+02  0.39414401266E+02 -0.95609801259E+02  0.13296119012E+03  0.82878604525E+02 0.  0.
         23    2    1    2    0    0 -0.17746712122E+02 -0.68838520654E+02 -0.24857230622E+03  0.27196421361E+03  0.84395819486E+02 0.  0.
        -11    1    3    3    0    0  0.15734138230E+02  0.57632870341E+02 -0.68790789279E+02  0.91111379855E+02  0.00000000000E+00 0. -1.
         11    1    3    3    0    0 -0.26461946259E+02 -0.18218469075E+02 -0.26819011980E+02  0.41849810261E+02  0.00000000000E+00 0.  1.
        -13    1    4    4    0    0  0.31055351183E+02 -0.42740144718E+02 -0.94668479786E+02  0.10841252636E+03  0.00000000000E+00 0. -1.
         13    1    4    4    0    0 -0.48802063305E+02 -0.26098375937E+02 -0.15390382643E+03  0.16355168724E+03  0.00000000000E+00 0.  1.
         21    1    1    2  502  501  0.28474520151E+02  0.29424119389E+02 -0.12896236041E+03  0.13530656858E+03  0.00000000000E+00 0. -1.
<scales pt_clust_5="13000.00000" pt_clust_6="13000.00000" pt_clust_7="13000.00000" pt_clust_8="13000.00000" pt_clust_9="40.94603"></scales>
<clustering>
<clus scale="   40.946">  2  9  1 -1</clus>
<clus scale="   82.879">  5  6 -1 -1</clus>
<clus scale="   84.396">  7  8 -1 -1</clus>
<clus scale="   95.994">  1  5  2 -1</clus>
<clus scale="   40.946">  2  5  1 -1</clus>
</clustering>
</event>
<event>
 9    1  0.1803370E-005  0.1025155E+03  0.7546771E-02  0.1275518E+00
         -2   -1    0    0    0  501 -0.00000000000E+00  0.00000000000E+00  0.74514912406E+02  0.74514912406E+02  0.00000000000E+00 0.  1.
          2   -1    0    0  502    0  0.00000000000E+00 -0.00000000000E+00 -0.20398626676E+03  0.20398626676E+03  0.00000000000E+00 0. -1.
         23    2    1    2    0    0  0.14290788988E+02  0.45553815312E+02 -0.24416910324E+02  0.10489407978E+03  0.90151016209E+02 0.  0.
         23    2    1    2    0    0  0.10545246174E+02 -0.48680200047E+02 -0.54635180965E+02  0.11731584774E+03  0.91088094931E+02 0.  0.
        -11    1    4    4    0    0  0.38155708873E+02 -0.93251082284E+01  0.62140704516E+01  0.39767203002E+02  0.00000000000E+00 0.  1.
         11    1    4    4    0    0 -0.27610462699E+02 -0.39355091819E+02 -0.60849251417E+02  0.77548644737E+02  0.00000000000E+00 0. -1.
        -13    1    3    3    0    0 -0.38318608543E+02  0.17363352032E+02 -0.13772691374E+02  0.44266113249E+02  0.00000000000E+00 0. -1.
         13    1    3    3    0    0  0.52609397531E+02  0.28190463280E+02 -0.10644218950E+02  0.60627966531E+02  0.00000000000E+00 0.  1.
         21    1    1    2  502  501 -0.24836035162E+02  0.31263847347E+01 -0.50419263061E+02  0.56291251644E+02  0.00000000000E+00 0.  1.
<scales pt_clust_5="13000.00000" pt_clust_6="13000.00000" pt_clust_7="13000.00000" pt_clust_8="13000.00000" pt_clust_9="25.03204"></scales>
<clustering>
<clus scale="   25.032">  2  9  1 -1</clus>
<clus scale="   90.151">  7  8 -1 -1</clus>
<clus scale="   91.088">  5  6 -1 -1</clus>
<clus scale="  101.684">  1  7  2 -1</clus>
<clus scale="   25.032">  2  5  1 -1</clus>
</clustering>
</event>
<event>
 9    1  0.1803370E-005  0.9628097E+02  0.7546771E-02  0.1288424E+00
         -3   -1    0    0    0  501 -0.00000000000E+00  0.00000000000E+00  0.38608519779E+03  0.38608519779E+03  0.00000000000E+00 0.  1.
          3   -1    0    0  502    0  0.00000000000E+00 -0.00000000000E+00 -0.57258413645E+02  0.57258413645E+02  0.00000000000E+00 0. -1.
         23    2    1    2    0    0  0.12741858366E+02 -0.19834787504E+02  0.23012538925E+03  0.24841536764E+03  0.90535773875E+02 0.  0.
         23    2    1    2    0    0  0.19797719850E+01  0.70609849527E+02  0.74805238335E+02  0.13691221479E+03  0.90329732247E+02 0.  0.
        -11    1    4    4    0    0 -0.19934630528E+02  0.72632815002E+02  0.84210348436E+02  0.11297919319E+03  0.00000000000E+00 0.  1.
         11    1    4    4    0    0  0.21914402513E+02 -0.20229654752E+01 -0.94051101013E+01  0.23933021598E+02  0.00000000000E+00 0. -1.
        -11    1    3    3    0    0 -0.73026152327E+01  0.34088377373E+02  0.68575487780E+02  0.76928168999E+02  0.00000000000E+00 0.  1.
         11    1    3    3    0    0  0.20044473599E+02 -0.53923164877E+02  0.16154990147E+03  0.17148719864E+03  0.00000000000E+00 0. -1.
         21    1    1    2  502  501 -0.14721630351E+02 -0.50775062023E+02  0.23896156553E+02  0.58016029006E+02  0.00000000000E+00 0. -1.
<scales pt_clust_5="13000.00000" pt_clust_6="13000.00000" pt_clust_7="13000.00000" pt_clust_8="13000.00000" pt_clust_9="52.86618"></scales>
<clustering>
<clus scale="   52.866">  2  9  1 -1</clus>
<clus scale="   90.330">  5  6 -1 -1</clus>
<clus scale="   90.536">  7  8 -1 -1</clus>
<clus scale="   96.087">  2  5  1 -1</clus>
<clus scale="   52.866">  2  5  1 -1</clus>
</clustering>
</event>
<event>
 9    1  0.1803370E-005  0.9882880E+02  0.7546771E-02  0.1283602E+00
         -3   -1    0    0    0  501 -0.00000000000E+00  0.00000000000E+00  0.24238193110E+03  0.24238193110E+03  0.00000000000E+00 0.  1.
          3   -1    0    0  502    0  0.00000000000E+00 -0.00000000000E+00 -0.52759309015E+02  0.52759309015E+02  0.00000000000E+00 0. -1.
         23    2    1    2    0    0 -0.22010639859E+01  0.31189570857E+02  0.11981461650E+03  0.15522423811E+03  0.93602284997E+02 0.  0.
         23    2    1    2    0    0  0.24089726775E+02 -0.27851308742E+02  0.55764988200E+02  0.11369746940E+03  0.91985707068E+02 0.  0.
        -13    1    3    3    0    0 -0.23759082347E+02 -0.33440781761E+01 -0.45016772570E+01  0.24411922311E+02  0.00000000000E+00 0. -1.
         13    1    3    3    0    0  0.21558018361E+02  0.34533649033E+02  0.12431629375E+03  0.13081231580E+03  0.00000000000E+00 0.  1.
        -13    1    4    4    0    0  0.98416037243E+01 -0.59830658873E+02  0.20502622868E+02  0.64007206231E+02  0.00000000000E+00 0. -1.
         13    1    4    4    0    0  0.14248123050E+02  0.31979350131E+02  0.35262365332E+02  0.49690263171E+02  0.00000000000E+00 0.  1.
         21    1    1    2  502  501 -0.21888662789E+02 -0.33382621154E+01  0.14043017385E+02  0.26219532603E+02  0.00000000000E+00 0. -1.
<scales pt_clust_5="13000.00000" pt_clust_6="13000.00000" pt_clust_7="13000.00000" pt_clust_8="13000.00000" pt_clust_9="22.14176"></scales>
<clustering>
<clus scale="   22.142">  2  9  1 -1</clus>
<clus scale="   91.986">  7  8 -1 -1</clus>
<clus scale="   93.602">  5  6 -1 -1</clus>
<clus scale="   97.299">  2  7  1 -1</clus>
<clus scale="   22.142">  2  5  1 -1</clus>
</clustering>
</event>
<event>
 9    1  0.1803370E-005  0.9460245E+02  0.7546771E-02  0.1295815E+00
          2   -1    0    0  502    0  0.00000000000E+00  0.00000000000E+00  0.20109016754E+03  0.20109016754E+03  0.00000000000E+00 0. -1.
         -2   -1    0    0    0  501 -0.00000000000E+00 -0.00000000000E+00 -0.13958282271E+03  0.13958282271E+03  0.00000000000E+00 0.  1.
         23    2    1    2    0    0  0.16764009463E+02 -0.11822483559E+02 -0.88652435846E+02  0.12969349325E+03  0.92413985298E+02 0.  0.
         23    2    1    2    0    0  0.19460090318E+02  0.44442658286E+02  0.89828947513E+02  0.13341616396E+03  0.85888229712E+02 0.  0.
        -11    1    3    3    0    0 -0.86360166463E+01 -0.48453711015E+02 -0.37717852203E+02  0.62007896832E+02  0.00000000000E+00 0.  1.
         11    1    3    3    0    0  0.25400026110E+02  0.36631227457E+02 -0.50934583643E+02  0.67685596416E+02  0.00000000000E+00 0. -1.
        -11    1    4    4    0    0  0.31682855774E+02  0.66256251501E+02  0.70601257693E+02  0.10187360699E+03  0.00000000000E+00 0. -1.
         11    1    4    4    0    0 -0.12222765455E+02 -0.21813593215E+02  0.19227689820E+02  0.31542556969E+02  0.00000000000E+00 0.  1.
         21    1    1    2  502  501 -0.36224099782E+02 -0.32620174728E+02  0.60330833158E+02  0.77563333050E+02  0.00000000000E+00 0.  1.
<scales pt_clust_5="13000.00000" pt_clust_6="13000.00000" pt_clust_7="13000.00000" pt_clust_8="13000.00000" pt_clust_9="48.74691"></scales>
<clustering>
<clus scale="   48.747">  1  9  2 -1</clus>
<clus scale="   85.888">  7  8 -1 -1</clus>
<clus scale="   88.239">  1  7  2 -1</clus>
<clus scale="   92.414">  5  6 -1 -1</clus>
<clus scale="   48.747">  1  5  2 -1</clus>
</clustering>
</event>
<event>
 9    1  0.1803370E-005  0.9504721E+02  0.7546771E-02  0.1291967E+00
          1   -1    0    0  502    0  0.00000000000E+00  0.00000000000E+00  0.99796535317E+03  0.99796535317E+03  0.00000000000E+00 0. -1.
         -1   -1    0    0    0  501 -0.00000000000E+00 -0.00000000000E+00 -0.17819274580E+02  0.17819274580E+02  0.00000000000E+00 0.  1.
         23    2    1    2    0    0  0.27827403466E+02 -0.20356310353E+02  0.22466697810E+03  0.24465576690E+03  0.90512150977E+02 0.  0.
         23    2    1    2    0    0 -0.15150683004E+02 -0.30766858187E+02  0.40792271460E+03  0.41960401254E+03  0.92143602586E+02 0.  0.
        -11    1    3    3    0    0  0.14646600549E+02  0.30570760646E+02  0.38964560827E+02  0.51646212974E+02  0.00000000000E+00 0.  1.
         11    1    3    3    0    0  0.13180802917E+02 -0.50927070999E+02  0.18570241728E+03  0.19300955393E+03  0.00000000000E+00 0. -1.
        -13    1    4    4    0    0 -0.33922595449E+02 -0.56755890864E+02  0.26408472790E+03  0.27223650956E+03  0.00000000000E+00 0. -1.
         13    1    4    4    0    0  0.18771912445E+02  0.25989032677E+02  0.14383798670E+03  0.14736750298E+03  0.00000000000E+00 0.  1.
         21    1    1    2  502  501 -0.12676720462E+02  0.51123168540E+02  0.34755638588E+03  0.35152484830E+03  0.00000000000E+00 0.  1.
<scales pt_clust_5="13000.00000" pt_clust_6="13000.00000" pt_clust_7="13000.00000" pt_clust_8="13000.00000" pt_clust_9="52.67141"></scales>
<clustering>
<clus scale="   52.671">  1  9  2 -1</clus>
<clus scale="   90.512">  5  6 -1 -1</clus>
<clus scale="   92.144">  7  8 -1 -1</clus>
<clus scale="   93.466">  2  5  1 -1</clus>
<clus scale="   52.671">  1  5  2 -1</clus>
</clustering>
</event>
<event>
 9    1  0.1803370E-005  0.9766265E+02  0.7546771E-02  0.1286221E+00
          1   -1    0    0  502    0  0.00000000000E+00  0.00000000000E+00  0.33100009667E+02  0.33100009667E+02  0.00000000000E+00 0. -1.
         -1   -1    0    0    0  501 -0.00000000000E+00 -0.00000000000E+00 -0.50298632756E+03  0.50298632756E+03  0.00000000000E+00 0.  1.
         23    2    1    2    0    0 -0.23740254219E+02 -0.28084159693E+02 -0.30849120898E+03  0.32324546531E+03  0.89266371772E+02 0.  0.
         23    2    1    2    0    0  0.41774116541E+02  0.35969811617E+00 -0.14408904524E+03  0.17551305655E+03  0.91093215259E+02 0.  0.
        -11    1    3    3    0    0  0.43177795155E+01 -0.56160348482E+02 -0.16408940629E+03  0.17348763996E+03  0.00000000000E+00 0.  1.
         11    1    3    3    0    0 -0.28058033734E+02  0.28076188789E+02 -0.14440180269E+03  0.14975782535E+03  0.00000000000E+00 0. -1.
        -13    1    4    4    0    0 -0.85243173523E+01  0.29739283886E+02 -0.93076560679E+02  0.98083307144E+02  0.00000000000E+00 0. -1.
         13    1    4    4    0    0  0.50298433894E+02 -0.29379585770E+02 -0.51012484560E+02  0.77429749406E+02  0.00000000000E+00 0.  1.
         21    1    1    2  502  501 -0.18033862322E+02  0.27724461577E+02 -0.17306063669E+02  0.37327815362E+02  0.00000000000E+00 0. -1.
<scales pt_clust_5="13000.00000" pt_clust_6="13000.00000" pt_clust_7="13000.00000" pt_clust_8="13000.00000" pt_clust_9="33.07364"></scales>
<clustering>
<clus scale="   33.074">  1  9  2 -1</clus>
<clus scale="   89.266">  5  6 -1 -1</clus>
<clus scale="   91.093">  7  8 -1 -1</clus>
<clus scale="   95.961">  2  5  1 -1</clus>
<clus scale="   33.074">  1  5  2 -1</clus>
</clustering>
</event>
<event>
 9    1  0.1803370E-005  0.1910583E+03  0.7546771E-02  0.1157707E+00
          2   -1    0    0  502    0  0.00000000000E+00  0.00000000000E+00  0.10737417341E+04  0.10737417341E+04  0.00000000000E+00 0. -1.
         -2   -1    0    0    0  501 -0.00000000000E+00 -0.00000000000E+00 -0.80181579761E+02  0.80181579761E+02  0.00000000000E+00 0.  1.
         23    2    1    2    0    0  0.95832531641E+02  0.11373048459E+03  0.11289785180E+03  0.20799326909E+03  0.91633933680E+02 0.  0.
         23    2    1    2    0    0 -0.13330876059E+03 -0.19266683855E+03  0.57216752727E+03  0.62529872677E+03  0.93440259572E+02 0.  0.
        -11    1    3    3    0    0  0.52093625346E+02  0.19516331074E+02  0.82974571497E+02  0.99897009442E+02  0.00000000000E+00 0. -1.
         11    1    3    3    0    0  0.43738906295E+02  0.94214153516E+02  0.29923280301E+02  0.10809625965E+03  0.00000000000E+00 0.  1.
        -13    1    4    4    0    0  0.85663040722E+01 -0.26879546506E+02  0.31651071230E+02  0.42399078950E+02  0.00000000000E+00 0.  1.
         13    1    4    4    0    0 -0.14187506466E+03 -0.16578729205E+03  0.54051645604E+03  0.58289964782E+03  0.00000000000E+00 0. -1.
         21    1    1    2  502  501  0.37476228949E+02  0.78936353963E+02  0.30849477529E+03  0.32063131802E+03  0.00000000000E+00 0.  1.
<scales pt_clust_5="13000.00000" pt_clust_6="13000.00000" pt_clust_7="13000.00000" pt_clust_8="13000.00000" pt_clust_9="87.38087"></scales>
<clustering>
<clus scale="   87.381">  1  9  2 -1</clus>
<clus scale="   91.634">  5  6 -1 -1</clus>
<clus scale="   93.440">  7  8 -1 -1</clus>
<clus scale="  190.181">  2  5  1 -1</clus>
<clus scale="   87.381">  1  5  2 -1</clus>
</clustering>
</event>
<event>
 9    1  0.1803370E-005  0.1232591E+03  0.7546771E-02  0.1248450E+00
          1   -1    0    0  502    0  0.00000000000E+00  0.00000000000E+00  0.11469876483E+04  0.11469876483E+04  0.00000000000E+00 0. -1.
         -1   -1    0    0    0  501 -0.00000000000E+00 -0.00000000000E+00 -0.61109103711E+02  0.61109103711E+02  0.00000000000E+00 0.  1.
         23    2    1    2    0    0 -0.73632987887E+02  0.32546241190E+02  0.28565739732E+02  0.12507731580E+03  0.91363333563E+02 0.  0.
         23    2    1    2    0    0 -0.11574837333E+02  0.35765162415E+02  0.26178108036E+03  0.28002656824E+03  0.92045755917E+02 0.  0.
        -11    1    4    4    0    0 -0.28937821732E+02 -0.22421760323E+02  0.12755780874E+03  0.13270692308E+03  0.00000000000E+00 0. -1.
         11    1    4    4    0    0  0.17362984400E+02  0.58186922738E+02  0.13422327162E+03  0.14731964516E+03  0.00000000000E+00 0.  1.
        -11    1    3    3    0    0 -0.39994921187E+02 -0.27501551553E+02  0.28426582396E+02  0.56249441289E+02  0.00000000000E+00 0.  1.
         11    1    3    3    0    0 -0.33638066699E+02  0.60047792743E+02  0.13915733631E+00  0.68827874508E+02  0.00000000000E+00 0. -1.
         21    1    1    2  502  501  0.85207825220E+02 -0.68311403605E+02  0.79553172446E+03  0.80299286794E+03  0.00000000000E+00 0. -1.
<scales pt_clust_5="13000.00000" pt_clust_6="13000.00000" pt_clust_7="13000.00000" pt_clust_8="13000.00000" pt_clust_9="82.73784"></scales>
<clustering>
<clus scale="   91.363">  7  8 -1 -1</clus>
<clus scale="   92.046">  5  6 -1 -1</clus>
<clus scale="   99.426">  1  5  2 -1</clus>
<clus scale="   82.738">  1  9  2 -1</clus>
<clus scale="   99.426">  1  5  2 -1</clus>
</clustering>
</event>
<event>
 9    1  0.1803370E-005  0.2910633E+03  0.7546771E-02  0.1089895E+00
         -1   -1    0    0    0  501 -0.00000000000E+00  0.00000000000E+00  0.12784572982E+03  0.12784572982E+03  0.00000000000E+00 0.  1.
          1   -1    0    0  502    0  0.00000000000E+00 -0.00000000000E+00 -0.10513759615E+04  0.10513759615E+04  0.00000000000E+00 0. -1.
         23    2    1    2    0    0 -0.25204751199E+03  0.13232899706E+03 -0.12559546759E+03  0.32495036857E+03  0.93699566654E+02 0.  0.
         23    2    1    2    0    0  0.21951138931E+03 -0.11621315800E+03 -0.64684436611E+03  0.69887946997E+03  0.91291464256E+02 0.  0.
        -11    1    3    3    0    0 -0.14716710953E+03  0.12554057217E+03 -0.67597537561E+02  0.20490978618E+03  0.00000000000E+00 0.  1.
         11    1    3    3    0    0 -0.10488040245E+03  0.67884248893E+01 -0.57997930031E+02  0.12004058239E+03  0.00000000000E+00 0. -1.
        -13    1    4    4    0    0  0.19509245804E+03 -0.10750606938E+03 -0.62934052922E+03  0.66759877461E+03  0.00000000000E+00 0. -1.
         13    1    4    4    0    0  0.24418931266E+02 -0.87070886150E+01 -0.17503836890E+02  0.31280695360E+02  0.00000000000E+00 0.  1.
         21    1    1    2  502  501  0.32536122676E+02 -0.16115839064E+02 -0.15109039800E+03  0.15539185280E+03  0.00000000000E+00 0. -1.
<scales pt_clust_5="13000.00000" pt_clust_6="13000.00000" pt_clust_7="13000.00000" pt_clust_8="13000.00000" pt_clust_9="36.30867"></scales>
<clustering>
<clus scale="   36.309">  2  9  1 -1</clus>
<clus scale="   91.291">  7  8 -1 -1</clus>
<clus scale="   93.700">  5  6 -1 -1</clus>
<clus scale="  290.297">  2  7  1 -1</clus>
<clus scale="   36.309">  2  5  1 -1</clus>
</clustering>
</event>
<event>
 9    1  0.1803370E-005  0.1603604E+03  0.7546771E-02  0.1196092E+00
         -1   -1    0    0    0  501 -0.00000000000E+00  0.00000000000E+00  0.51156936540E+02  0.51156936540E+02  0.00000000000E+00 0.  1.
          1   -1    0    0  502    0  0.00000000000E+00 -0.00000000000E+00 -0.75156132005E+03  0.75156132005E+03  0.00000000000E+00 0. -1.
         23    2    1    2    0    0 -0.60179412176E+02 -0.64286986576E+02 -0.12835388271E+03  0.18116823187E+03  0.92697522819E+02 0.  0.
         23    2    1    2    0    0  0.10151971387E+03  0.67991531394E+02 -0.31233837799E+03  0.35854217136E+03  0.12676011058E+03 0.  0.
        -11    1    4    4    0    0 -0.20973795023E+02 -0.14370150514E+02 -0.73488829255E+02  0.77762518791E+02  0.00000000000E+00 0.  1.
         11    1    4    4    0    0  0.12249350889E+03  0.82361681908E+02 -0.23884954873E+03  0.28077965257E+03  0.00000000000E+00 0. -1.
        -13    1    3    3    0    0 -0.24808686884E+02  0.10536642581E+02 -0.81983497101E+02  0.86300553757E+02  0.00000000000E+00 0. -1.
         13    1    3    3    0    0 -0.35370725292E+02 -0.74823629157E+02 -0.46370385612E+02  0.94867678109E+02  0.00000000000E+00 0.  1.
         21    1    1    2  502  501 -0.41340301694E+02 -0.37045448178E+01 -0.25971212281E+03  0.26300785336E+03  0.00000000000E+00 0. -1.
<scales pt_clust_5="13000.00000" pt_clust_6="13000.00000" pt_clust_7="13000.00000" pt_clust_8="13000.00000" pt_clust_9="41.50595"></scales>
<clustering>
<clus scale="   41.506">  2  9  1 -1</clus>
<clus scale="   92.698">  7  8 -1 -1</clus>
<clus scale="  126.760">  5  6 -1 -1</clus>
<clus scale="  135.056">  1  7  2 -1</clus>
<clus scale="   41.506">  2  5  1 -1</clus>
</clustering>
</event>
<event>
 9    1  0.1803370E-005  0.1054239E+03  0.7546771E-02  0.1274818E+00
          2   -1    0    0  502    0  0.00000000000E+00  0.00000000000E+00  0.11304964313E+03  0.11304964313E+03  0.00000000000E+00 0. -1.
         -2   -1    0    0    0  501 -0.00000000000E+00 -0.00000000000E+00 -0.11994735338E+03  0.11994735338E+03  0.00000000000E+00 0.  1.
         23    2    1    2    0    0  0.44903641830E+02  0.39091671754E+02 -0.34374081487E+02  0.11198571098E+03  0.88400939675E+02 0.  0.
         23    2    1    2    0    0 -0.25724385889E+02 -0.50819948349E+02  0.16160234830E+02  0.95842827617E+02  0.75367653780E+02 0.  0.
        -11    1    3    3    0    0  0.56263787903E+02  0.20413419664E+02  0.11702568637E+02  0.60985831504E+02  0.00000000000E+00 0. -1.
         11    1    3    3    0    0 -0.11360146073E+02  0.18678252090E+02 -0.46076650124E+02  0.50999879476E+02  0.00000000000E+00 0.  1.
        -13    1    4    4    0    0  0.25007239208E+00 -0.52739781587E+02  0.35350047914E+02  0.63491519005E+02  0.00000000000E+00 0. -1.
         13    1    4    4    0    0 -0.25974458282E+02  0.19198332380E+01 -0.19189813085E+02  0.32351308612E+02  0.00000000000E+00 0.  1.
         21    1    1    2  502  501 -0.19179255940E+02  0.11728276595E+02  0.11316136404E+02  0.25168457907E+02  0.00000000000E+00 0. -1.
<scales pt_clust_5="13000.00000" pt_clust_6="13000.00000" pt_clust_7="13000.00000" pt_clust_8="13000.00000" pt_clust_9="22.48102"></scales>
<clustering>
<clus scale="   22.481">  1  9  2 -1</clus>
<clus scale="   75.368">  7  8 -1 -1</clus>
<clus scale="   88.401">  5  6 -1 -1</clus>
<clus scale="   94.762">  1  7  2 -1</clus>
<clus scale="   22.481">  1  5  2 -1</clus>
</clustering>
</event>
<event>
 9    1  0.1803370E-005  0.1058514E+03  0.7546771E-02  0.1268904E+00
         -1   -1    0    0    0  501 -0.00000000000E+00  0.00000000000E+00  0.27209252937E+03  0.27209252937E+03  0.00000000000E+00 0.  1.
          1   -1    0    0  502    0  0.00000000000E+00 -0.00000000000E+00 -0.10855713210E+03  0.10855713210E+03  0.00000000000E+00 0. -1.
         23    2    1    2    0    0 -0.36632945339E+02 -0.39273666393E+02  0.21936252289E+03  0.24418206967E+03  0.92847041638E+02 0.  0.
         23    2    1    2    0    0  0.11828375229E+02  0.34854798254E+02 -0.39780595754E+02  0.10659646503E+03  0.91790757360E+02 0.  0.
        -13    1    4    4    0    0 -0.22952230932E+02  0.46580195134E+02 -0.45996442013E+02  0.69369965845E+02  0.00000000000E+00 0. -1.
         13    1    4    4    0    0  0.34780606162E+02 -0.11725396881E+02  0.62158462586E+01  0.37226499186E+02  0.00000000000E+00 0.  1.
        -13    1    3    3    0    0  0.21566782650E+01  0.23007451480E+02  0.16323487181E+02  0.28292230709E+02  0.00000000000E+00 0. -1.
         13    1    3    3    0    0 -0.38789623604E+02 -0.62281117872E+02  0.20303903571E+03  0.21588983896E+03  0.00000000000E+00 0.  1.
         21    1    1    2  502  501  0.24804570110E+02  0.44188681391E+01 -0.16046529873E+02  0.29871126777E+02  0.00000000000E+00 0. -1.
<scales pt_clust_5="13000.00000" pt_clust_6="13000.00000" pt_clust_7="13000.00000" pt_clust_8="13000.00000" pt_clust_9="25.19510"></scales>
<clustering>
<clus scale="   25.195">  2  9  1 -1</clus>
<clus scale="   91.791">  5  6 -1 -1</clus>
<clus scale="   92.847">  7  8 -1 -1</clus>
<clus scale="  104.926">  2  5  1 -1</clus>
<clus scale="   25.195">  2  5  1 -1</clus>
</clustering>
</event>
<event>
 9    1  0.1803370E-005  0.9268748E+02  0.7546771E-02  0.1298191E+00
          2   -1    0    0  502    0  0.00000000000E+00  0.00000000000E+00  0.40921355950E+02  0.40921355950E+02  0.00000000000E+00 0. -1.
         -2   -1    0    0    0  501 -0.00000000000E+00 -0.00000000000E+00 -0.35275053355E+03  0.35275053355E+03  0.00000000000E+00 0.  1.
         23    2    1    2    0    0 -0.32130479377E+02 -0.36386634260E+01 -0.15639887151E+03  0.18249395403E+03  0.88305315083E+02 0.  0.
         23    2    1    2    0    0 -0.80164193151E+01  0.21205256719E+02 -0.77846360896E+02  0.12207334958E+03  0.91257442883E+02 0.  0.
        -11    1    3    3    0    0 -0.33662478678E+02  0.33711677267E+02 -0.12466870954E+03  0.13346133071E+03  0.00000000000E+00 0.  1.
         11    1    3    3    0    0  0.15319993009E+01 -0.37350340693E+02 -0.31730161971E+02  0.49032623328E+02  0.00000000000E+00 0. -1.
        -11    1    4    4    0    0 -0.21712815614E+02 -0.22360273180E+02  0.74538506811E+00  0.31176654366E+02  0.00000000000E+00 0.  1.
         11    1    4    4    0    0  0.13696396299E+02  0.43565529899E+02 -0.78591745964E+02  0.90896695212E+02  0.00000000000E+00 0. -1.
         21    1    1    2  502  501  0.40146898692E+02 -0.17566593293E+02 -0.77583945191E+02  0.89104585886E+02  0.00000000000E+00 0. -1.
<scales pt_clust_5="13000.00000" pt_clust_6="13000.00000" pt_clust_7="13000.00000" pt_clust_8="13000.00000" pt_clust_9="43.82190"></scales>
<clustering>
<clus scale="   43.822">  2  9  1 -1</clus>
<clus scale="   88.305">  5  6 -1 -1</clus>
<clus scale="   89.782">  2  5  1 -1</clus>
<clus scale="   91.257">  7  8 -1 -1</clus>
<clus scale="   92.687">  1  5  2 -1</clus>
</clustering>
</event>
<event>
 9    1  0.1803370E-005  0.9403228E+02  0.7546771E-02  0.1293373E+00
         -1   -1    0    0    0  501 -0.00000000000E+00  0.00000000000E+00  0.17843542474E+02  0.17843542474E+02  0.00000000000E+00 0.  1.
          1   -1    0    0  502    0  0.00000000000E+00 -0.00000000000E+00 -0.72559043731E+03  0.72559043731E+03  0.00000000000E+00 0. -1.
         23    2    1    2    0    0  0.10017597781E+02 -0.23630129985E+02 -0.25418858520E+03  0.27127976560E+03  0.91225758780E+02 0.  0.
         23    2    1    2    0    0 -0.29639111031E+02 -0.35492549561E+01 -0.36665745862E+03  0.37901195388E+03  0.91221133034E+02 0.  0.
        -11    1    4    4    0    0  0.76871330409E+01 -0.41516964746E+02 -0.18188048985E+03  0.18671706661E+03  0.00000000000E+00 0. -1.
         11    1    4    4    0    0 -0.37326244072E+02  0.37967709790E+02 -0.18477696877E+03  0.19229488727E+03  0.00000000000E+00 0.  1.
        -13    1    3    3    0    0 -0.35865985621E+02  0.10593924726E+02 -0.93623366473E+02  0.10081634250E+03  0.00000000000E+00 0. -1.
         13    1    3    3    0    0  0.45883583402E+02 -0.34224054711E+02 -0.16056521873E+03  0.17046342309E+03  0.00000000000E+00 0.  1.
         21    1    1    2  502  501  0.19621513250E+02  0.27179384941E+02 -0.86900851016E+02  0.93142260308E+02  0.00000000000E+00 0.  1.
<scales pt_clust_5="13000.00000" pt_clust_6="13000.00000" pt_clust_7="13000.00000" pt_clust_8="13000.00000" pt_clust_9="33.52197"></scales>
<clustering>
<clus scale="   33.522">  1  9  2 -1</clus>
<clus scale="   91.221">  5  6 -1 -1</clus>
<clus scale="   91.226">  7  8 -1 -1</clus>
<clus scale="   94.028">  2  5  1 -1</clus>
<clus scale="   94.028">  2  5  1 -1</clus>
</clustering>
</event>
<event>
 9    1  0.1803370E-005  0.9264325E+02  0.7546771E-02  0.1297284E+00
          3   -1    0    0  502    0  0.00000000000E+00  0.00000000000E+00  0.81139097254E+02  0.81139097254E+02  0.00000000000E+00 0. -1.
         -3   -1    0    0    0  501 -0.00000000000E+00 -0.00000000000E+00 -0.18800017567E+03  0.18800017567E+03  0.00000000000E+00 0.  1.
         23    2    1    2    0    0 -0.16508969425E+02  0.19887539260E+02 -0.71988230060E+02  0.11957268024E+03  0.91908978362E+02 0.  0.
         23    2    1    2    0    0  0.56351590395E+01  0.22320545413E+02 -0.46461047708E+02  0.10446616554E+03  0.90689519921E+02 0.  0.
        -11    1    4    4    0    0 -0.27580755998E+02 -0.23389213518E+02 -0.11177914845E+02  0.37851013074E+02  0.00000000000E+00 0.  1.
         11    1    4    4    0    0  0.33215915038E+02  0.45709758932E+02 -0.35283132863E+02  0.66615152466E+02  0.00000000000E+00 0. -1.
        -13    1    3    3    0    0  0.34008236878E+02  0.19643912030E+02 -0.11830820388E+02  0.41017213051E+02  0.00000000000E+00 0. -1.
         13    1    3    3    0    0 -0.50517206303E+02  0.24362722996E+00 -0.60157409672E+02  0.78555467189E+02  0.00000000000E+00 0.  1.
         21    1    1    2  502  501  0.10873810385E+02 -0.42208084674E+02  0.11588199353E+02  0.45100427142E+02  0.00000000000E+00 0.  1.
<scales pt_clust_5="13000.00000" pt_clust_6="13000.00000" pt_clust_7="13000.00000" pt_clust_8="13000.00000" pt_clust_9="43.58626"></scales>
<clustering>
<clus scale="   43.586">  1  9  2 -1</clus>
<clus scale="   90.690">  5  6 -1 -1</clus>
<clus scale="   91.434">  1  5  2 -1</clus>
<clus scale="   91.909">  7  8 -1 -1</clus>
<clus scale="   43.586">  1  5  2 -1</clus>
</clustering>
</event>
<event>
 9    1  0.1803370E-005  0.1073805E+03  0.7546771E-02  0.1265616E+00
          2   -1    0    0  502    0  0.00000000000E+00  0.00000000000E+00  0.87702490693E+03  0.87702490693E+03  0.00000000000E+00 0. -1.
         -2   -1    0    0    0  501 -0.00000000000E+00 -0.00000000000E+00 -0.18113839225E+02  0.18113839225E+02  0.00000000000E+00 0.  1.
         23    2    1    2    0    0  0.44570120664E+02  0.40033152913E+02  0.25989489720E+03  0.28244696398E+03  0.92961179440E+02 0.  0.
         23    2    1    2    0    0 -0.21120796723E+02 -0.40401057990E+02  0.44028137091E+03  0.45223386635E+03  0.92679289836E+02 0.  0.
        -11    1    4    4    0    0 -0.36166002979E+02  0.17897217869E+02  0.12830483305E+03  0.13450063332E+03  0.00000000000E+00 0.  1.
         11    1    4    4    0    0  0.15045206255E+02 -0.58298275859E+02  0.31197653786E+03  0.31773323303E+03  0.00000000000E+00 0. -1.
        -13    1    3    3    0    0  0.42229235590E+02 -0.22548978915E+02  0.11843481613E+03  0.12774416018E+03  0.00000000000E+00 0. -1.
         13    1    3    3    0    0  0.23408850744E+01  0.62582131828E+02  0.14146008107E+03  0.15470280380E+03  0.00000000000E+00 0.  1.
         21    1    1    2  502  501 -0.23449323941E+02  0.36790507752E+00  0.15873479959E+03  0.16045791582E+03  0.00000000000E+00 0. -1.
<scales pt_clust_5="13000.00000" pt_clust_6="13000.00000" pt_clust_7="13000.00000" pt_clust_8="13000.00000" pt_clust_9="23.45221"></scales>
<clustering>
<clus scale="   23.452">  1  9  2 -1</clus>
<clus scale="   92.679">  5  6 -1 -1</clus>
<clus scale="   92.961">  7  8 -1 -1</clus>
<clus scale="  107.137">  1  5  2 -1</clus>
<clus scale="   23.452">  1  5  2 -1</clus>
</clustering>
</event>
<event>
 9    1  0.1803370E-005  0.9187089E+02  0.7546771E-02  0.1298469E+00
         -2   -1    0    0    0  501 -0.00000000000E+00  0.00000000000E+00  0.91473297944E+02  0.91473297944E+02  0.00000000000E+00 0.  1.
          2   -1    0    0  502    0  0.00000000000E+00 -0.00000000000E+00 -0.16815118095E+03  0.16815118095E+03  0.00000000000E+00 0. -1.
         23    2    1    2    0    0 -0.76519896070E+01 -0.22472465160E+01  0.32372693340E+02  0.96653023590E+02  0.90720519361E+02 0.  0.
         23    2    1    2    0    0  0.28922956597E+02  0.83742549929E+01 -0.71883377351E+02  0.11971183267E+03  0.90868241847E+02 0.  0.
        -11    1    3    3    0    0  0.17951066444E+02  0.38630913987E+02  0.11701064024E+02  0.44175821456E+02  0.00000000000E+00 0.  1.
         11    1    3    3    0    0 -0.25603056051E+02 -0.40878160503E+02  0.20671629315E+02  0.52477202134E+02  0.00000000000E+00 0. -1.
        -11    1    4    4    0    0  0.54048894281E+02  0.17855815194E+02 -0.73315216503E+02  0.92818285268E+02  0.00000000000E+00 0.  1.
         11    1    4    4    0    0 -0.25125937684E+02 -0.94815602015E+01  0.14318391517E+01  0.26893547400E+02  0.00000000000E+00 0. -1.
         21    1    1    2  502  501 -0.21270966990E+02 -0.61270084770E+01 -0.37167198998E+02  0.43259622640E+02  0.00000000000E+00 0. -1.
<scales pt_clust_5="13000.00000" pt_clust_6="13000.00000" pt_clust_7="13000.00000" pt_clust_8="13000.00000" pt_clust_9="22.13581"></scales>
<clustering>
<clus scale="   22.136">  2  9  1 -1</clus>
<clus scale="   90.721">  5  6 -1 -1</clus>
<clus scale="   90.868">  7  8 -1 -1</clus>
<clus scale="   91.725">  1  5  2 -1</clus>
<clus scale="   22.136">  2  5  1 -1</clus>
</clustering>
</event>
<event>
 9    1  0.1803370E-005  0.1566642E+03  0.7546771E-02  0.1193010E+00
         -1   -1    0    0    0  501 -0.00000000000E+00  0.00000000000E+00  0.17092868057E+03  0.17092868057E+03  0.00000000000E+00 0.  1.
          1   -1    0    0  502    0  0.00000000000E+00 -0.00000000000E+00 -0.40386999812E+03  0.40386999812E+03  0.00000000000E+00 0. -1.
         23    2    1    2    0    0  0.17156224709E+02 -0.10448062968E+03  0.10852504247E+03  0.17659767957E+03  0.90545665621E+02 0.  0.
         23    2    1    2    0    0 -0.41534468350E+01  0.12829390468E+03 -0.33438822438E+03  0.37016095092E+03  0.93418776914E+02 0.  0.
        -13    1    4    4    0    0 -0.47398607072E+02  0.80291393122E+02 -0.17771823225E+03  0.20069156892E+03  0.00000000000E+00 0. -1.
         13    1    4    4    0    0  0.43245160236E+02  0.48002511561E+02 -0.15666999213E+03  0.16946938200E+03  0.00000000000E+00 0.  1.
        -13    1    3    3    0    0  0.77285280665E+01 -0.75675161843E+02  0.12172503593E+03  0.14353900041E+03  0.00000000000E+00 0.  1.
         13    1    3    3    0    0  0.94276966425E+01 -0.28805467836E+02 -0.13199993453E+02  0.33058679169E+02  0.00000000000E+00 0. -1.
         21    1    1    2  502  501 -0.13002777874E+02 -0.23813275004E+02 -0.70781356409E+01  0.28040048199E+02  0.00000000000E+00 0.  1.
<scales pt_clust_5="13000.00000" pt_clust_6="13000.00000" pt_clust_7="13000.00000" pt_clust_8="13000.00000" pt_clust_9="27.13198"></scales>
<clustering>
<clus scale="   27.132">  1  9  2 -1</clus>
<clus scale="   90.546">  7  8 -1 -1</clus>
<clus scale="   93.419">  5  6 -1 -1</clus>
<clus scale="  154.968">  1  7  2 -1</clus>
<clus scale="  156.664">  2  5  1 -1</clus>
</clustering>
</event>
<event>
 9    1  0.1803370E-005  0.1055718E+03  0.7546771E-02  0.1269633E+00
         -1   -1    0    0    0  501 -0.00000000000E+00  0.00000000000E+00  0.10603487606E+03  0.10603487606E+03  0.00000000000E+00 0.  1.
          1   -1    0    0  502    0  0.00000000000E+00 -0.00000000000E+00 -0.14037100375E+03  0.14037100375E+03  0.00000000000E+00 0. -1.
         23    2    1    2    0    0 -0.13552259434E+02 -0.48129492978E+02  0.53960210633E+01  0.10384894521E+03  0.90859091720E+02 0.  0.
         23    2    1    2    0    0  0.40642802191E+02  0.40121020734E+02 -0.29467027531E+02  0.11250022406E+03  0.92338838132E+02 0.  0.
        -11    1    3    3    0    0 -0.16199824441E+02 -0.68615819729E+02  0.25550128169E+02  0.74989159740E+02  0.00000000000E+00 0.  1.
         11    1    3    3    0    0  0.26475650074E+01  0.20486326751E+02 -0.20154107106E+02  0.28859785471E+02  0.00000000000E+00 0. -1.
        -13    1    4    4    0    0 -0.28754946924E+02  0.12143975799E+02  0.21097170859E+01  0.31285364422E+02  0.00000000000E+00 0.  1.
         13    1    4    4    0    0  0.69397749116E+02  0.27977044935E+02 -0.31576744617E+02  0.81214859639E+02  0.00000000000E+00 0. -1.
         21    1    1    2  502  501 -0.27090542757E+02  0.80084722445E+01 -0.10265121222E+02  0.30056710537E+02  0.00000000000E+00 0.  1.
<scales pt_clust_5="13000.00000" pt_clust_6="13000.00000" pt_clust_7="13000.00000" pt_clust_8="13000.00000" pt_clust_9="28.24948"></scales>
<clustering>
<clus scale="   28.249">  2  9  1 -1</clus>
<clus scale="   90.859">  5  6 -1 -1</clus>
<clus scale="   92.339">  7  8 -1 -1</clus>
<clus scale="  104.280">  1  5  2 -1</clus>
<clus scale="   28.249">  2  5  1 -1</clus>
</clustering>
</event>
<event>
 9    1  0.1803370E-005  0.1204255E+03  0.7546771E-02  0.1242865E+00
          1   -1    0    0  502    0  0.00000000000E+00  0.00000000000E+00  0.17024914788E+03  0.17024914788E+03  0.00000000000E+00 0. -1.
         -1   -1    0    0    0  501 -0.00000000000E+00 -0.00000000000E+00 -0.13303581696E+03  0.13303581696E+03  0.00000000000E+00 0.  1.
         23    2    1    2    0    0 -0.84671740232E+01 -0.67249909173E+02 -0.36224619603E+02  0.12127227957E+03  0.93810977007E+02 0.  0.
         23    2    1    2    0    0 -0.39918560455E+01  0.96202835761E+02  0.68938318370E+02  0.15017330591E+03  0.92350471283E+02 0.  0.
        -13    1    3    3    0    0 -0.23843006582E+02 -0.81906747415E+02 -0.47059887586E+02  0.97426060449E+02  0.00000000000E+00 0.  1.
         13    1    3    3    0    0  0.15375832559E+02  0.14656838242E+02  0.10835267983E+02  0.23846219122E+02  0.00000000000E+00 0. -1.
        -13    1    4    4    0    0  0.23209756447E+02  0.54357136852E+02  0.79593404052E+02  0.99138797096E+02  0.00000000000E+00 0. -1.
         13    1    4    4    0    0 -0.27201612492E+02  0.41845698909E+02 -0.10655085682E+02  0.51034508817E+02  0.00000000000E+00 0.  1.
         21    1    1    2  502  501  0.12459030069E+02 -0.28952926588E+02  0.44996321554E+01  0.31839379357E+02  0.00000000000E+00 0. -1.
<scales pt_clust_5="13000.00000" pt_clust_6="13000.00000" pt_clust_7="13000.00000" pt_clust_8="13000.00000" pt_clust_9="31.51983"></scales>
<clustering>
<clus scale="   31.520">  1  9  2 -1</clus>
<clus scale="   92.350">  7  8 -1 -1</clus>
<clus scale="   93.811">  5  6 -1 -1</clus>
<clus scale="  119.291">  1  7  2 -1</clus>
<clus scale="   31.520">  1  5  2 -1</clus>
</clustering>
</event>
<event>
 9    1  0.1803370E-005  0.1149685E+03  0.7546771E-02  0.1254133E+00
          2   -1    0    0  502    0  0.00000000000E+00  0.00000000000E+00  0.91902693968E+03  0.91902693968E+03  0.00000000000E+00 0. -1.
         -2   -1    0    0    0  501 -0.00000000000E+00 -0.00000000000E+00 -0.22947749825E+02  0.22947749825E+02  0.00000000000E+00 0.  1.
         23    2    1    2    0    0 -0.21097547184E+02  0.54467284582E+02  0.18629209925E+03  0.21632163239E+03  0.93158525166E+02 0.  0.
         23    2    1    2    0    0 -0.11863124887E+02 -0.60325944868E+02  0.53032848592E+03  0.54309862523E+03  0.99638649093E+02 0.  0.
        -13    1    4    4    0    0  0.39633758359E+02 -0.46624568083E+02  0.33943022473E+03  0.34490225081E+03  0.00000000000E+00 0.  1.
         13    1    4    4    0    0 -0.51496883246E+02 -0.13701376785E+02  0.19089826119E+03  0.19819637443E+03  0.00000000000E+00 0. -1.
        -13    1    3    3    0    0  0.30350035485E+02 -0.12617882680E+01  0.81381445624E+02  0.86865738098E+02  0.00000000000E+00 0.  1.
         13    1    3    3    0    0 -0.51447582669E+02  0.55729072850E+02  0.10491065362E+03  0.12945589429E+03  0.00000000000E+00 0. -1.
         21    1    1    2  502  501  0.32960672071E+02  0.58586602867E+01  0.17945860468E+03  0.18255443188E+03  0.00000000000E+00 0.  1.
<scales pt_clust_5="13000.00000" pt_clust_6="13000.00000" pt_clust_7="13000.00000" pt_clust_8="13000.00000" pt_clust_9="33.47730"></scales>
<clustering>
<clus scale="   33.477">  1  9  2 -1</clus>
<clus scale="   93.159">  7  8 -1 -1</clus>
<clus scale="   99.639">  5  6 -1 -1</clus>
<clus scale="  109.400">  2  7  1 -1</clus>
<clus scale="   33.477">  1  5  2 -1</clus>
</clustering>
</event>
<event>
 9    1  0.1803370E-005  0.1046293E+03  0.7546771E-02  0.1272085E+00
         -2   -1    0    0    0  501 -0.00000000000E+00  0.00000000000E+00  0.13061217702E+02  0.13061217702E+02  0.00000000000E+00 0.  1.
          2   -1    0    0  502    0  0.00000000000E+00 -0.00000000000E+00 -0.11183179224E+04  0.11183179224E+04  0.00000000000E+00 0. -1.
         23    2    1    2    0    0 -0.32448040045E+02  0.14071283944E+02 -0.36771311556E+03  0.38052779621E+03  0.91310415594E+02 0.  0.
         23    2    1    2    0    0  0.54273977910E+02 -0.27473156914E+02 -0.52815652511E+03  0.53990366236E+03  0.94054295941E+02 0.  0.
        -11    1    4    4    0    0  0.74795332568E+02  0.31353671002E+01 -0.33488843987E+03  0.34315366742E+03  0.00000000000E+00 0.  1.
         11    1    4    4    0    0 -0.20521354657E+02 -0.30608524014E+02 -0.19326808524E+03  0.19674999494E+03  0.00000000000E+00 0. -1.
        -13    1    3    3    0    0 -0.52628871137E+02 -0.18726401867E+02 -0.26522103821E+03  0.27103998840E+03  0.00000000000E+00 0. -1.
         13    1    3    3    0    0  0.20180831092E+02  0.32797685811E+02 -0.10249207735E+03  0.10948780781E+03  0.00000000000E+00 0.  1.
         21    1    1    2  502  501 -0.21825937865E+02  0.13401872970E+02 -0.20938706406E+03  0.21094768157E+03  0.00000000000E+00 0. -1.
<scales pt_clust_5="13000.00000" pt_clust_6="13000.00000" pt_clust_7="13000.00000" pt_clust_8="13000.00000" pt_clust_9="25.61214"></scales>
<clustering>
<clus scale="   25.612">  2  9  1 -1</clus>
<clus scale="   91.310">  7  8 -1 -1</clus>
<clus scale="   94.054">  5  6 -1 -1</clus>
<clus scale="  102.170">  1  7  2 -1</clus>
<clus scale="   25.612">  2  5  1 -1</clus>
</clustering>
</event>
<event>
 9    1  0.1803370E-005  0.9652954E+02  0.7546771E-02  0.1289611E+00
          4   -1    0    0  502    0  0.00000000000E+00  0.00000000000E+00  0.99805311523E+02  0.99805311523E+02  0.00000000000E+00 0. -1.
         -4   -1    0    0    0  501 -0.00000000000E+00 -0.00000000000E+00 -0.32847878201E+03  0.32847878201E+03  0.00000000000E+00 0.  1.
         23    2    1    2    0    0  0.17525361502E+02 -0.90537675183E+01 -0.25389050709E+03  0.27055017646E+03  0.91366839658E+02 0.  0.
         23    2    1    2    0    0 -0.40599775319E+01  0.32793842260E+02  0.61563783620E+02  0.11228071331E+03  0.87891635660E+02 0.  0.
        -11    1    3    3    0    0 -0.24465986124E+02 -0.35999358203E+02 -0.11378443382E+03  0.12182543104E+03  0.00000000000E+00 0.  1.
         11    1    3    3    0    0  0.41991347627E+02  0.26945590685E+02 -0.14010607327E+03  0.14872474542E+03  0.00000000000E+00 0. -1.
        -13    1    4    4    0    0 -0.29785640824E+02 -0.35303757797E+00 -0.81780840394E+01  0.30889967520E+02  0.00000000000E+00 0.  1.
         13    1    4    4    0    0  0.25725663292E+02  0.33146879838E+02  0.69741867660E+02  0.81390745785E+02  0.00000000000E+00 0. -1.
         21    1    1    2  502  501 -0.13465383970E+02 -0.23740074741E+02 -0.36346747019E+02  0.45453203771E+02  0.00000000000E+00 0.  1.
<scales pt_clust_5="13000.00000" pt_clust_6="13000.00000" pt_clust_7="13000.00000" pt_clust_8="13000.00000" pt_clust_9="27.29300"></scales>
<clustering>
<clus scale="   27.293">  2  9  1 -1</clus>
<clus scale="   87.892">  7  8 -1 -1</clus>
<clus scale="   91.367">  5  6 -1 -1</clus>
<clus scale="   93.247">  1  7  2 -1</clus>
<clus scale="   93.247">  1  5  2 -1</clus>
</clustering>
</event>
<event>
 9    1  0.1803370E-005  0.1799237E+03  0.7546771E-02  0.1167887E+00
         -2   -1    0    0    0  501 -0.00000000000E+00  0.00000000000E+00  0.68641097177E+03  0.68641097177E+03  0.00000000000E+00 0.  1.
          2   -1    0    0  502    0  0.00000000000E+00 -0.00000000000E+00 -0.58573302049E+02  0.58573302049E+02  0.00000000000E+00 0. -1.
         23    2    1    2    0    0 -0.14469921101E+03 -0.63981824345E+02  0.38497116552E+03  0.42630790657E+03  0.92217663245E+02 0.  0.
         23    2    1    2    0    0  0.14816845313E+03  0.38360384016E+02  0.19676942409E+03  0.26582341424E+03  0.92295567284E+02 0.  0.
        -11    1    3    3    0    0 -0.13296765005E+03 -0.23279867233E+02  0.33260342049E+03  0.35895317731E+03  0.00000000000E+00 0.  1.
         11    1    3    3    0    0 -0.11731560968E+02 -0.40701957112E+02  0.52367745022E+02  0.67354729264E+02  0.00000000000E+00 0. -1.
        -13    1    4    4    0    0  0.10052554285E+03  0.32622030724E+02  0.61462090838E+02  0.12225862041E+03  0.00000000000E+00 0. -1.
         13    1    4    4    0    0  0.47642910279E+02  0.57383532929E+01  0.13530733325E+03  0.14356479384E+03  0.00000000000E+00 0.  1.
         21    1    1    2  502  501 -0.34692421169E+01  0.25621440328E+02  0.46097080120E+02  0.52852953001E+02  0.00000000000E+00 0.  1.
<scales pt_clust_5="13000.00000" pt_clust_6="13000.00000" pt_clust_7="13000.00000" pt_clust_8="13000.00000" pt_clust_9="25.85525"></scales>
<clustering>
<clus scale="   25.855">  1  9  2 -1</clus>
<clus scale="   92.218">  5  6 -1 -1</clus>
<clus scale="   92.296">  7  8 -1 -1</clus>
<clus scale="  179.884">  1  5  2 -1</clus>
<clus scale="  179.924">  2  5  1 -1</clus>
</clustering>
</event>
<event>
 9    1  0.1803370E-005  0.1552572E+03  0.7546771E-02  0.1196318E+00
          2   -1    0    0  502    0  0.00000000000E+00  0.00000000000E+00  0.56754348364E+03  0.56754348364E+03  0.00000000000E+00 0. -1.
         -2   -1    0    0    0  501 -0.00000000000E+00 -0.00000000000E+00 -0.50670206235E+02  0.50670206235E+02  0.00000000000E+00 0.  1.
         23    2    1    2    0    0  0.84186618453E+02 -0.11002525878E+03  0.21014325303E+03  0.26805947197E+03  0.92210354213E+02 0.  0.
         23    2    1    2    0    0 -0.57806237185E+02  0.94921779648E+02  0.22888673266E+03  0.26658617578E+03  0.79544625359E+02 0.  0.
        -13    1    4    4    0    0  0.15492290560E+02  0.34291108129E+02  0.38931323353E+02  0.54143689397E+02  0.00000000000E+00 0.  1.
         13    1    4    4    0    0 -0.73298527745E+02  0.60630671519E+02  0.18995540930E+03  0.21244248639E+03  0.00000000000E+00 0. -1.
        -13    1    3    3    0    0  0.56109719213E+02 -0.12173053516E+03  0.15366797204E+03  0.20391289662E+03  0.00000000000E+00 0.  1.
         13    1    3    3    0    0  0.28076899239E+02  0.11705276373E+02  0.56475280993E+02  0.64146575350E+02  0.00000000000E+00 0. -1.
         21    1    1    2  502  501 -0.26380381267E+02  0.15103479137E+02  0.77843291723E+02  0.83568042122E+02  0.00000000000E+00 0. -1.
<scales pt_clust_5="13000.00000" pt_clust_6="13000.00000" pt_clust_7="13000.00000" pt_clust_8="13000.00000" pt_clust_9="30.39802"></scales>
<clustering>
<clus scale="   30.398">  1  9  2 -1</clus>
<clus scale="   79.545">  5  6 -1 -1</clus>
<clus scale="   92.210">  7  8 -1 -1</clus>
<clus scale="  148.086">  1  5  2 -1</clus>
<clus scale="   30.398">  1  5  2 -1</clus>
</clustering>
</event>
<event>
 9    1  0.1803370E-005  0.3069385E+03  0.7546771E-02  0.1081826E+00
          1   -1    0    0  502    0  0.00000000000E+00  0.00000000000E+00  0.28373598584E+03  0.28373598584E+03  0.00000000000E+00 0. -1.
         -1   -1    0    0    0  501 -0.00000000000E+00 -0.00000000000E+00 -0.54764992464E+03  0.54764992464E+03  0.00000000000E+00 0.  1.
         23    2    1    2    0    0  0.13213711744E+02 -0.23316386053E+03 -0.79487460255E+02  0.26317970084E+03  0.91680480787E+02 0.  0.
         23    2    1    2    0    0 -0.13566125004E+02  0.36074157935E+03 -0.22398192355E+03  0.43463663316E+03  0.91774582505E+02 0.  0.
        -11    1    3    3    0    0 -0.40975544332E+01 -0.12966200494E+03 -0.89738891085E+02  0.15774059100E+03  0.00000000000E+00 0. -1.
         11    1    3    3    0    0  0.17311266177E+02 -0.10350185559E+03  0.10251430830E+02  0.10543910983E+03  0.00000000000E+00 0.  1.
        -13    1    4    4    0    0  0.18909268107E+01  0.23319453554E+03 -0.19241434252E+03  0.30233515544E+03  0.00000000000E+00 0.  1.
         13    1    4    4    0    0 -0.15457051815E+02  0.12754704381E+03 -0.31567581030E+02  0.13230147772E+03  0.00000000000E+00 0. -1.
         21    1    1    2  502  501  0.35241325991E+00 -0.12757771881E+03  0.39555445002E+02  0.13356957648E+03  0.00000000000E+00 0. -1.
<scales pt_clust_5="13000.00000" pt_clust_6="13000.00000" pt_clust_7="13000.00000" pt_clust_8="13000.00000" pt_clust_9="127.57821"></scales>
<clustering>
<clus scale="   91.680">  5  6 -1 -1</clus>
<clus scale="   91.775">  7  8 -1 -1</clus>
<clus scale="  127.578">  1  9  2 -1</clus>
<clus scale="  306.910">  2  5  1 -1</clus>
<clus scale="  127.578">  1  5  2 -1</clus>
</clustering>
</event>
<event>
 9    1  0.1803370E-005  0.1429460E+03  0.7546771E-02  0.1212788E+00
         -2   -1    0    0    0  501 -0.00000000000E+00  0.00000000000E+00  0.24941885632E+02  0.24941885632E+02  0.00000000000E+00 0.  1.
          2   -1    0    0  502    0  0.00000000000E+00 -0.00000000000E+00 -0.99674262947E+03  0.99674262947E+03  0.00000000000E+00 0. -1.
         23    2    1    2    0    0 -0.69250995338E+02 -0.63680472013E+02 -0.33273642268E+03  0.35573510610E+03  0.83564561047E+02 0.  0.
         23    2    1    2    0    0  0.10158319844E+03  0.62222412436E+02 -0.51286685520E+03  0.53566779975E+03  0.98573859174E+02 0.  0.
        -11    1    3    3    0    0 -0.70716991128E+02 -0.93048479417E+01 -0.19613752460E+03  0.20870410055E+03  0.00000000000E+00 0.  1.
         11    1    3    3    0    0  0.14659957906E+01 -0.54375624071E+02 -0.13659889807E+03  0.14703100555E+03  0.00000000000E+00 0. -1.
        -13    1    4    4    0    0  0.18148793698E+02 -0.24772033773E+02 -0.65412434826E+02  0.72262154686E+02  0.00000000000E+00 0.  1.
         13    1    4    4    0    0  0.83434404741E+02  0.86994446209E+02 -0.44745442037E+03  0.46340564506E+03  0.00000000000E+00 0. -1.
         21    1    1    2  502  501 -0.32332203101E+02  0.14580595772E+01 -0.12619746597E+03  0.13028160926E+03  0.00000000000E+00 0.  1.
<scales pt_clust_5="13000.00000" pt_clust_6="13000.00000" pt_clust_7="13000.00000" pt_clust_8="13000.00000" pt_clust_9="32.36506"></scales>
<clustering>
<clus scale="   32.365">  2  9  1 -1</clus>
<clus scale="   83.565">  5  6 -1 -1</clus>
<clus scale="   98.574">  7  8 -1 -1</clus>
<clus scale="  133.041">  1  5  2 -1</clus>
<clus scale="   32.365">  2  5  1 -1</clus>
</clustering>
</event>
<event>
 9    1  0.1803370E-005  0.1109520E+03  0.7546771E-02  0.1262088E+00
         -2   -1    0    0    0  501 -0.00000000000E+00  0.00000000000E+00  0.33331040919E+02  0.33331040919E+02  0.00000000000E+00 0.  1.
          2   -1    0    0  502    0  0.00000000000E+00 -0.00000000000E+00 -0.45449385792E+03  0.45449385792E+03  0.00000000000E+00 0. -1.
         23    2    1    2    0    0  0.39011334254E+02  0.32473310985E+02 -0.15622299958E+03  0.18539737448E+03  0.85966044115E+02 0.  0.
         23    2    1    2    0    0 -0.65908144622E+02 -0.25432875262E+02 -0.20655378098E+03  0.23775963901E+03  0.94204388624E+02 0.  0.
        -11    1    3    3    0    0  0.58324003513E+02  0.21699520587E+01 -0.65031891253E+02  0.87381605374E+02  0.00000000000E+00 0. -1.
         11    1    3    3    0    0 -0.19312669259E+02  0.30303358926E+02 -0.91191108324E+02  0.98015769106E+02  0.00000000000E+00 0.  1.
        -13    1    4    4    0    0 -0.87758189925E+02 -0.25411471152E+02 -0.13551688462E+03  0.16343827208E+03  0.00000000000E+00 0.  1.
         13    1    4    4    0    0  0.21850045303E+02 -0.21404110870E-01 -0.71036896363E+02  0.74321366933E+02  0.00000000000E+00 0. -1.
         21    1    1    2  502  501  0.26896810368E+02 -0.70404357225E+01 -0.58386036445E+02  0.64667885344E+02  0.00000000000E+00 0.  1.
<scales pt_clust_5="13000.00000" pt_clust_6="13000.00000" pt_clust_7="13000.00000" pt_clust_8="13000.00000" pt_clust_9="27.80299"></scales>
<clustering>
<clus scale="   27.803">  2  9  1 -1</clus>
<clus scale="   85.966">  5  6 -1 -1</clus>
<clus scale="   94.204">  7  8 -1 -1</clus>
<clus scale="  104.048">  1  5  2 -1</clus>
<clus scale="   27.803">  2  5  1 -1</clus>
</clustering>
</event>
<event>
 9    1  0.1803370E-005  0.1118324E+03  0.7546771E-02  0.1259910E+00
         -1   -1    0    0    0  501 -0.00000000000E+00  0.00000000000E+00  0.14274409450E+03  0.14274409450E+03  0.00000000000E+00 0.  1.
          1   -1    0    0  502    0  0.00000000000E+00 -0.00000000000E+00 -0.25446732548E+03  0.25446732548E+03  0.00000000000E+00 0. -1.
         23    2    1    2    0    0 -0.62744991670E+02  0.15555498264E+02  0.94058927260E+02  0.14876530206E+03  0.95420782812E+02 0.  0.
         23    2    1    2    0    0  0.18520108838E+02 -0.24678079376E+02 -0.13161907853E+03  0.16161741219E+03  0.88569769429E+02 0.  0.
        -11    1    3    3    0    0 -0.58700116234E+02 -0.23809214255E+02  0.88456661912E+02  0.10879872870E+03  0.00000000000E+00 0.  1.
         11    1    3    3    0    0 -0.40448754354E+01  0.39364712520E+02  0.56022653481E+01  0.39966573359E+02  0.00000000000E+00 0. -1.
        -13    1    4    4    0    0 -0.27115436068E+01  0.28701869637E+02 -0.77517253344E+02  0.82704742037E+02  0.00000000000E+00 0.  1.
         13    1    4    4    0    0  0.21231652445E+02 -0.53379949013E+02 -0.54101825188E+02  0.78912670154E+02  0.00000000000E+00 0. -1.
         21    1    1    2  502  501  0.44224882831E+02  0.91225811116E+01 -0.74163079706E+02  0.86828705732E+02  0.00000000000E+00 0. -1.
<scales pt_clust_5="13000.00000" pt_clust_6="13000.00000" pt_clust_7="13000.00000" pt_clust_8="13000.00000" pt_clust_9="45.15597"></scales>
<clustering>
<clus scale="   45.156">  2  9  1 -1</clus>
<clus scale="   88.570">  7  8 -1 -1</clus>
<clus scale="   95.421">  5  6 -1 -1</clus>
<clus scale="  106.047">  2  7  1 -1</clus>
<clus scale="   45.156">  2  5  1 -1</clus>
</clustering>
</event>
<event>
 9    1  0.1803370E-005  0.1165815E+03  0.7546771E-02  0.1255117E+00
         -2   -1    0    0    0  501 -0.00000000000E+00  0.00000000000E+00  0.70644064436E+02  0.70644064436E+02  0.00000000000E+00 0.  1.
          2   -1    0    0  502    0  0.00000000000E+00 -0.00000000000E+00 -0.43355944992E+03  0.43355944992E+03  0.00000000000E+00 0. -1.
         23    2    1    2    0    0  0.18276735674E+02 -0.14306725531E+02  0.66471598760E+01  0.10409896676E+03  0.10126049913E+03 0.  0.
         23    2    1    2    0    0  0.53192848727E+01 -0.13948098053E+02 -0.29250096410E+03  0.31470200344E+03  0.11514205461E+03 0.  0.
        -11    1    3    3    0    0 -0.31077705441E+02 -0.37430434026E+02  0.93009420681E+01  0.49531491904E+02  0.00000000000E+00 0. -1.
         11    1    3    3    0    0  0.49354441115E+02  0.23123708495E+02 -0.26537821921E+01  0.54567474857E+02  0.00000000000E+00 0.  1.
        -11    1    4    4    0    0  0.43248580756E+02  0.25140578219E+02 -0.20976496633E+03  0.21564746581E+03  0.00000000000E+00 0.  1.
         11    1    4    4    0    0 -0.37929295883E+02 -0.39088676272E+02 -0.82735997770E+02  0.99054537634E+02  0.00000000000E+00 0. -1.
         21    1    1    2  502  501 -0.23596020547E+02  0.28254823584E+02 -0.77061581263E+02  0.85402544155E+02  0.00000000000E+00 0. -1.
<scales pt_clust_5="13000.00000" pt_clust_6="13000.00000" pt_clust_7="13000.00000" pt_clust_8="13000.00000" pt_clust_9="36.81178"></scales>
<clustering>
<clus scale="   36.812">  2  9  1 -1</clus>
<clus scale="  101.260">  5  6 -1 -1</clus>
<clus scale="  102.894">  1  5  2 -1</clus>
<clus scale="  115.142">  7  8 -1 -1</clus>
<clus scale="   36.812">  2  5  1 -1</clus>
</clustering>
</event>
<event>
 9    1  0.1803370E-005  0.1792658E+03  0.7546771E-02  0.1168580E+00
          1   -1    0    0  502    0  0.00000000000E+00  0.00000000000E+00  0.79882246258E+03  0.79882246258E+03  0.00000000000E+00 0. -1.
         -1   -1    0    0    0  501 -0.00000000000E+00 -0.00000000000E+00 -0.54968253931E+02  0.54968253931E+02  0.00000000000E+00 0.  1.
         23    2    1    2    0    0 -0.87484859343E+02 -0.13451798072E+03  0.25484662093E+03  0.31499992783E+03  0.92355111282E+02 0.  0.
         23    2    1    2    0    0  0.10021278042E+03  0.10790125450E+03  0.29274487802E+03  0.34032290386E+03  0.91841347996E+02 0.  0.
        -11    1    4    4    0    0  0.11736964274E+03  0.90987424089E+02  0.26313798506E+03  0.30215218610E+03  0.00000000000E+00 0.  1.
         11    1    4    4    0    0 -0.17156862323E+02  0.16913830414E+02  0.29606892960E+02  0.38170717766E+02  0.00000000000E+00 0. -1.
        -11    1    3    3    0    0 -0.30928611575E+02 -0.92028210207E+02  0.20969450545E+03  0.23107911222E+03  0.00000000000E+00 0. -1.
         11    1    3    3    0    0 -0.56556247768E+02 -0.42489770511E+02  0.45152115479E+02  0.83920815605E+02  0.00000000000E+00 0.  1.
         21    1    1    2  502  501 -0.12727921075E+02  0.26616726215E+02  0.19626270969E+03  0.19846788482E+03  0.00000000000E+00 0.  1.
<scales pt_clust_5="13000.00000" pt_clust_6="13000.00000" pt_clust_7="13000.00000" pt_clust_8="13000.00000" pt_clust_9="29.50339"></scales>
<clustering>
<clus scale="   29.503">  1  9  2 -1</clus>
<clus scale="   91.841">  5  6 -1 -1</clus>
<clus scale="   92.355">  7  8 -1 -1</clus>
<clus scale="  179.002">  1  5  2 -1</clus>
<clus scale="   29.503">  1  5  2 -1</clus>
</clustering>
</event>
<event>
 9    1  0.1803370E-005  0.9663140E+02  0.7546771E-02  0.1288193E+00
          3   -1    0    0  502    0  0.00000000000E+00  0.00000000000E+00  0.78930798186E+02  0.78930798186E+02  0.00000000000E+00 0. -1.
         -3   -1    0    0    0  501 -0.00000000000E+00 -0.00000000000E+00 -0.18120213156E+03  0.18120213156E+03  0.00000000000E+00 0.  1.
         23    2    1    2    0    0  0.13783002670E+02  0.29253567702E+02 -0.10127968054E+03  0.13984021570E+03  0.90840353646E+02 0.  0.
         23    2    1    2    0    0  0.87202306052E+01 -0.25816605311E+02  0.67287999849E+01  0.96254960198E+02  0.92071717057E+02 0.  0.
        -11    1    4    4    0    0 -0.30152902707E+02  0.15893759839E+02  0.17366786203E+02  0.38254599809E+02  0.00000000000E+00 0. -1.
         11    1    4    4    0    0  0.38873133312E+02 -0.41710365151E+02 -0.10637986218E+02  0.58000360389E+02  0.00000000000E+00 0.  1.
        -11    1    3    3    0    0  0.38753324521E+02 -0.13643756726E+02 -0.70013186397E+02  0.81177697236E+02  0.00000000000E+00 0.  1.
         11    1    3    3    0    0 -0.24970321851E+02  0.42897324428E+02 -0.31266494142E+02  0.58662518462E+02  0.00000000000E+00 0. -1.
         21    1    1    2  502  501 -0.22503233275E+02 -0.34369623904E+01 -0.77204528164E+01  0.24037753847E+02  0.00000000000E+00 0. -1.
<scales pt_clust_5="13000.00000" pt_clust_6="13000.00000" pt_clust_7="13000.00000" pt_clust_8="13000.00000" pt_clust_9="22.76419"></scales>
<clustering>
<clus scale="   22.764">  1  9  2 -1</clus>
<clus scale="   90.840">  7  8 -1 -1</clus>
<clus scale="   92.072">  5  6 -1 -1</clus>
<clus scale="   95.459">  2  7  1 -1</clus>
<clus scale="   22.764">  1  5  2 -1</clus>
</clustering>
</event>
<event>
 9    1  0.1803370E-005  0.1132915E+03  0.7546771E-02  0.1261028E+00
         -1   -1    0    0    0  501 -0.00000000000E+00  0.00000000000E+00  0.15196080197E+03  0.15196080197E+03  0.00000000000E+00 0.  1.
          1   -1    0    0  502    0  0.00000000000E+00 -0.00000000000E+00 -0.30713719965E+03  0.30713719965E+03  0.00000000000E+00 0. -1.
         23    2    1    2    0    0  0.43489161088E+02 -0.42864909798E+01  0.11527728602E+03  0.16211500321E+03  0.10527459549E+03 0.  0.
         23    2    1    2    0    0 -0.21761901364E+02 -0.86400869200E+00 -0.24963919516E+03  0.26645687198E+03  0.90582614240E+02 0.  0.
        -13    1    3    3    0    0 -0.34133493181E+02  0.73362014057E+01  0.43284874983E+02  0.55610211383E+02  0.00000000000E+00 0. -1.
         13    1    3    3    0    0  0.77622654269E+02 -0.11622692386E+02  0.71992411038E+02  0.10650479182E+03  0.00000000000E+00 0.  1.
        -13    1    4    4    0    0 -0.35241730014E+02 -0.38418629081E+02 -0.12050927192E+03  0.13130291396E+03  0.00000000000E+00 0.  1.
         13    1    4    4    0    0  0.13479828651E+02  0.37554620389E+02 -0.12912992324E+03  0.13515395802E+03  0.00000000000E+00 0. -1.
         21    1    1    2  502  501 -0.21727259724E+02  0.51504996718E+01 -0.20814488537E+02  0.30526126434E+02  0.00000000000E+00 0. -1.
<scales pt_clust_5="13000.00000" pt_clust_6="13000.00000" pt_clust_7="13000.00000" pt_clust_8="13000.00000" pt_clust_9="22.32939"></scales>
<clustering>
<clus scale="   22.329">  2  9  1 -1</clus>
<clus scale="   90.583">  7  8 -1 -1</clus>
<clus scale="   99.787">  2  7  1 -1</clus>
<clus scale="  105.275">  5  6 -1 -1</clus>
<clus scale="   22.329">  2  5  1 -1</clus>
</clustering>
</event>
<event>
 9    1  0.1803370E-005  0.9311340E+02  0.7546771E-02  0.1296904E+00
          1   -1    0    0  502    0  0.00000000000E+00  0.00000000000E+00  0.68831781502E+02  0.68831781502E+02  0.00000000000E+00 0. -1.
         -1   -1    0    0    0  501 -0.00000000000E+00 -0.00000000000E+00 -0.47726114994E+03  0.47726114994E+03  0.00000000000E+00 0.  1.
         23    2    1    2    0    0 -0.47063533548E+02 -0.17972716644E+02 -0.44328540079E+02  0.11419729659E+03  0.92401343870E+02 0.  0.
         23    2    1    2    0    0 -0.22302173659E+02 -0.11365805069E+02 -0.44312971165E+02  0.10335853832E+03  0.89959877472E+02 0.  0.
        -11    1    4    4    0    0 -0.55245493781E+02 -0.19952653824E+02 -0.22360034424E+02  0.62850171974E+02  0.00000000000E+00 0.  1.
         11    1    4    4    0    0  0.32943320122E+02  0.85868487547E+01 -0.21952936741E+02  0.40508366343E+02  0.00000000000E+00 0. -1.
        -13    1    3    3    0    0 -0.70526638368E+02  0.29344676113E+01 -0.17132435749E+02  0.72637030324E+02  0.00000000000E+00 0.  1.
         13    1    3    3    0    0  0.23463104819E+02 -0.20907184256E+02 -0.27196104329E+02  0.41560266264E+02  0.00000000000E+00 0. -1.
         21    1    1    2  502  501  0.69365707207E+02  0.29338521713E+02 -0.31978785720E+03  0.32853709654E+03  0.00000000000E+00 0.  1.
<scales pt_clust_5="13000.00000" pt_clust_6="13000.00000" pt_clust_7="13000.00000" pt_clust_8="13000.00000" pt_clust_9="75.31501"></scales>
<clustering>
<clus scale="   75.315">  2  9  1 -1</clus>
<clus scale="   89.960">  5  6 -1 -1</clus>
<clus scale="   90.691">  1  5  2 -1</clus>
<clus scale="   92.401">  7  8 -1 -1</clus>
<clus scale="   90.691">  1  5  2 -1</clus>
</clustering>
</event>
<event>
 9    1  0.1803370E-005  0.2269463E+03  0.7546771E-02  0.1129354E+00
          2   -1    0    0  502    0  0.00000000000E+00  0.00000000000E+00  0.61471873519E+03  0.61471873519E+03  0.00000000000E+00 0. -1.
         -2   -1    0    0    0  501 -0.00000000000E+00 -0.00000000000E+00 -0.17846175086E+03  0.17846175086E+03  0.00000000000E+00 0.  1.
         23    2    1    2    0    0 -0.72626239962E+02  0.20407540083E+03 -0.38985067575E+02  0.23869269961E+03  0.92374397955E+02 0.  0.
         23    2    1    2    0    0  0.11103879410E+03 -0.14854366532E+03  0.26933295352E+03  0.33779017509E+03  0.84658893395E+02 0.  0.
        -11    1    4    4    0    0  0.86194286844E+02 -0.74112947899E+02  0.10098460871E+03  0.15205287017E+03  0.00000000000E+00 0.  1.
         11    1    4    4    0    0  0.24844507257E+02 -0.74430717425E+02  0.16834834482E+03  0.18573730492E+03  0.00000000000E+00 0. -1.
        -13    1    3    3    0    0 -0.51017309019E+02  0.56633555765E+02 -0.46845550589E+02  0.89468603812E+02  0.00000000000E+00 0. -1.
         13    1    3    3    0    0 -0.21608930943E+02  0.14744184507E+03  0.78604830146E+01  0.14922409580E+03  0.00000000000E+00 0.  1.
         21    1    1    2  502  501 -0.38412554139E+02 -0.55531735509E+02  0.20590909838E+03  0.21669761134E+03  0.00000000000E+00 0. -1.
<scales pt_clust_5="13000.00000" pt_clust_6="13000.00000" pt_clust_7="13000.00000" pt_clust_8="13000.00000" pt_clust_9="67.52257"></scales>
<clustering>
<clus scale="   67.523">  1  9  2 -1</clus>
<clus scale="   84.659">  5  6 -1 -1</clus>
<clus scale="   92.374">  7  8 -1 -1</clus>
<clus scale="  223.917">  1  5  2 -1</clus>
<clus scale="   67.523">  1  5  2 -1</clus>
</clustering>
</event>
<event>
 9    1  0.1803370E-005  0.9607492E+02  0.7546771E-02  0.1299984E+00
         -1   -1    0    0    0  501 -0.00000000000E+00  0.00000000000E+00  0.89646381086E+02  0.89646381086E+02  0.00000000000E+00 0.  1.
          1   -1    0    0  502    0  0.00000000000E+00 -0.00000000000E+00 -0.18963879244E+03  0.18963879244E+03  0.00000000000E+00 0. -1.
         23    2    1    2    0    0 -0.14943518111E+02 -0.10839574404E+02  0.59297097301E+01  0.73040666692E+02  0.70419971787E+02 0.  0.
         23    2    1    2    0    0  0.59299652033E+02  0.29685451672E+02 -0.29083326651E+02  0.11554261029E+03  0.90036548866E+02 0.  0.
        -13    1    3    3    0    0 -0.64864571343E+01 -0.38357479608E+02  0.16657901476E+02  0.42318507176E+02  0.00000000000E+00 0. -1.
         13    1    3    3    0    0 -0.84570609766E+01  0.27517905204E+02 -0.10728191746E+02  0.30722159516E+02  0.00000000000E+00 0.  1.
        -13    1    4    4    0    0  0.54010218712E+02  0.50415496721E+02 -0.47060127872E+02  0.87598411346E+02  0.00000000000E+00 0. -1.
         13    1    4    4    0    0  0.52894333215E+01 -0.20730045049E+02  0.17976801221E+02  0.27944198946E+02  0.00000000000E+00 0.  1.
         21    1    1    2  502  501 -0.44356133923E+02 -0.18845877269E+02 -0.76838794431E+02  0.90701896541E+02  0.00000000000E+00 0.  1.
<scales pt_clust_5="13000.00000" pt_clust_6="13000.00000" pt_clust_7="13000.00000" pt_clust_8="13000.00000" pt_clust_9="48.19371"></scales>
<clustering>
<clus scale="   48.194">  2  9  1 -1</clus>
<clus scale="   70.420">  5  6 -1 -1</clus>
<clus scale="   77.992">  1  5  2 -1</clus>
<clus scale="   90.037">  7  8 -1 -1</clus>
<clus scale="   48.194">  2  5  1 -1</clus>
</clustering>
</event>
<event>
 9    1  0.1803370E-005  0.1116592E+03  0.7546771E-02  0.1258351E+00
         -1   -1    0    0    0  501 -0.00000000000E+00  0.00000000000E+00  0.85106906487E+03  0.85106906487E+03  0.00000000000E+00 0.  1.
          1   -1    0    0  502    0  0.00000000000E+00 -0.00000000000E+00 -0.22891684759E+02  0.22891684759E+02  0.00000000000E+00 0. -1.
         23    2    1    2    0    0  0.39984712664E+02 -0.58412710251E+02  0.53195274479E+03  0.54453036126E+03  0.92351338278E+02 0.  0.
         23    2    1    2    0    0 -0.16126563508E+02  0.49717405348E+02  0.28127464117E+03  0.29996308558E+03  0.90169520888E+02 0.  0.
        -11    1    3    3    0    0 -0.26618494887E+02 -0.13961059548E+02  0.78421205124E+02  0.83984170335E+02  0.00000000000E+00 0. -1.
         11    1    3    3    0    0  0.66603207551E+02 -0.44451650703E+02  0.45353153967E+03  0.46054619093E+03  0.00000000000E+00 0.  1.
        -11    1    4    4    0    0 -0.11949775906E+02 -0.22768993915E+02  0.12537902232E+03  0.12798876304E+03  0.00000000000E+00 0.  1.
         11    1    4    4    0    0 -0.41767876012E+01  0.72486399263E+02  0.15589561886E+03  0.17197432254E+03  0.00000000000E+00 0. -1.
         21    1    1    2  502  501 -0.23858149157E+02  0.86953049028E+01  0.14949994147E+02  0.29467302787E+02  0.00000000000E+00 0. -1.
<scales pt_clust_5="13000.00000" pt_clust_6="13000.00000" pt_clust_7="13000.00000" pt_clust_8="13000.00000" pt_clust_9="25.39330"></scales>
<clustering>
<clus scale="   25.393">  2  9  1 -1</clus>
<clus scale="   90.170">  7  8 -1 -1</clus>
<clus scale="   92.351">  5  6 -1 -1</clus>
<clus scale="  109.862">  2  7  1 -1</clus>
<clus scale="   25.393">  2  5  1 -1</clus>
</clustering>
</event>
<event>
 9    1  0.1803370E-005  0.9193424E+02  0.7546771E-02  0.1298243E+00
          3   -1    0    0  502    0  0.00000000000E+00  0.00000000000E+00  0.22730141114E+03  0.22730141114E+03  0.00000000000E+00 0. -1.
         -3   -1    0    0    0  501 -0.00000000000E+00 -0.00000000000E+00 -0.29089937730E+03  0.29089937730E+03  0.00000000000E+00 0.  1.
         23    2    1    2    0    0  0.23142985904E+02  0.22397972095E+01 -0.16810025390E+03  0.19265160523E+03  0.91193920573E+02 0.  0.
         23    2    1    2    0    0  0.34473426410E+02 -0.28382245738E+02 -0.80793133015E+02  0.12974961342E+03  0.91178192775E+02 0.  0.
        -11    1    4    4    0    0  0.55264851131E+02  0.11447271103E+02 -0.48562113445E+02  0.74454836301E+02  0.00000000000E+00 0.  1.
         11    1    4    4    0    0 -0.20791424722E+02 -0.39829516841E+02 -0.32231019569E+02  0.55294777115E+02  0.00000000000E+00 0. -1.
        -13    1    3    3    0    0  0.39253818258E+02 -0.30809516642E+02 -0.13203062673E+03  0.14114593497E+03  0.00000000000E+00 0.  1.
         13    1    3    3    0    0 -0.16110832354E+02  0.33049313852E+02 -0.36069627171E+02  0.51505670265E+02  0.00000000000E+00 0. -1.
         21    1    1    2  502  501 -0.57616412314E+02  0.26142448528E+02  0.18529542075E+03  0.19579956980E+03  0.00000000000E+00 0. -1.
<scales pt_clust_5="13000.00000" pt_clust_6="13000.00000" pt_clust_7="13000.00000" pt_clust_8="13000.00000" pt_clust_9="63.26989"></scales>
<clustering>
<clus scale="   63.270">  1  9  2 -1</clus>
<clus scale="   91.178">  5  6 -1 -1</clus>
<clus scale="   91.194">  7  8 -1 -1</clus>
<clus scale="   91.919">  1  5  2 -1</clus>
<clus scale="   63.270">  1  5  2 -1</clus>
</clustering>
</event>
<event>
 9    1  0.1803370E-005  0.1024758E+03  0.7546771E-02  0.1275883E+00
         -1   -1    0    0    0  501 -0.00000000000E+00  0.00000000000E+00  0.58851903261E+02  0.58851903261E+02  0.00000000000E+00 0.  1.
          1   -1    0    0  502    0  0.00000000000E+00 -0.00000000000E+00 -0.37539519563E+03  0.37539519563E+03  0.00000000000E+00 0. -1.
         23    2    1    2    0    0 -0.32741906381E+02 -0.15542530463E+02 -0.49488936642E+02  0.11021084562E+03  0.91562399247E+02 0.  0.
         23    2    1    2    0    0  0.34493534604E+02 -0.52487402525E+02 -0.20199262445E+03  0.22988653813E+03  0.90011492203E+02 0.  0.
        -11    1    4    4    0    0  0.14716622568E+02 -0.76857260611E+02 -0.14892338341E+03  0.16823136335E+03  0.00000000000E+00 0. -1.
         11    1    4    4    0    0  0.19776912036E+02  0.24369858085E+02 -0.53069241034E+02  0.61655174776E+02  0.00000000000E+00 0.  1.
        -13    1    3    3    0    0 -0.16519726595E+02  0.32350229591E+02  0.40722756839E+01  0.36551636771E+02  0.00000000000E+00 0.  1.
         13    1    3    3    0    0 -0.16222179785E+02 -0.47892760054E+02 -0.53561212326E+02  0.73659208850E+02  0.00000000000E+00 0. -1.
         21    1    1    2  502  501 -0.17516282236E+01  0.68029932989E+02 -0.65061731280E+02  0.94149715140E+02  0.00000000000E+00 0.  1.
<scales pt_clust_5="13000.00000" pt_clust_6="13000.00000" pt_clust_7="13000.00000" pt_clust_8="13000.00000" pt_clust_9="68.05248"></scales>
<clustering>
<clus scale="   68.052">  1  9  2 -1</clus>
<clus scale="   90.011">  5  6 -1 -1</clus>
<clus scale="   91.562">  7  8 -1 -1</clus>
<clus scale="  101.093">  2  5  1 -1</clus>
<clus scale="  101.093">  2  5  1 -1</clus>
</clustering>
</event>
<event>
 9    1  0.1803370E-005  0.1351160E+03  0.7546771E-02  0.1220225E+00
         -2   -1    0    0    0  501 -0.00000000000E+00  0.00000000000E+00  0.41371348089E+03  0.41371348089E+03  0.00000000000E+00 0.  1.
          2   -1    0    0  502    0  0.00000000000E+00 -0.00000000000E+00 -0.90209427739E+02  0.90209427739E+02  0.00000000000E+00 0. -1.
         23    2    1    2    0    0 -0.75236985750E+02 -0.53989030996E+02  0.18274139080E+03  0.22428978048E+03  0.91302082247E+02 0.  0.
         23    2    1    2    0    0  0.10637174766E+03  0.29182996877E+02  0.17550875095E+03  0.22679371672E+03  0.92008001162E+02 0.  0.
        -11    1    3    3    0    0 -0.43894815430E+02 -0.86366859472E+01  0.15736610655E+03  0.16360146288E+03  0.00000000000E+00 0.  1.
         11    1    3    3    0    0 -0.31342170320E+02 -0.45352345049E+02  0.25375284245E+02  0.60688317593E+02  0.00000000000E+00 0. -1.
        -13    1    4    4    0    0  0.97669328184E+02  0.56106723540E+02  0.12057984275E+03  0.16500533498E+03  0.00000000000E+00 0. -1.
         13    1    4    4    0    0  0.87024194727E+01 -0.26923726663E+02  0.54928908200E+02  0.61788381741E+02  0.00000000000E+00 0.  1.
         21    1    1    2  502  501 -0.31134761907E+02  0.24806034119E+02 -0.34746088596E+02  0.52839411431E+02  0.00000000000E+00 0.  1.
<scales pt_clust_5="13000.00000" pt_clust_6="13000.00000" pt_clust_7="13000.00000" pt_clust_8="13000.00000" pt_clust_9="39.80845"></scales>
<clustering>
<clus scale="   39.808">  2  9  1 -1</clus>
<clus scale="   91.302">  5  6 -1 -1</clus>
<clus scale="   92.008">  7  8 -1 -1</clus>
<clus scale="  134.636">  1  5  2 -1</clus>
<clus scale="   39.808">  2  5  1 -1</clus>
</clustering>
</event>
<event>
 9    1  0.1803370E-005  0.1632674E+03  0.7546771E-02  0.1185473E+00
          2   -1    0    0  502    0  0.00000000000E+00  0.00000000000E+00  0.73317193093E+03  0.73317193093E+03  0.00000000000E+00 0. -1.
         -2   -1    0    0    0  501 -0.00000000000E+00 -0.00000000000E+00 -0.75712420228E+02  0.75712420228E+02  0.00000000000E+00 0.  1.
         23    2    1    2    0    0  0.69373954782E+02  0.12245670398E+03  0.49643862711E+02  0.17600889747E+03  0.93307175132E+02 0.  0.
         23    2    1    2    0    0 -0.48652140714E+02 -0.90924704275E+02  0.50590804436E+03  0.52420705781E+03  0.90640815700E+02 0.  0.
        -11    1    3    3    0    0  0.26419246009E+02  0.61845128012E+02  0.71907437675E+02  0.98455451913E+02  0.00000000000E+00 0.  1.
         11    1    3    3    0    0  0.42954708773E+02  0.60611575973E+02 -0.22263574963E+02  0.77553445557E+02  0.00000000000E+00 0. -1.
        -13    1    4    4    0    0 -0.29507006665E+02  0.40348510449E+01  0.50648452361E+02  0.58755503503E+02  0.00000000000E+00 0.  1.
         13    1    4    4    0    0 -0.19145134049E+02 -0.94959555320E+02  0.45525959200E+03  0.46545155431E+03  0.00000000000E+00 0. -1.
         21    1    1    2  502  501 -0.20721814068E+02 -0.31531999709E+02  0.10190760363E+03  0.10866839588E+03  0.00000000000E+00 0. -1.
<scales pt_clust_5="13000.00000" pt_clust_6="13000.00000" pt_clust_7="13000.00000" pt_clust_8="13000.00000" pt_clust_9="37.73143"></scales>
<clustering>
<clus scale="   37.731">  1  9  2 -1</clus>
<clus scale="   90.641">  7  8 -1 -1</clus>
<clus scale="   93.307">  5  6 -1 -1</clus>
<clus scale="  161.758">  1  7  2 -1</clus>
<clus scale="   37.731">  1  5  2 -1</clus>
</clustering>
</event>
<event>
 9    1  0.1803370E-005  0.9136460E+02  0.7546771E-02  0.1299895E+00
          2   -1    0    0  502    0  0.00000000000E+00  0.00000000000E+00  0.48099528970E+03  0.48099528970E+03  0.00000000000E+00 0. -1.
         -2   -1    0    0    0  501 -0.00000000000E+00 -0.00000000000E+00 -0.92730090976E+02  0.92730090976E+02  0.00000000000E+00 0.  1.
         23    2    1    2    0    0  0.85370277015E+01 -0.91106536918E+01 -0.51286576338E+02  0.10471974181E+03  0.90443499264E+02 0.  0.
         23    2    1    2    0    0  0.44463067593E+02 -0.16897678582E+01  0.20967960001E+03  0.23285552545E+03  0.90974399556E+02 0.  0.
        -11    1    4    4    0    0  0.59561079413E+01  0.41292089010E+02  0.66743462419E+02  0.78709603050E+02  0.00000000000E+00 0.  1.
         11    1    4    4    0    0  0.38506959652E+02 -0.42981856868E+02  0.14293613759E+03  0.15414592240E+03  0.00000000000E+00 0. -1.
        -13    1    3    3    0    0 -0.33142681036E+02  0.21549553771E+02 -0.20963230936E+02  0.44746816929E+02  0.00000000000E+00 0.  1.
         13    1    3    3    0    0  0.41679708738E+02 -0.30660207463E+02 -0.30323345403E+02  0.59972924879E+02  0.00000000000E+00 0. -1.
         21    1    1    2  502  501 -0.53000095295E+02  0.10800421550E+02  0.22987217505E+03  0.23615011342E+03  0.00000000000E+00 0. -1.
<scales pt_clust_5="13000.00000" pt_clust_6="13000.00000" pt_clust_7="13000.00000" pt_clust_8="13000.00000" pt_clust_9="54.08936"></scales>
<clustering>
<clus scale="   54.089">  1  9  2 -1</clus>
<clus scale="   90.443">  7  8 -1 -1</clus>
<clus scale="   90.836">  2  7  1 -1</clus>
<clus scale="   90.974">  5  6 -1 -1</clus>
<clus scale="   54.089">  1  5  2 -1</clus>
</clustering>
</event>
<event>
 9    1  0.1803370E-005  0.9127407E+02  0.7546771E-02  0.1299849E+00
          1   -1    0    0  502    0  0.00000000000E+00  0.00000000000E+00  0.42199016239E+02  0.42199016239E+02  0.00000000000E+00 0. -1.
         -1   -1    0    0    0  501 -0.00000000000E+00 -0.00000000000E+00 -0.28361153074E+03  0.28361153074E+03  0.00000000000E+00 0.  1.
         23    2    1    2    0    0 -0.87456600852E+01  0.13906547467E+02 -0.13141642130E+03  0.16073465331E+03  0.91079494710E+02 0.  0.
         23    2    1    2    0    0  0.20736762055E+01  0.15140816614E+02 -0.73525066243E+02  0.11797599413E+03  0.90988215518E+02 0.  0.
        -13    1    4    4    0    0 -0.33087860873E+02 -0.16685838773E+02 -0.56536087647E+02  0.67598468616E+02  0.00000000000E+00 0.  1.
         13    1    4    4    0    0  0.35161537078E+02  0.31826655387E+02 -0.16988978596E+02  0.50377525510E+02  0.00000000000E+00 0. -1.
        -13    1    3    3    0    0 -0.45296145283E+02  0.25998049624E+02 -0.59562415169E+02  0.79216921567E+02  0.00000000000E+00 0.  1.
         13    1    3    3    0    0  0.36550485198E+02 -0.12091502157E+02 -0.71854006128E+02  0.81517731747E+02  0.00000000000E+00 0. -1.
         21    1    1    2  502  501  0.66719838797E+01 -0.29047364081E+02 -0.36471026959E+02  0.47099899537E+02  0.00000000000E+00 0. -1.
<scales pt_clust_5="13000.00000" pt_clust_6="13000.00000" pt_clust_7="13000.00000" pt_clust_8="13000.00000" pt_clust_9="29.80377"></scales>
<clustering>
<clus scale="   29.804">  2  9  1 -1</clus>
<clus scale="   90.988">  5  6 -1 -1</clus>
<clus scale="   91.079">  7  8 -1 -1</clus>
<clus scale="   91.183">  1  5  2 -1</clus>
<clus scale="   91.183">  1  5  2 -1</clus>
</clustering>
</event>
<event>
 9    1  0.1803370E-005  0.1842461E+03  0.7546771E-02  0.1165934E+00
          1   -1    0    0  502    0  0.00000000000E+00  0.00000000000E+00  0.51785917025E+03  0.51785917025E+03  0.00000000000E+00 0. -1.
         -1   -1    0    0    0  501 -0.00000000000E+00 -0.00000000000E+00 -0.78644057551E+02  0.78644057551E+02  0.00000000000E+00 0.  1.
         23    2    1    2    0    0 -0.13003031620E+03 -0.78450707708E+02  0.13277307124E+03  0.22807942724E+03  0.10643843296E+03 0.  0.
         23    2    1    2    0    0  0.14017858246E+03  0.52554978816E+02  0.24382164061E+03  0.29990452820E+03  0.89898124702E+02 0.  0.
        -13    1    3    3    0    0 -0.92475032187E+02 -0.36915152492E+01  0.33904213884E+02  0.98563454596E+02  0.00000000000E+00 0. -1.
         13    1    3    3    0    0 -0.37555284016E+02 -0.74759192459E+02  0.98868857353E+02  0.12951597264E+03  0.00000000000E+00 0.  1.
        -13    1    4    4    0    0  0.43258581258E+02 -0.13274647392E+02  0.25013557443E+02  0.51702989970E+02  0.00000000000E+00 0.  1.
         13    1    4    4    0    0  0.96920001201E+02  0.65829626208E+02  0.21880808317E+03  0.24820153823E+03  0.00000000000E+00 0. -1.
         21    1    1    2  502  501 -0.10148266255E+02  0.25895728893E+02  0.62620400848E+02  0.68519272364E+02  0.00000000000E+00 0.  1.
<scales pt_clust_5="13000.00000" pt_clust_6="13000.00000" pt_clust_7="13000.00000" pt_clust_8="13000.00000" pt_clust_9="27.81324"></scales>
<clustering>
<clus scale="   27.813">  1  9  2 -1</clus>
<clus scale="   89.898">  7  8 -1 -1</clus>
<clus scale="  106.438">  5  6 -1 -1</clus>
<clus scale="  175.212">  1  7  2 -1</clus>
<clus scale="   27.813">  1  5  2 -1</clus>
</clustering>
</event>
<event>
 9    1  0.1803370E-005  0.1078539E+03  0.7546771E-02  0.1267714E+00
         -3   -1    0    0    0  501 -0.00000000000E+00  0.00000000000E+00  0.14816618540E+03  0.14816618540E+03  0.00000000000E+00 0.  1.
          3   -1    0    0  502    0  0.00000000000E+00 -0.00000000000E+00 -0.10578174378E+03  0.10578174378E+03  0.00000000000E+00 0. -1.
         23    2    1    2    0    0  0.35119189832E+02  0.35652327111E+02  0.46448715638E+02  0.11322302383E+03  0.90319012492E+02 0.  0.
         23    2    1    2    0    0 -0.55698126933E+02 -0.45341785056E+02  0.15685772133E+02  0.11060111790E+03  0.82634163738E+02 0.  0.
        -11    1    4    4    0    0 -0.35373846450E+02 -0.54681992654E+02 -0.20311793496E+02  0.68220219058E+02  0.00000000000E+00 0. -1.
         11    1    4    4    0    0 -0.20324280483E+02  0.93402075980E+01  0.35997565630E+02  0.42380898839E+02  0.00000000000E+00 0.  1.
        -13    1    3    3    0    0 -0.34207047573E+01  0.58193414498E+02  0.30665279172E+02  0.65867549359E+02  0.00000000000E+00 0.  1.
         13    1    3    3    0    0  0.38539894589E+02 -0.22541087386E+02  0.15783436467E+02  0.47355474469E+02  0.00000000000E+00 0. -1.
         21    1    1    2  502  501  0.20578937101E+02  0.96894579452E+01 -0.19750046157E+02  0.30123787456E+02  0.00000000000E+00 0. -1.
<scales pt_clust_5="13000.00000" pt_clust_6="13000.00000" pt_clust_7="13000.00000" pt_clust_8="13000.00000" pt_clust_9="22.74595"></scales>
<clustering>
<clus scale="   22.746">  2  9  1 -1</clus>
<clus scale="   82.634">  5  6 -1 -1</clus>
<clus scale="   90.319">  7  8 -1 -1</clus>
<clus scale="  101.505">  2  5  1 -1</clus>
<clus scale="   22.746">  2  5  1 -1</clus>
</clustering>
</event>
<event>
 9    1  0.1803370E-005  0.1137600E+03  0.7546771E-02  0.1254587E+00
         -2   -1    0    0    0  501 -0.00000000000E+00  0.00000000000E+00  0.71061010882E+02  0.71061010882E+02  0.00000000000E+00 0.  1.
          2   -1    0    0  502    0  0.00000000000E+00 -0.00000000000E+00 -0.44099128238E+03  0.44099128238E+03  0.00000000000E+00 0. -1.
         23    2    1    2    0    0 -0.15159296442E+02  0.53875625432E+02 -0.18192993285E+02  0.11034724892E+03  0.93344218111E+02 0.  0.
         23    2    1    2    0    0  0.21475323283E+02 -0.86711775066E+02 -0.14867668849E+03  0.19590973824E+03  0.91080988083E+02 0.  0.
        -13    1    4    4    0    0  0.33714278433E+02  0.52329469871E+01 -0.31237291671E+02  0.46258023038E+02  0.00000000000E+00 0.  1.
         13    1    4    4    0    0 -0.12238955150E+02 -0.91944722053E+02 -0.11743939682E+03  0.14965171520E+03  0.00000000000E+00 0. -1.
        -13    1    3    3    0    0  0.58834000102E+01  0.26534879192E+02  0.36605453410E+02  0.45592471185E+02  0.00000000000E+00 0.  1.
         13    1    3    3    0    0 -0.21042696452E+02  0.27340746240E+02 -0.54798446695E+02  0.64754777732E+02  0.00000000000E+00 0. -1.
         21    1    1    2  502  501 -0.63160268413E+01  0.32836149635E+02 -0.20306058972E+03  0.20579530611E+03  0.00000000000E+00 0. -1.
<scales pt_clust_5="13000.00000" pt_clust_6="13000.00000" pt_clust_7="13000.00000" pt_clust_8="13000.00000" pt_clust_9="33.43808"></scales>
<clustering>
<clus scale="   33.438">  2  9  1 -1</clus>
<clus scale="   91.081">  5  6 -1 -1</clus>
<clus scale="   93.344">  7  8 -1 -1</clus>
<clus scale="  111.910">  2  5  1 -1</clus>
<clus scale="   33.438">  2  5  1 -1</clus>
</clustering>
</event>
<event>
 9    1  0.1803370E-005  0.1023168E+03  0.7546771E-02  0.1275540E+00
          1   -1    0    0  502    0  0.00000000000E+00  0.00000000000E+00  0.50697999137E+03  0.50697999137E+03  0.00000000000E+00 0. -1.
         -1   -1    0    0    0  501 -0.00000000000E+00 -0.00000000000E+00 -0.34598114024E+02  0.34598114024E+02  0.00000000000E+00 0.  1.
         23    2    1    2    0    0 -0.26119268960E+02 -0.24753381000E+02  0.12693494810E+03  0.16120262226E+03  0.92622126354E+02 0.  0.
         23    2    1    2    0    0  0.87916415709E+01  0.58503107539E+02  0.18255523923E+03  0.21312419499E+03  0.92712461763E+02 0.  0.
        -13    1    3    3    0    0  0.20705149164E+02 -0.93150758909E+01  0.10467094064E+03  0.10710499361E+03  0.00000000000E+00 0. -1.
         13    1    3    3    0    0 -0.46824418123E+02 -0.15438305109E+02  0.22264007462E+02  0.54097628649E+02  0.00000000000E+00 0.  1.
        -13    1    4    4    0    0 -0.10973355293E+00  0.81704155536E+02  0.11440576370E+03  0.14058541831E+03  0.00000000000E+00 0.  1.
         13    1    4    4    0    0  0.89013751238E+01 -0.23201047997E+02  0.68149475528E+02  0.72538776679E+02  0.00000000000E+00 0. -1.
         21    1    1    2  502  501  0.17327627389E+02 -0.33749726539E+02  0.16289169002E+03  0.16725128816E+03  0.00000000000E+00 0. -1.
<scales pt_clust_5="13000.00000" pt_clust_6="13000.00000" pt_clust_7="13000.00000" pt_clust_8="13000.00000" pt_clust_9="37.93799"></scales>
<clustering>
<clus scale="   37.938">  1  9  2 -1</clus>
<clus scale="   92.622">  5  6 -1 -1</clus>
<clus scale="   92.712">  7  8 -1 -1</clus>
<clus scale="  102.235">  2  5  1 -1</clus>
<clus scale="   37.938">  1  5  2 -1</clus>
</clustering>
</event>
<event>
 9    1  0.1803370E-005  0.1055192E+03  0.7546771E-02  0.1269166E+00
          2   -1    0    0  502    0  0.00000000000E+00  0.00000000000E+00  0.17728283808E+03  0.17728283808E+03  0.00000000000E+00 0. -1.
         -2   -1    0    0    0  501 -0.00000000000E+00 -0.00000000000E+00 -0.99171486789E+02  0.99171486789E+02  0.00000000000E+00 0.  1.
         23    2    1    2    0    0 -0.37142039174E+02 -0.49219794632E+01  0.25777359083E+02  0.10154598356E+03  0.90792937939E+02 0.  0.
         23    2    1    2    0    0  0.61307639130E+02  0.38386350242E+02  0.10982370588E+02  0.11648063433E+03  0.90636566623E+02 0.  0.
        -13    1    4    4    0    0  0.21862503036E+02  0.56466121183E+02 -0.19317257949E+02  0.63557441225E+02  0.00000000000E+00 0.  1.
         13    1    4    4    0    0  0.39445136094E+02 -0.18079770941E+02  0.30299628537E+02  0.52923193103E+02  0.00000000000E+00 0. -1.
        -13    1    3    3    0    0 -0.35669088940E+02  0.36264242129E+02  0.31661959022E+02  0.59915430501E+02  0.00000000000E+00 0.  1.
         13    1    3    3    0    0 -0.14729502338E+01 -0.41186221592E+02 -0.58845999391E+01  0.41630553057E+02  0.00000000000E+00 0. -1.
         21    1    1    2  502  501 -0.24165599956E+02 -0.33464370779E+02  0.41351621625E+02  0.58427706988E+02  0.00000000000E+00 0. -1.
<scales pt_clust_5="13000.00000" pt_clust_6="13000.00000" pt_clust_7="13000.00000" pt_clust_8="13000.00000" pt_clust_9="41.27760"></scales>
<clustering>
<clus scale="   41.278">  1  9  2 -1</clus>
<clus scale="   90.637">  5  6 -1 -1</clus>
<clus scale="   90.793">  7  8 -1 -1</clus>
<clus scale="  105.385">  1  5  2 -1</clus>
<clus scale="   41.278">  1  5  2 -1</clus>
</clustering>
</event>
<event>
 9    1  0.1803370E-005  0.1348878E+03  0.7546771E-02  0.1224876E+00
         -3   -1    0    0    0  501 -0.00000000000E+00  0.00000000000E+00  0.13681020353E+03  0.13681020353E+03  0.00000000000E+00 0.  1.
          3   -1    0    0  502    0  0.00000000000E+00 -0.00000000000E+00 -0.21310920743E+03  0.21310920743E+03  0.00000000000E+00 0. -1.
         23    2    1    2    0    0 -0.70699528911E+02  0.32274580620E+02  0.61906122952E+02  0.13592304679E+03  0.92750388937E+02 0.  0.
         23    2    1    2    0    0  0.89630427616E+02 -0.24841099507E+02 -0.12515270008E+03  0.18983024300E+03  0.10826647238E+03 0.  0.
        -11    1    4    4    0    0  0.22273426401E+02 -0.60327799924E+02 -0.40598853929E+02  0.76051403062E+02  0.00000000000E+00 0. -1.
         11    1    4    4    0    0  0.67357001214E+02  0.35486700417E+02 -0.84553846154E+02  0.11377883994E+03  0.00000000000E+00 0.  1.
        -13    1    3    3    0    0 -0.49462677505E+02  0.65113818716E+02  0.38917794048E+02  0.90559154961E+02  0.00000000000E+00 0.  1.
         13    1    3    3    0    0 -0.21236851406E+02 -0.32839238095E+02  0.22988328903E+02  0.45363891831E+02  0.00000000000E+00 0. -1.
         21    1    1    2  502  501 -0.18930898705E+02 -0.74334811133E+01 -0.13052426767E+02  0.24166121157E+02  0.00000000000E+00 0. -1.
<scales pt_clust_5="13000.00000" pt_clust_6="13000.00000" pt_clust_7="13000.00000" pt_clust_8="13000.00000" pt_clust_9="20.33803"></scales>
<clustering>
<clus scale="   20.338">  2  9  1 -1</clus>
<clus scale="   92.750">  7  8 -1 -1</clus>
<clus scale="  108.266">  5  6 -1 -1</clus>
<clus scale="  122.783">  1  7  2 -1</clus>
<clus scale="   20.338">  2  5  1 -1</clus>
</clustering>
</event>
<event>
 9    1  0.1803370E-005  0.1373270E+03  0.7546771E-02  0.1220335E+00
         -1   -1    0    0    0  501 -0.00000000000E+00  0.00000000000E+00  0.34620523070E+03  0.34620523070E+03  0.00000000000E+00 0.  1.
          1   -1    0    0  502    0  0.00000000000E+00 -0.00000000000E+00 -0.15600592142E+03  0.15600592142E+03  0.00000000000E+00 0. -1.
         23    2    1    2    0    0  0.70102308454E+02 -0.93406389486E+02  0.24939405395E+03  0.29232726770E+03  0.98075226472E+02 0.  0.
         23    2    1    2    0    0 -0.41384370333E+02  0.65575963094E+02 -0.87798627102E+02  0.16071646947E+03  0.11003777349E+03 0.  0.
        -11    1    4    4    0    0 -0.14915783004E+00 -0.24876423967E+02 -0.47166661071E+02  0.53324971955E+02  0.00000000000E+00 0.  1.
         11    1    4    4    0    0 -0.41235212503E+02  0.90452387061E+02 -0.40631966031E+02  0.10739149752E+03  0.00000000000E+00 0. -1.
        -13    1    3    3    0    0  0.71912852966E+02 -0.21864971580E+02  0.87689393282E+02  0.11549443752E+03  0.00000000000E+00 0. -1.
         13    1    3    3    0    0 -0.18105445126E+01 -0.71541417906E+02  0.16170466067E+03  0.17683283018E+03  0.00000000000E+00 0.  1.
         21    1    1    2  502  501 -0.28717938120E+02  0.27830426392E+02  0.28603882432E+02  0.49167414954E+02  0.00000000000E+00 0. -1.
<scales pt_clust_5="13000.00000" pt_clust_6="13000.00000" pt_clust_7="13000.00000" pt_clust_8="13000.00000" pt_clust_9="39.99066"></scales>
<clustering>
<clus scale="   39.991">  1  9  2 -1</clus>
<clus scale="   98.075">  7  8 -1 -1</clus>
<clus scale="  110.038">  5  6 -1 -1</clus>
<clus scale="  127.942">  1  7  2 -1</clus>
<clus scale="  137.327">  2  5  1 -1</clus>
</clustering>
</event>
<event>
 9    1  0.1803370E-005  0.1125718E+03  0.7546771E-02  0.1258052E+00
          2   -1    0    0  502    0  0.00000000000E+00  0.00000000000E+00  0.15607783464E+03  0.15607783464E+03  0.00000000000E+00 0. -1.
         -2   -1    0    0    0  501 -0.00000000000E+00 -0.00000000000E+00 -0.14905011943E+03  0.14905011943E+03  0.00000000000E+00 0.  1.
         23    2    1    2    0    0 -0.63443001562E+02 -0.12633359732E+02  0.24224780257E+01  0.11150156842E+03  0.90786095492E+02 0.  0.
         23    2    1    2    0    0  0.18766021308E+02  0.70154841531E+02  0.15692424299E+00  0.12065693367E+03  0.96354583039E+02 0.  0.
        -11    1    3    3    0    0 -0.37515411054E+02  0.29703155985E+02 -0.25833414446E+02  0.54378753608E+02  0.00000000000E+00 0. -1.
         11    1    3    3    0    0 -0.25927590508E+02 -0.42336515716E+02  0.28255892471E+02  0.57122814811E+02  0.00000000000E+00 0.  1.
        -11    1    4    4    0    0 -0.22269094619E+02 -0.13959807965E+02  0.57321060567E+01  0.26900666412E+02  0.00000000000E+00 0.  1.
         11    1    4    4    0    0  0.41035115926E+02  0.84114649495E+02 -0.55751818137E+01  0.93756267263E+02  0.00000000000E+00 0. -1.
         21    1    1    2  502  501  0.44676980254E+02 -0.57521481799E+02  0.44483129452E+01  0.72969451972E+02  0.00000000000E+00 0.  1.
<scales pt_clust_5="13000.00000" pt_clust_6="13000.00000" pt_clust_7="13000.00000" pt_clust_8="13000.00000" pt_clust_9="72.83374"></scales>
<clustering>
<clus scale="   72.834">  1  9  2 -1</clus>
<clus scale="   90.786">  5  6 -1 -1</clus>
<clus scale="   96.355">  7  8 -1 -1</clus>
<clus scale="  107.844">  2  5  1 -1</clus>
<clus scale="   72.834">  1  5  2 -1</clus>
</clustering>
</event>
<event>
 9    1  0.1803370E-005  0.9888558E+02  0.7546771E-02  0.1287189E+00
          1   -1    0    0  502    0  0.00000000000E+00  0.00000000000E+00  0.21797419565E+03  0.21797419565E+03  0.00000000000E+00 0. -1.
         -1   -1    0    0    0  501 -0.00000000000E+00 -0.00000000000E+00 -0.18506386700E+03  0.18506386700E+03  0.00000000000E+00 0.  1.
         23    2    1    2    0    0  0.36688347032E+01  0.24205328383E+00 -0.15081181012E+03  0.17605463429E+03  0.90760747281E+02 0.  0.
         23    2    1    2    0    0  0.18841590114E+02  0.23820377443E+01  0.10672132499E+03  0.14671680765E+03  0.98872143791E+02 0.  0.
        -11    1    3    3    0    0  0.13641708345E+02 -0.25406136026E+02 -0.70547125875E+01  0.29687319246E+02  0.00000000000E+00 0. -1.
         11    1    3    3    0    0 -0.99728736413E+01  0.25648189310E+02 -0.14375709753E+03  0.14636731504E+03  0.00000000000E+00 0.  1.
        -11    1    4    4    0    0  0.59605726788E+02 -0.89750031971E+00  0.59061223511E+02  0.83915888218E+02  0.00000000000E+00 0.  1.
         11    1    4    4    0    0 -0.40764136674E+02  0.32795380641E+01  0.47660101475E+02  0.62800919430E+02  0.00000000000E+00 0. -1.
         21    1    1    2  502  501 -0.22510424817E+02 -0.26240910282E+01  0.77000813770E+02  0.80266620712E+02  0.00000000000E+00 0. -1.
<scales pt_clust_5="13000.00000" pt_clust_6="13000.00000" pt_clust_7="13000.00000" pt_clust_8="13000.00000" pt_clust_9="22.66286"></scales>
<clustering>
<clus scale="   22.663">  1  9  2 -1</clus>
<clus scale="   90.761">  5  6 -1 -1</clus>
<clus scale="   90.775">  2  5  1 -1</clus>
<clus scale="   98.872">  7  8 -1 -1</clus>
<clus scale="   22.663">  1  5  2 -1</clus>
</clustering>
</event>
<event>
 9    1  0.1803370E-005  0.1165497E+03  0.7546771E-02  0.1251424E+00
          1   -1    0    0  502    0  0.00000000000E+00  0.00000000000E+00  0.12789312108E+03  0.12789312108E+03  0.00000000000E+00 0. -1.
         -1   -1    0    0    0  501 -0.00000000000E+00 -0.00000000000E+00 -0.14256832565E+03  0.14256832565E+03  0.00000000000E+00 0.  1.
         23    2    1    2    0    0  0.47328206427E+02 -0.89407647555E-01 -0.47729470099E+02  0.11891180374E+03  0.98091526825E+02 0.  0.
         23    2    1    2    0    0 -0.69300303975E+02  0.14458933476E+02  0.43379930134E+02  0.12333837410E+03  0.91208241396E+02 0.  0.
        -11    1    3    3    0    0 -0.19488383934E+02 -0.23485955096E+02  0.46175553019E+01  0.30865984710E+02  0.00000000000E+00 0.  1.
         11    1    3    3    0    0  0.66816590361E+02  0.23396547449E+02 -0.52347025401E+02  0.88045819028E+02  0.00000000000E+00 0. -1.
        -11    1    4    4    0    0 -0.81584344052E+02  0.36332926460E+02  0.26709470199E+02  0.93217393966E+02  0.00000000000E+00 0.  1.
         11    1    4    4    0    0  0.12284040077E+02 -0.21873992984E+02  0.16670459935E+02  0.30120980132E+02  0.00000000000E+00 0. -1.
         21    1    1    2  502  501  0.21972097549E+02 -0.14369525828E+02 -0.10325664608E+02  0.28211268898E+02  0.00000000000E+00 0. -1.
<scales pt_clust_5="13000.00000" pt_clust_6="13000.00000" pt_clust_7="13000.00000" pt_clust_8="13000.00000" pt_clust_9="26.25369"></scales>
<clustering>
<clus scale="   26.254">  2  9  1 -1</clus>
<clus scale="   91.208">  7  8 -1 -1</clus>
<clus scale="   98.092">  5  6 -1 -1</clus>
<clus scale="  110.819">  1  7  2 -1</clus>
<clus scale="  110.819">  1  5  2 -1</clus>
</clustering>
</event>
<event>
 9    1  0.1803370E-005  0.1292668E+03  0.7546771E-02  0.1245753E+00
          2   -1    0    0  502    0  0.00000000000E+00  0.00000000000E+00  0.12796527622E+04  0.12796527622E+04  0.00000000000E+00 0. -1.
         -2   -1    0    0    0  501 -0.00000000000E+00 -0.00000000000E+00 -0.22341897188E+02  0.22341897188E+02  0.00000000000E+00 0.  1.
         23    2    1    2    0    0 -0.25780878168E+01 -0.18491609445E+02  0.32775362051E+03  0.34015000834E+03  0.89056197223E+02 0.  0.
         23    2    1    2    0    0 -0.90480628586E+02  0.90109542384E+01  0.31208311741E+03  0.33732555194E+03  0.90137197481E+02 0.  0.
        -11    1    3    3    0    0  0.33559337891E+02  0.13884766904E+02  0.20431974125E+03  0.20752246282E+03  0.00000000000E+00 0.  1.
         11    1    3    3    0    0 -0.36137425707E+02 -0.32376376349E+02  0.12343387926E+03  0.13262754552E+03  0.00000000000E+00 0. -1.
        -11    1    4    4    0    0 -0.41841955814E+02 -0.76777796865E+01  0.33806210559E+02  0.54337440495E+02  0.00000000000E+00 0.  1.
         11    1    4    4    0    0 -0.48638672772E+02  0.16688733925E+02  0.27827690685E+03  0.28298811144E+03  0.00000000000E+00 0. -1.
         21    1    1    2  502  501  0.93058716402E+02  0.94806552065E+01  0.61747412707E+03  0.62451909909E+03  0.00000000000E+00 0. -1.
<scales pt_clust_5="13000.00000" pt_clust_6="13000.00000" pt_clust_7="13000.00000" pt_clust_8="13000.00000" pt_clust_9="92.65637"></scales>
<clustering>
<clus scale="   89.056">  5  6 -1 -1</clus>
<clus scale="   90.137">  7  8 -1 -1</clus>
<clus scale="   90.992">  2  5  1 -1</clus>
<clus scale="   92.656">  1  9  2 -1</clus>
<clus scale="   92.656">  1  5  2 -1</clus>
</clustering>
</event>
<event>
 9    1  0.1803370E-005  0.9563250E+02  0.7546771E-02  0.1290823E+00
         -2   -1    0    0    0  501 -0.00000000000E+00  0.00000000000E+00  0.12342210425E+03  0.12342210425E+03  0.00000000000E+00 0.  1.
          2   -1    0    0  502    0  0.00000000000E+00 -0.00000000000E+00 -0.38632618249E+03  0.38632618249E+03  0.00000000000E+00 0. -1.
         23    2    1    2    0    0 -0.24546823656E+02  0.65324221122E+01  0.91968617652E+02  0.13291043089E+03  0.92529654257E+02 0.  0.
         23    2    1    2    0    0 -0.84211562648E+00 -0.21535737923E+02 -0.30503982822E+03  0.31893265381E+03  0.90577280234E+02 0.  0.
        -13    1    3    3    0    0 -0.39521422437E+02 -0.29979511413E+02  0.75074898072E+02  0.89983077612E+02  0.00000000000E+00 0.  1.
         13    1    3    3    0    0  0.14974598781E+02  0.36511933525E+02  0.16893719580E+02  0.42927353280E+02  0.00000000000E+00 0. -1.
        -13    1    4    4    0    0  0.27990179392E+02  0.24816725303E+02 -0.14884655349E+03  0.15347513311E+03  0.00000000000E+00 0. -1.
         13    1    4    4    0    0 -0.28832295018E+02 -0.46352463225E+02 -0.15619327473E+03  0.16545752070E+03  0.00000000000E+00 0.  1.
         21    1    1    2  502  501  0.25388939282E+02  0.15003315811E+02 -0.49832867670E+02  0.57905202041E+02  0.00000000000E+00 0. -1.
<scales pt_clust_5="13000.00000" pt_clust_6="13000.00000" pt_clust_7="13000.00000" pt_clust_8="13000.00000" pt_clust_9="29.49064"></scales>
<clustering>
<clus scale="   29.491">  2  9  1 -1</clus>
<clus scale="   90.577">  7  8 -1 -1</clus>
<clus scale="   92.530">  5  6 -1 -1</clus>
<clus scale="   93.745">  2  7  1 -1</clus>
<clus scale="   29.491">  2  5  1 -1</clus>
</clustering>
</event>
<event>
 9    1  0.1803370E-005  0.1461488E+03  0.7546771E-02  0.1205841E+00
          2   -1    0    0  502    0  0.00000000000E+00  0.00000000000E+00  0.26875674103E+03  0.26875674103E+03  0.00000000000E+00 0. -1.
         -2   -1    0    0    0  501 -0.00000000000E+00 -0.00000000000E+00 -0.13824156947E+03  0.13824156947E+03  0.00000000000E+00 0.  1.
         23    2    1    2    0    0  0.11980546918E+03 -0.21000936054E+02 -0.28493756814E+02  0.15746519099E+03  0.95859284557E+02 0.  0.
         23    2    1    2    0    0 -0.92084113648E+02 -0.24942961822E+02  0.85122847367E+02  0.15821790570E+03  0.93195338994E+02 0.  0.
        -13    1    4    4    0    0 -0.17253728245E+02 -0.50906111034E+02  0.28372042855E+02  0.60779076126E+02  0.00000000000E+00 0.  1.
         13    1    4    4    0    0 -0.74830385403E+02  0.25963149212E+02  0.56750804512E+02  0.97438829577E+02  0.00000000000E+00 0. -1.
        -13    1    3    3    0    0  0.19022294670E+02  0.13512690414E+02 -0.44009244341E+02  0.49812188109E+02  0.00000000000E+00 0. -1.
         13    1    3    3    0    0  0.10078317451E+03 -0.34513626468E+02  0.15515487526E+02  0.10765300289E+03  0.00000000000E+00 0.  1.
         21    1    1    2  502  501 -0.27721355536E+02  0.45943897876E+02  0.73886081009E+02  0.91315213802E+02  0.00000000000E+00 0. -1.
<scales pt_clust_5="13000.00000" pt_clust_6="13000.00000" pt_clust_7="13000.00000" pt_clust_8="13000.00000" pt_clust_9="53.65925"></scales>
<clustering>
<clus scale="   53.659">  1  9  2 -1</clus>
<clus scale="   93.195">  5  6 -1 -1</clus>
<clus scale="   95.859">  7  8 -1 -1</clus>
<clus scale="  144.416">  1  5  2 -1</clus>
<clus scale="   53.659">  1  5  2 -1</clus>
</clustering>
</event>
<event>
 9    1  0.1803370E-005  0.1513146E+03  0.7546771E-02  0.1208084E+00
         -2   -1    0    0    0  501 -0.00000000000E+00  0.00000000000E+00  0.78574608610E+02  0.78574608610E+02  0.00000000000E+00 0.  1.
          2   -1    0    0  502    0  0.00000000000E+00 -0.00000000000E+00 -0.37932708942E+03  0.37932708942E+03  0.00000000000E+00 0. -1.
         23    2    1    2    0    0 -0.50780874628E+02  0.81509287282E+02 -0.30427739922E+02  0.13492422736E+03  0.89756552023E+02 0.  0.
         23    2    1    2    0    0  0.31704858908E+02 -0.48539081516E+02 -0.19630532159E+03  0.23973203069E+03  0.12479754301E+03 0.  0.
        -11    1    4    4    0    0  0.96104238920E+01 -0.89994660684E+02 -0.13401480140E+03  0.16171384045E+03  0.00000000000E+00 0. -1.
         11    1    4    4    0    0  0.22094435016E+02  0.41455579168E+02 -0.62290520189E+02  0.78018190240E+02  0.00000000000E+00 0.  1.
        -11    1    3    3    0    0  0.21771820604E+02  0.44308470925E+02 -0.17461780423E+02  0.52365700068E+02  0.00000000000E+00 0.  1.
         11    1    3    3    0    0 -0.72552695232E+02  0.37200816357E+02 -0.12965959499E+02  0.82558527293E+02  0.00000000000E+00 0. -1.
         21    1    1    2  502  501  0.19076015721E+02 -0.32970205766E+02 -0.74019419306E+02  0.83245439986E+02  0.00000000000E+00 0. -1.
<scales pt_clust_5="13000.00000" pt_clust_6="13000.00000" pt_clust_7="13000.00000" pt_clust_8="13000.00000" pt_clust_9="38.09106"></scales>
<clustering>
<clus scale="   38.091">  2  9  1 -1</clus>
<clus scale="   89.757">  7  8 -1 -1</clus>
<clus scale="  124.008">  1  7  2 -1</clus>
<clus scale="  124.798">  5  6 -1 -1</clus>
<clus scale="   38.091">  2  5  1 -1</clus>
</clustering>
</event>
<event>
 9    1  0.1803370E-005  0.1230245E+03  0.7546771E-02  0.1242268E+00
         -3   -1    0    0    0  501 -0.00000000000E+00  0.00000000000E+00  0.28978803513E+03  0.28978803513E+03  0.00000000000E+00 0.  1.
          3   -1    0    0  502    0  0.00000000000E+00 -0.00000000000E+00 -0.72314448313E+02  0.72314448313E+02  0.00000000000E+00 0. -1.
         23    2    1    2    0    0  0.64118124216E+02  0.69747564535E+02  0.15679940412E+03  0.20422999832E+03  0.90266175662E+02 0.  0.
         23    2    1    2    0    0 -0.58262719500E+02 -0.41557137959E+02  0.71865376346E+02  0.12698189221E+03  0.76408300808E+02 0.  0.
        -11    1    4    4    0    0 -0.42320043762E+02  0.87608887336E+01  0.77032809883E+01  0.43898517212E+02  0.00000000000E+00 0. -1.
         11    1    4    4    0    0 -0.15942675738E+02 -0.50318026693E+02  0.64162095358E+02  0.83083374996E+02  0.00000000000E+00 0.  1.
        -13    1    3    3    0    0  0.16884566709E+02  0.69728528772E+02  0.49988656892E+02  0.87441535528E+02  0.00000000000E+00 0.  1.
         13    1    3    3    0    0  0.47233557507E+02  0.19035763766E-01  0.10681074723E+03  0.11678846279E+03  0.00000000000E+00 0. -1.
         21    1    1    2  502  501 -0.58554047159E+01 -0.28190426576E+02 -0.11191193658E+02  0.30890592911E+02  0.00000000000E+00 0. -1.
<scales pt_clust_5="13000.00000" pt_clust_6="13000.00000" pt_clust_7="13000.00000" pt_clust_8="13000.00000" pt_clust_9="28.79212"></scales>
<clustering>
<clus scale="   28.792">  2  9  1 -1</clus>
<clus scale="   76.408">  5  6 -1 -1</clus>
<clus scale="   90.266">  7  8 -1 -1</clus>
<clus scale="  113.249">  2  5  1 -1</clus>
<clus scale="   28.792">  2  5  1 -1</clus>
</clustering>
</event>
<event>
 9    1  0.1803370E-005  0.9876288E+02  0.7546771E-02  0.1285765E+00
         -2   -1    0    0    0  501 -0.00000000000E+00  0.00000000000E+00  0.42810408616E+02  0.42810408616E+02  0.00000000000E+00 0.  1.
          2   -1    0    0  502    0  0.00000000000E+00 -0.00000000000E+00 -0.42273568081E+03  0.42273568081E+03  0.00000000000E+00 0. -1.
         23    2    1    2    0    0  0.16273625041E+02 -0.22425571276E+02 -0.82228534557E+02  0.13083672930E+03  0.97923341040E+02 0.  0.
         23    2    1    2    0    0 -0.67943385388E+01 -0.26853187090E+02 -0.14795204887E+03  0.17677986727E+03  0.92704131590E+02 0.  0.
        -11    1    4    4    0    0  0.31797326651E+02 -0.29364428784E+02 -0.30033783257E+02  0.52681759620E+02  0.00000000000E+00 0.  1.
         11    1    4    4    0    0 -0.38591665189E+02  0.25112416941E+01 -0.11791826561E+03  0.12409810765E+03  0.00000000000E+00 0. -1.
        -13    1    3    3    0    0  0.15965845902E+02 -0.45626762575E+02 -0.31698213989E+01  0.48443342847E+02  0.00000000000E+00 0.  1.
         13    1    3    3    0    0  0.30777913969E+00  0.23201191299E+02 -0.79058713158E+02  0.82393386457E+02  0.00000000000E+00 0. -1.
         21    1    1    2  502  501 -0.94792865025E+01  0.49278758366E+02 -0.14974468877E+03  0.15792949286E+03  0.00000000000E+00 0. -1.
<scales pt_clust_5="13000.00000" pt_clust_6="13000.00000" pt_clust_7="13000.00000" pt_clust_8="13000.00000" pt_clust_9="50.18220"></scales>
<clustering>
<clus scale="   50.182">  2  9  1 -1</clus>
<clus scale="   92.704">  5  6 -1 -1</clus>
<clus scale="   93.591">  2  5  1 -1</clus>
<clus scale="   97.923">  7  8 -1 -1</clus>
<clus scale="   50.182">  2  5  1 -1</clus>
</clustering>
</event>
<event>
 9    1  0.1803370E-005  0.9682402E+02  0.7546771E-02  0.1291798E+00
          1   -1    0    0  502    0  0.00000000000E+00  0.00000000000E+00  0.60885523676E+02  0.60885523676E+02  0.00000000000E+00 0. -1.
         -1   -1    0    0    0  501 -0.00000000000E+00 -0.00000000000E+00 -0.18757182562E+03  0.18757182562E+03  0.00000000000E+00 0.  1.
         23    2    1    2    0    0 -0.18398236854E+02 -0.50376208126E+01 -0.60968107884E+02  0.10459739335E+03  0.82822894018E+02 0.  0.
         23    2    1    2    0    0  0.44406753513E+02  0.25183147487E+01 -0.49678879341E+02  0.11319972995E+03  0.91476150665E+02 0.  0.
        -11    1    3    3    0    0 -0.29101017804E+02 -0.39048762575E+02 -0.28817536051E+02  0.56587326142E+02  0.00000000000E+00 0.  1.
         11    1    3    3    0    0  0.10702780949E+02  0.34011141762E+02 -0.32150571833E+02  0.48010067207E+02  0.00000000000E+00 0. -1.
        -11    1    4    4    0    0  0.63996127276E+02  0.23264538880E+02 -0.17729589461E+02  0.70363921281E+02  0.00000000000E+00 0. -1.
         11    1    4    4    0    0 -0.19589373763E+02 -0.20746224132E+02 -0.31949289880E+02  0.42835808665E+02  0.00000000000E+00 0.  1.
         21    1    1    2  502  501 -0.26008516658E+02  0.25193060639E+01 -0.16039314721E+02  0.30660226002E+02  0.00000000000E+00 0. -1.
<scales pt_clust_5="13000.00000" pt_clust_6="13000.00000" pt_clust_7="13000.00000" pt_clust_8="13000.00000" pt_clust_9="26.13025"></scales>
<clustering>
<clus scale="   26.130">  2  9  1 -1</clus>
<clus scale="   82.823">  5  6 -1 -1</clus>
<clus scale="   88.694">  2  5  1 -1</clus>
<clus scale="   91.476">  7  8 -1 -1</clus>
<clus scale="   96.824">  1  5  2 -1</clus>
</clustering>
</event>
<event>
 9    1  0.1803370E-005  0.1029004E+03  0.7546771E-02  0.1274621E+00
         -1   -1    0    0    0  501 -0.00000000000E+00  0.00000000000E+00  0.28763916969E+03  0.28763916969E+03  0.00000000000E+00 0.  1.
          1   -1    0    0  502    0  0.00000000000E+00 -0.00000000000E+00 -0.31521280388E+03  0.31521280388E+03  0.00000000000E+00 0. -1.
         23    2    1    2    0    0 -0.56032397632E+02  0.12892635715E+01  0.26111144377E+03  0.28073975783E+03  0.86569820206E+02 0.  0.
         23    2    1    2    0    0  0.44512786989E+02  0.29540588646E+02 -0.25803664555E+03  0.27713991731E+03  0.85846308821E+02 0.  0.
        -13    1    3    3    0    0 -0.25256148761E+02 -0.35250620716E+02  0.19125536470E+03  0.19610990244E+03  0.00000000000E+00 0.  1.
         13    1    3    3    0    0 -0.30776248871E+02  0.36539884287E+02  0.69856079076E+02  0.84629855383E+02  0.00000000000E+00 0. -1.
        -13    1    4    4    0    0  0.58493808848E+02  0.14890047324E+01 -0.22103089940E+03  0.22864470538E+03  0.00000000000E+00 0. -1.
         13    1    4    4    0    0 -0.13981021859E+02  0.28051583914E+02 -0.37005746151E+02  0.48495211933E+02  0.00000000000E+00 0.  1.
         21    1    1    2  502  501  0.11519610643E+02 -0.30829852218E+02 -0.30648432405E+02  0.44972298429E+02  0.00000000000E+00 0. -1.
<scales pt_clust_5="13000.00000" pt_clust_6="13000.00000" pt_clust_7="13000.00000" pt_clust_8="13000.00000" pt_clust_9="32.91172"></scales>
<clustering>
<clus scale="   32.912">  2  9  1 -1</clus>
<clus scale="   85.846">  7  8 -1 -1</clus>
<clus scale="   86.570">  5  6 -1 -1</clus>
<clus scale="  102.292">  2  7  1 -1</clus>
<clus scale="   32.912">  2  5  1 -1</clus>
</clustering>
</event>
<event>
 9    1  0.1803370E-005  0.2078492E+03  0.7546771E-02  0.1144469E+00
          1   -1    0    0  502    0  0.00000000000E+00  0.00000000000E+00  0.52153915385E+03  0.52153915385E+03  0.00000000000E+00 0. -1.
         -1   -1    0    0    0  501 -0.00000000000E+00 -0.00000000000E+00 -0.15117552336E+03  0.15117552336E+03  0.00000000000E+00 0.  1.
         23    2    1    2    0    0  0.58815889638E+02 -0.15176450798E+03 -0.45404854868E+02  0.19228019527E+03  0.91751282774E+02 0.  0.
         23    2    1    2    0    0 -0.67307176468E+02  0.17094645552E+03  0.40532301169E+03  0.45700038321E+03  0.10396951372E+03 0.  0.
        -11    1    4    4    0    0 -0.12531795124E+02  0.85686835056E+02  0.29387034024E+03  0.30636425455E+03  0.00000000000E+00 0. -1.
         11    1    4    4    0    0 -0.54775381344E+02  0.85259620467E+02  0.11145267145E+03  0.15063612866E+03  0.00000000000E+00 0.  1.
        -13    1    3    3    0    0 -0.14629365825E+02 -0.31834906454E+02  0.16379054314E+02  0.38674966497E+02  0.00000000000E+00 0. -1.
         13    1    3    3    0    0  0.73445255463E+02 -0.11992960153E+03 -0.61783909181E+02  0.15360522877E+03  0.00000000000E+00 0.  1.
         21    1    1    2  502  501  0.84912868303E+01 -0.19181947542E+02  0.10445473662E+02  0.23434098736E+02  0.00000000000E+00 0.  1.
<scales pt_clust_5="13000.00000" pt_clust_6="13000.00000" pt_clust_7="13000.00000" pt_clust_8="13000.00000" pt_clust_9="20.97735"></scales>
<clustering>
<clus scale="   20.977">  2  9  1 -1</clus>
<clus scale="   91.751">  7  8 -1 -1</clus>
<clus scale="  103.970">  5  6 -1 -1</clus>
<clus scale="  202.015">  2  7  1 -1</clus>
<clus scale="  207.849">  1  5  2 -1</clus>
</clustering>
</event>
<event>
 9    1  0.1803370E-005  0.9519119E+02  0.7546771E-02  0.1291550E+00
          1   -1    0    0  502    0  0.00000000000E+00  0.00000000000E+00  0.12209402481E+03  0.12209402481E+03  0.00000000000E+00 0. -1.
         -1   -1    0    0    0  501 -0.00000000000E+00 -0.00000000000E+00 -0.15429181749E+03  0.15429181749E+03  0.00000000000E+00 0.  1.
         23    2    1    2    0    0 -0.80232941636E+01 -0.19441459894E+02 -0.62782353992E+02  0.11272450748E+03  0.91229638829E+02 0.  0.
         23    2    1    2    0    0 -0.41598455940E+02  0.21107385226E+02 -0.28499863818E+01  0.10380348346E+03  0.92688119569E+02 0.  0.
        -11    1    4    4    0    0  0.28869201652E+02  0.15912069370E+02 -0.34320328858E+01  0.33142172611E+02  0.00000000000E+00 0. -1.
         11    1    4    4    0    0 -0.70467657592E+02  0.51953158556E+01  0.58204650392E+00  0.70661310853E+02  0.00000000000E+00 0.  1.
        -13    1    3    3    0    0 -0.47445696982E+02 -0.11203538097E+02 -0.51468475969E+02  0.70891589392E+02  0.00000000000E+00 0. -1.
         13    1    3    3    0    0  0.39422402818E+02 -0.82379217974E+01 -0.11313878023E+02  0.41832918084E+02  0.00000000000E+00 0.  1.
         21    1    1    2  502  501  0.49621750104E+02 -0.16659253318E+01  0.33434547691E+02  0.59857851364E+02  0.00000000000E+00 0. -1.
<scales pt_clust_5="13000.00000" pt_clust_6="13000.00000" pt_clust_7="13000.00000" pt_clust_8="13000.00000" pt_clust_9="49.64971"></scales>
<clustering>
<clus scale="   49.650">  1  9  2 -1</clus>
<clus scale="   91.230">  7  8 -1 -1</clus>
<clus scale="   92.688">  5  6 -1 -1</clus>
<clus scale="   93.772">  2  7  1 -1</clus>
<clus scale="   49.650">  1  5  2 -1</clus>
</clustering>
</event>
<event>
 9    1  0.1803370E-005  0.1949908E+03  0.7546771E-02  0.1154539E+00
         -2   -1    0    0    0  501 -0.00000000000E+00  0.00000000000E+00  0.73468309071E+03  0.73468309071E+03  0.00000000000E+00 0.  1.
          2   -1    0    0  502    0  0.00000000000E+00 -0.00000000000E+00 -0.23526083311E+03  0.23526083311E+03  0.00000000000E+00 0. -1.
         23    2    1    2    0    0  0.16237587783E+03 -0.49129293465E+02  0.66311392382E+03  0.69110408438E+03  0.95525736371E+02 0.  0.
         23    2    1    2    0    0 -0.16017365942E+03  0.72513078956E+02 -0.12646822976E+03  0.23482580292E+03  0.90747985035E+02 0.  0.
        -11    1    4    4    0    0 -0.68228172090E+02  0.68107984055E+02 -0.28797563075E+02  0.10061352095E+03  0.00000000000E+00 0.  1.
         11    1    4    4    0    0 -0.91945487325E+02  0.44050949011E+01 -0.97670666690E+02  0.13421228197E+03  0.00000000000E+00 0. -1.
        -11    1    3    3    0    0  0.37677463676E+02 -0.47125522852E+02  0.12599824611E+03  0.13969954973E+03  0.00000000000E+00 0. -1.
         11    1    3    3    0    0  0.12469841415E+03 -0.20037706136E+01  0.53711567771E+03  0.55140453465E+03  0.00000000000E+00 0.  1.
         21    1    1    2  502  501 -0.22022184146E+01 -0.23383785491E+02 -0.37223436451E+02  0.44014036523E+02  0.00000000000E+00 0. -1.
<scales pt_clust_5="13000.00000" pt_clust_6="13000.00000" pt_clust_7="13000.00000" pt_clust_8="13000.00000" pt_clust_9="23.48726"></scales>
<clustering>
<clus scale="   23.487">  2  9  1 -1</clus>
<clus scale="   90.748">  5  6 -1 -1</clus>
<clus scale="   95.526">  7  8 -1 -1</clus>
<clus scale="  192.695">  2  5  1 -1</clus>
<clus scale="   23.487">  2  5  1 -1</clus>
</clustering>
</event>
<event>
 9    1  0.1803370E-005  0.1049940E+03  0.7546771E-02  0.1274392E+00
         -1   -1    0    0    0  501 -0.00000000000E+00  0.00000000000E+00  0.19014900709E+03  0.19014900709E+03  0.00000000000E+00 0.  1.
          1   -1    0    0  502    0  0.00000000000E+00 -0.00000000000E+00 -0.80613954596E+02  0.80613954596E+02  0.00000000000E+00 0. -1.
         23    2    1    2    0    0  0.25498078773E+02 -0.24470402715E+02  0.59703694117E+02  0.12493984151E+03  0.10390611279E+03 0.  0.
         23    2    1    2    0    0  0.58920283383E+01  0.30704261926E+00  0.45472461967E+02  0.10597080816E+03  0.95536679404E+02 0.  0.
        -11    1    4    4    0    0  0.26415622606E+02  0.38227848212E+02  0.48300987263E+01  0.46717056310E+02  0.00000000000E+00 0.  1.
         11    1    4    4    0    0 -0.20523594267E+02 -0.37920805593E+02  0.40642363241E+02  0.59253751850E+02  0.00000000000E+00 0. -1.
        -13    1    3    3    0    0 -0.19651181585E+02  0.20947483915E+02  0.53342541513E+02  0.60583766432E+02  0.00000000000E+00 0.  1.
         13    1    3    3    0    0  0.45149260358E+02 -0.45417886630E+02  0.63611526044E+01  0.64356075077E+02  0.00000000000E+00 0. -1.
         21    1    1    2  502  501 -0.31390107112E+02  0.24163360095E+02  0.43588964144E+01  0.39852312022E+02  0.00000000000E+00 0. -1.
<scales pt_clust_5="13000.00000" pt_clust_6="13000.00000" pt_clust_7="13000.00000" pt_clust_8="13000.00000" pt_clust_9="39.61321"></scales>
<clustering>
<clus scale="   39.613">  2  9  1 -1</clus>
<clus scale="   95.537">  5  6 -1 -1</clus>
<clus scale="   96.719">  2  5  1 -1</clus>
<clus scale="  103.906">  7  8 -1 -1</clus>
<clus scale="   39.613">  2  5  1 -1</clus>
</clustering>
</event>
<event>
 9    1  0.1803370E-005  0.2393433E+03  0.7546771E-02  0.1120381E+00
         -1   -1    0    0    0  501 -0.00000000000E+00  0.00000000000E+00  0.30952432985E+03  0.30952432985E+03  0.00000000000E+00 0.  1.
          1   -1    0    0  502    0  0.00000000000E+00 -0.00000000000E+00 -0.32186533237E+03  0.32186533237E+03  0.00000000000E+00 0. -1.
         23    2    1    2    0    0 -0.19318983328E+03  0.91588908380E+02  0.10465914662E+03  0.25479503141E+03  0.90863255714E+02 0.  0.
         23    2    1    2    0    0  0.19708427154E+03 -0.12285177571E+03  0.53098217930E+01  0.25029236434E+03  0.93184250572E+02 0.  0.
        -11    1    3    3    0    0 -0.13256023293E+03  0.10239199316E+03  0.94679233487E+02  0.19240710193E+03  0.00000000000E+00 0.  1.
         11    1    3    3    0    0 -0.60629600348E+02 -0.10803084780E+02  0.99799131357E+01  0.62387929484E+02  0.00000000000E+00 0. -1.
        -13    1    4    4    0    0  0.14073910739E+01 -0.27066847715E+02 -0.15861118915E+02  0.31403345174E+02  0.00000000000E+00 0.  1.
         13    1    4    4    0    0  0.19567688047E+03 -0.95784927999E+02  0.21170940708E+02  0.21888901917E+03  0.00000000000E+00 0. -1.
         21    1    1    2  502  501 -0.38944382602E+01  0.31262867335E+02 -0.12230997094E+03  0.12630226647E+03  0.00000000000E+00 0. -1.
<scales pt_clust_5="13000.00000" pt_clust_6="13000.00000" pt_clust_7="13000.00000" pt_clust_8="13000.00000" pt_clust_9="31.50450"></scales>
<clustering>
<clus scale="   31.505">  2  9  1 -1</clus>
<clus scale="   90.863">  5  6 -1 -1</clus>
<clus scale="   93.184">  7  8 -1 -1</clus>
<clus scale="  238.449">  1  5  2 -1</clus>
<clus scale="   31.505">  2  5  1 -1</clus>
</clustering>
</event>
<event>
 9    1  0.1803370E-005  0.9371267E+02  0.7546771E-02  0.1295624E+00
         -1   -1    0    0    0  501 -0.00000000000E+00  0.00000000000E+00  0.29232614156E+03  0.29232614156E+03  0.00000000000E+00 0.  1.
          1   -1    0    0  502    0  0.00000000000E+00 -0.00000000000E+00 -0.67894719099E+02  0.67894719099E+02  0.00000000000E+00 0. -1.
         23    2    1    2    0    0 -0.42790680217E+01 -0.30232294656E+02  0.14688347224E+03  0.17497309722E+03  0.90047366820E+02 0.  0.
         23    2    1    2    0    0  0.45976656759E+02 -0.61958955814E+01  0.83683839091E+02  0.12954003433E+03  0.87323499012E+02 0.  0.
        -11    1    4    4    0    0  0.69311888495E+02  0.34355581161E+01  0.42934551233E+02  0.81604636118E+02  0.00000000000E+00 0.  1.
         11    1    4    4    0    0 -0.23335231736E+02 -0.96314536976E+01  0.40749287858E+02  0.47935398209E+02  0.00000000000E+00 0. -1.
        -13    1    3    3    0    0  0.11855674209E+02 -0.58228627911E+02  0.71591536331E+02  0.93040196655E+02  0.00000000000E+00 0.  1.
         13    1    3    3    0    0 -0.16134742231E+02  0.27996333255E+02  0.75291935905E+02  0.81932900564E+02  0.00000000000E+00 0. -1.
         21    1    1    2  502  501 -0.41697588737E+02  0.36428190238E+02 -0.61358888680E+01  0.55707729111E+02  0.00000000000E+00 0. -1.
<scales pt_clust_5="13000.00000" pt_clust_6="13000.00000" pt_clust_7="13000.00000" pt_clust_8="13000.00000" pt_clust_9="55.36878"></scales>
<clustering>
<clus scale="   55.369">  2  9  1 -1</clus>
<clus scale="   87.323">  5  6 -1 -1</clus>
<clus scale="   90.047">  7  8 -1 -1</clus>
<clus scale="   91.098">  2  5  1 -1</clus>
<clus scale="   55.369">  2  5  1 -1</clus>
</clustering>
</event>
<event>
 9    1  0.1803370E-005  0.1344923E+03  0.7546771E-02  0.1221566E+00
         -1   -1    0    0    0  501 -0.00000000000E+00  0.00000000000E+00  0.23118551580E+03  0.23118551580E+03  0.00000000000E+00 0.  1.
          1   -1    0    0  502    0  0.00000000000E+00 -0.00000000000E+00 -0.15205831212E+03  0.15205831212E+03  0.00000000000E+00 0. -1.
         23    2    1    2    0    0  0.10157383594E+03  0.22847990833E+02  0.10950007138E+03  0.17658677080E+03  0.91396647399E+02 0.  0.
         23    2    1    2    0    0 -0.79823835673E+02 -0.49241275262E+02  0.34184823573E+02  0.13359979549E+03  0.88790513356E+02 0.  0.
        -13    1    4    4    0    0 -0.45077037703E+02 -0.54080332092E+02 -0.16163036593E+02  0.72234793550E+02  0.00000000000E+00 0. -1.
         13    1    4    4    0    0 -0.34746797970E+02  0.48390568297E+01  0.50347860166E+02  0.61365001943E+02  0.00000000000E+00 0.  1.
        -13    1    3    3    0    0  0.19366496117E+02 -0.31389800792E+02  0.14148530681E+02  0.39503945196E+02  0.00000000000E+00 0. -1.
         13    1    3    3    0    0  0.82207339825E+02  0.54237791626E+02  0.95351540696E+02  0.13708282560E+03  0.00000000000E+00 0.  1.
         21    1    1    2  502  501 -0.21750000270E+02  0.26393284429E+02 -0.64557691271E+02  0.73057261631E+02  0.00000000000E+00 0. -1.
<scales pt_clust_5="13000.00000" pt_clust_6="13000.00000" pt_clust_7="13000.00000" pt_clust_8="13000.00000" pt_clust_9="34.20041"></scales>
<clustering>
<clus scale="   34.200">  2  9  1 -1</clus>
<clus scale="   88.791">  5  6 -1 -1</clus>
<clus scale="   91.397">  7  8 -1 -1</clus>
<clus scale="  132.735">  2  5  1 -1</clus>
<clus scale="   34.200">  2  5  1 -1</clus>
</clustering>
</event>
<event>
 9    1  0.1803370E-005  0.9937623E+02  0.7546771E-02  0.1282512E+00
         -1   -1    0    0    0  501 -0.00000000000E+00  0.00000000000E+00  0.23230630482E+03  0.23230630482E+03  0.00000000000E+00 0.  1.
          1   -1    0    0  502    0  0.00000000000E+00 -0.00000000000E+00 -0.10056915889E+03  0.10056915889E+03  0.00000000000E+00 0. -1.
         23    2    1    2    0    0  0.54335854532E+02  0.74301580674E+01  0.10963591218E+03  0.15231299853E+03  0.90397035050E+02 0.  0.
         23    2    1    2    0    0 -0.18037878348E+02  0.66680988955E+01  0.71070886598E+02  0.11799785198E+03  0.92209509010E+02 0.  0.
        -13    1    4    4    0    0  0.10416631638E+02 -0.32023448991E+02  0.59854760644E+02  0.68677506301E+02  0.00000000000E+00 0.  1.
         13    1    4    4    0    0 -0.28454509986E+02  0.38691547887E+02  0.11216125954E+02  0.49320345679E+02  0.00000000000E+00 0. -1.
        -13    1    3    3    0    0 -0.23056370853E+02 -0.60846427854E+00  0.47263483238E+02  0.52590905235E+02  0.00000000000E+00 0.  1.
         13    1    3    3    0    0  0.77392225386E+02  0.80386223459E+01  0.62372428940E+02  0.99722093296E+02  0.00000000000E+00 0. -1.
         21    1    1    2  502  501 -0.36297976185E+02 -0.14098256963E+02 -0.48969652846E+02  0.62564613196E+02  0.00000000000E+00 0.  1.
<scales pt_clust_5="13000.00000" pt_clust_6="13000.00000" pt_clust_7="13000.00000" pt_clust_8="13000.00000" pt_clust_9="38.93975"></scales>
<clustering>
<clus scale="   38.940">  2  9  1 -1</clus>
<clus scale="   90.397">  7  8 -1 -1</clus>
<clus scale="   92.210">  5  6 -1 -1</clus>
<clus scale="   97.697">  1  7  2 -1</clus>
<clus scale="   38.940">  2  5  1 -1</clus>
</clustering>
</event>
<event>
 9    1  0.1803370E-005  0.1475769E+03  0.7546771E-02  0.1204221E+00
          2   -1    0    0  502    0  0.00000000000E+00  0.00000000000E+00  0.83101056318E+03  0.83101056318E+03  0.00000000000E+00 0. -1.
         -2   -1    0    0    0  501 -0.00000000000E+00 -0.00000000000E+00 -0.35414498388E+02  0.35414498388E+02  0.00000000000E+00 0.  1.
         23    2    1    2    0    0  0.68861169457E+02  0.86707774125E+02  0.20588980412E+03  0.24934906879E+03  0.86742422803E+02 0.  0.
         23    2    1    2    0    0 -0.89788515351E+02 -0.94766902720E+02  0.52946358270E+03  0.55279470772E+03  0.90595585614E+02 0.  0.
        -11    1    3    3    0    0  0.55001876996E+02  0.32416814000E+02  0.42698548851E+02  0.76806395417E+02  0.00000000000E+00 0.  1.
         11    1    3    3    0    0  0.13859292461E+02  0.54290960125E+02  0.16319125527E+03  0.17254267337E+03  0.00000000000E+00 0. -1.
        -11    1    4    4    0    0 -0.12541200810E+02 -0.66868174045E+02  0.33257686468E+03  0.33946429170E+03  0.00000000000E+00 0. -1.
         11    1    4    4    0    0 -0.77247314540E+02 -0.27898728675E+02  0.19688671802E+03  0.21333041602E+03  0.00000000000E+00 0.  1.
         21    1    1    2  502  501  0.20927345894E+02  0.80591285953E+01  0.60242677976E+02  0.64281285065E+02  0.00000000000E+00 0. -1.
<scales pt_clust_5="13000.00000" pt_clust_6="13000.00000" pt_clust_7="13000.00000" pt_clust_8="13000.00000" pt_clust_9="22.42551"></scales>
<clustering>
<clus scale="   22.426">  1  9  2 -1</clus>
<clus scale="   86.742">  5  6 -1 -1</clus>
<clus scale="   90.596">  7  8 -1 -1</clus>
<clus scale="  145.243">  2  5  1 -1</clus>
<clus scale="   22.426">  1  5  2 -1</clus>
</clustering>
</event>
<event>
 9    1  0.4375277E-005  0.1251432E+03  0.7546771E-02  0.1235080E+00
          1   -1    0    0  502    0  0.00000000000E+00  0.00000000000E+00  0.28108518019E+03  0.28108518019E+03  0.00000000000E+00 0. -1.
         -1   -1    0    0    0  501 -0.00000000000E+00 -0.00000000000E+00 -0.24833039654E+03  0.24833039654E+03  0.00000000000E+00 0.  1.
         23    2    1    2    0    0  0.70759736339E+01 -0.54468874739E+02 -0.20235083909E+03  0.22873252941E+03  0.91409956845E+02 0.  0.
         23    2    1    2    0    0 -0.22898386644E+02  0.84712222190E+02  0.23482292560E+03  0.26654965112E+03  0.90589256682E+02 0.  0.
        -13    1    3    3    0    0  0.36934625181E+02 -0.29331588186E+02 -0.40267675235E+02  0.62016080750E+02  0.00000000000E+00 0. -1.
         13    1    3    3    0    0 -0.29858651547E+02 -0.25137286553E+02 -0.16208316386E+03  0.16671644866E+03  0.00000000000E+00 0.  1.
        -13    1    4    4    0    0  0.71807996008E+01  0.34639854382E+02  0.13856957249E+02  0.37993402831E+02  0.00000000000E+00 0.  1.
         13    1    4    4    0    0 -0.30079186245E+02  0.50072367808E+02  0.22096596835E+03  0.22855624829E+03  0.00000000000E+00 0. -1.
         21    1    1    2  502  501  0.15822413011E+02 -0.30243347450E+02  0.28269713456E+00  0.34133396200E+02  0.00000000000E+00 0.  1.
<scales pt_clust_5="13000.00000" pt_clust_6="13000.00000" pt_clust_7="13000.00000" pt_clust_8="13000.00000" pt_clust_9="34.13223"></scales>
<clustering>
<clus scale="   34.132">  2  9  1 -1</clus>
<clus scale="   90.589">  7  8 -1 -1</clus>
<clus scale="   91.410">  5  6 -1 -1</clus>
<clus scale="  124.545">  1  7  2 -1</clus>
<clus scale="  124.545">  1  5  2 -1</clus>
</clustering>
</event>
<event>
 9    1  0.1803370E-005  0.9485627E+02  0.7546771E-02  0.1292334E+00
          1   -1    0    0  502    0  0.00000000000E+00  0.00000000000E+00  0.24647825113E+03  0.24647825113E+03  0.00000000000E+00 0. -1.
         -1   -1    0    0    0  501 -0.00000000000E+00 -0.00000000000E+00 -0.79372841369E+02  0.79372841369E+02  0.00000000000E+00 0.  1.
         23    2    1    2    0    0  0.17368173526E+02 -0.45059010620E+02 -0.62071326603E+01  0.10158941299E+03  0.89162281524E+02 0.  0.
         23    2    1    2    0    0  0.12012014167E+02  0.22731590221E+02  0.15866995601E+03  0.18456137135E+03  0.90695816763E+02 0.  0.
        -13    1    4    4    0    0  0.11224303350E+02  0.45045091930E+02  0.33081829886E+02  0.57003971452E+02  0.00000000000E+00 0.  1.
         13    1    4    4    0    0  0.78771081691E+00 -0.22313501710E+02  0.12558812612E+03  0.12755739990E+03  0.00000000000E+00 0. -1.
        -13    1    3    3    0    0  0.42890872104E+02 -0.36358747746E+02  0.23966586144E+02  0.61122685632E+02  0.00000000000E+00 0. -1.
         13    1    3    3    0    0 -0.25522698577E+02 -0.87002628743E+01 -0.30173718804E+02  0.40466727360E+02  0.00000000000E+00 0.  1.
         21    1    1    2  502  501 -0.29380187694E+02  0.22327420400E+02  0.14642586416E+02  0.39700308155E+02  0.00000000000E+00 0. -1.
<scales pt_clust_5="13000.00000" pt_clust_6="13000.00000" pt_clust_7="13000.00000" pt_clust_8="13000.00000" pt_clust_9="36.90134"></scales>
<clustering>
<clus scale="   36.901">  2  9  1 -1</clus>
<clus scale="   89.162">  7  8 -1 -1</clus>
<clus scale="   90.696">  5  6 -1 -1</clus>
<clus scale="   93.391">  2  7  1 -1</clus>
<clus scale="   94.856">  1  5  2 -1</clus>
</clustering>
</event>
<event>
 9    1  0.1803370E-005  0.1155455E+03  0.7546771E-02  0.1250689E+00
         -1   -1    0    0    0  501 -0.00000000000E+00  0.00000000000E+00  0.13550234086E+03  0.13550234086E+03  0.00000000000E+00 0.  1.
          1   -1    0    0  502    0  0.00000000000E+00 -0.00000000000E+00 -0.12148362560E+03  0.12148362560E+03  0.00000000000E+00 0. -1.
         23    2    1    2    0    0 -0.53467714741E+02 -0.54123797332E+02  0.34733951647E+02  0.12529161513E+03  0.93291797429E+02 0.  0.
         23    2    1    2    0    0  0.45346189776E+02  0.35099948333E+02 -0.17077279130E+02  0.11069195310E+03  0.93127824620E+02 0.  0.
        -13    1    3    3    0    0  0.23941249646E+02 -0.38404107233E+01 -0.50644682428E+01  0.24770567771E+02  0.00000000000E+00 0. -1.
         13    1    3    3    0    0 -0.77408964387E+02 -0.50283386609E+02  0.39798419890E+02  0.10052104736E+03  0.00000000000E+00 0.  1.
        -13    1    4    4    0    0 -0.22895952345E+02  0.24259165799E+02 -0.24224138615E+02  0.41225485451E+02  0.00000000000E+00 0.  1.
         13    1    4    4    0    0  0.68242142121E+02  0.10840782534E+02  0.71468594845E+01  0.69466467649E+02  0.00000000000E+00 0. -1.
         21    1    1    2  502  501  0.81215249648E+01  0.19023848999E+02 -0.36379572629E+01  0.21002398233E+02  0.00000000000E+00 0.  1.
<scales pt_clust_5="13000.00000" pt_clust_6="13000.00000" pt_clust_7="13000.00000" pt_clust_8="13000.00000" pt_clust_9="20.68492"></scales>
<clustering>
<clus scale="   20.685">  2  9  1 -1</clus>
<clus scale="   93.128">  7  8 -1 -1</clus>
<clus scale="   93.292">  5  6 -1 -1</clus>
<clus scale="  115.413">  2  7  1 -1</clus>
<clus scale="   20.685">  2  5  1 -1</clus>
</clustering>
</event>
<event>
 9    1  0.1803370E-005  0.9442546E+02  0.7546771E-02  0.1293126E+00
          1   -1    0    0  502    0  0.00000000000E+00  0.00000000000E+00  0.54410680675E+02  0.54410680675E+02  0.00000000000E+00 0. -1.
         -1   -1    0    0    0  501 -0.00000000000E+00 -0.00000000000E+00 -0.27019125122E+03  0.27019125122E+03  0.00000000000E+00 0.  1.
         23    2    1    2    0    0  0.19092834998E+02  0.74725809600E+01 -0.15777504354E+03  0.18421075099E+03  0.92845358534E+02 0.  0.
         23    2    1    2    0    0  0.72250218183E+01 -0.26053345738E+02 -0.41813520437E+02  0.10433489874E+03  0.91686546665E+02 0.  0.
        -11    1    3    3    0    0  0.14407562889E+01 -0.37836515692E+02 -0.10878062281E+03  0.11518203679E+03  0.00000000000E+00 0.  1.
         11    1    3    3    0    0  0.17652078709E+02  0.45309096652E+02 -0.48994420723E+02  0.69028714200E+02  0.00000000000E+00 0. -1.
        -13    1    4    4    0    0  0.12673984218E+02  0.22375931632E+02  0.14771015072E+02  0.29656282279E+02  0.00000000000E+00 0. -1.
         13    1    4    4    0    0 -0.54489623994E+01 -0.48429277370E+02 -0.56584535509E+02  0.74678616461E+02  0.00000000000E+00 0.  1.
         21    1    1    2  502  501 -0.26317856816E+02  0.18580764778E+02 -0.16192006575E+02  0.36056282172E+02  0.00000000000E+00 0. -1.
<scales pt_clust_5="13000.00000" pt_clust_6="13000.00000" pt_clust_7="13000.00000" pt_clust_8="13000.00000" pt_clust_9="32.21606"></scales>
<clustering>
<clus scale="   32.216">  1  9  2 -1</clus>
<clus scale="   91.687">  7  8 -1 -1</clus>
<clus scale="   92.845">  5  6 -1 -1</clus>
<clus scale="   93.286">  1  7  2 -1</clus>
<clus scale="   32.216">  1  5  2 -1</clus>
</clustering>
</event>
<event>
 9    1  0.1803370E-005  0.9785743E+02  0.7546771E-02  0.1286533E+00
          1   -1    0    0  502    0  0.00000000000E+00  0.00000000000E+00  0.20699475864E+03  0.20699475864E+03  0.00000000000E+00 0. -1.
         -1   -1    0    0    0  501 -0.00000000000E+00 -0.00000000000E+00 -0.20763334971E+03  0.20763334971E+03  0.00000000000E+00 0.  1.
         23    2    1    2    0    0  0.35540699155E+02  0.22523141426E+02 -0.17251823120E+03  0.19754255028E+03  0.86545282247E+02 0.  0.
         23    2    1    2    0    0 -0.14881614719E+02  0.53947210237E+01  0.90050315623E+02  0.12819099601E+03  0.89851581191E+02 0.  0.
        -11    1    3    3    0    0 -0.15139069730E+02 -0.17528358944E+02 -0.88970722518E+02  0.91935979165E+02  0.00000000000E+00 0.  1.
         11    1    3    3    0    0  0.50679768885E+02  0.40051500370E+02 -0.83547508684E+02  0.10560657112E+03  0.00000000000E+00 0. -1.
        -13    1    4    4    0    0 -0.13178586685E+02  0.47229782397E+02  0.53990833342E+02  0.72933788996E+02  0.00000000000E+00 0. -1.
         13    1    4    4    0    0 -0.17030280337E+01 -0.41835061373E+02  0.36059482281E+02  0.55257207014E+02  0.00000000000E+00 0.  1.
         21    1    1    2  502  501 -0.20659084436E+02 -0.27917862450E+02  0.81829324514E+02  0.88894562060E+02  0.00000000000E+00 0.  1.
<scales pt_clust_5="13000.00000" pt_clust_6="13000.00000" pt_clust_7="13000.00000" pt_clust_8="13000.00000" pt_clust_9="34.73046"></scales>
<clustering>
<clus scale="   34.730">  1  9  2 -1</clus>
<clus scale="   86.545">  5  6 -1 -1</clus>
<clus scale="   89.852">  7  8 -1 -1</clus>
<clus scale="   94.831">  2  5  1 -1</clus>
<clus scale="   34.730">  1  5  2 -1</clus>
</clustering>
</event>
<event>
 9    1  0.1803370E-005  0.1085812E+03  0.7546771E-02  0.1263532E+00
         -1   -1    0    0    0  501 -0.00000000000E+00  0.00000000000E+00  0.15412291422E+03  0.15412291422E+03  0.00000000000E+00 0.  1.
          1   -1    0    0  502    0  0.00000000000E+00 -0.00000000000E+00 -0.14212886883E+03  0.14212886883E+03  0.00000000000E+00 0. -1.
         23    2    1    2    0    0  0.51595259985E+02 -0.30657645611E+02  0.56549382765E+02  0.12372679199E+03  0.92241662375E+02 0.  0.
         23    2    1    2    0    0 -0.34871836883E+02  0.43368752817E+02  0.16162857909E+02  0.10827591040E+03  0.91463331830E+02 0.  0.
        -13    1    4    4    0    0  0.24005323605E+02 -0.10310421992E+02 -0.30917214370E+01  0.26308156615E+02  0.00000000000E+00 0.  1.
         13    1    4    4    0    0 -0.58877160488E+02  0.53679174809E+02  0.19254579346E+02  0.81967753789E+02  0.00000000000E+00 0. -1.
        -13    1    3    3    0    0  0.34809187892E+02  0.25078714927E+02  0.47956482356E+00  0.42905145222E+02  0.00000000000E+00 0. -1.
         13    1    3    3    0    0  0.16786072094E+02 -0.55736360538E+02  0.56069817941E+02  0.80821646768E+02  0.00000000000E+00 0.  1.
         21    1    1    2  502  501 -0.16723423102E+02 -0.12711107207E+02 -0.60718195287E+02  0.64249080659E+02  0.00000000000E+00 0. -1.
<scales pt_clust_5="13000.00000" pt_clust_6="13000.00000" pt_clust_7="13000.00000" pt_clust_8="13000.00000" pt_clust_9="21.00584"></scales>
<clustering>
<clus scale="   21.006">  2  9  1 -1</clus>
<clus scale="   91.463">  5  6 -1 -1</clus>
<clus scale="   92.242">  7  8 -1 -1</clus>
<clus scale="  107.921">  2  5  1 -1</clus>
<clus scale="   21.006">  2  5  1 -1</clus>
</clustering>
</event>
<event>
 9    1  0.1803370E-005  0.4294003E+03  0.7546771E-02  0.1034136E+00
          1   -1    0    0  502    0  0.00000000000E+00  0.00000000000E+00  0.55440094668E+03  0.55440094668E+03  0.00000000000E+00 0. -1.
         -1   -1    0    0    0  501 -0.00000000000E+00 -0.00000000000E+00 -0.89779106495E+03  0.89779106495E+03  0.00000000000E+00 0.  1.
         23    2    1    2    0    0  0.41820402913E+03 -0.26282702260E+01 -0.71023354661E+03  0.82918639867E+03  0.90646981290E+02 0.  0.
         23    2    1    2    0    0 -0.42061998492E+03  0.39150037293E+02  0.24900073454E+03  0.49960959684E+03  0.95679079850E+02 0.  0.
        -11    1    3    3    0    0  0.19528846140E+03  0.41744727134E+02 -0.35959237309E+03  0.41132332803E+03  0.00000000000E+00 0. -1.
         11    1    3    3    0    0  0.22291556774E+03 -0.44372997360E+02 -0.35064117353E+03  0.41786307064E+03  0.00000000000E+00 0.  1.
        -13    1    4    4    0    0 -0.33962294343E+03  0.22115315998E+02  0.23978574083E+03  0.41632923559E+03  0.00000000000E+00 0. -1.
         13    1    4    4    0    0 -0.80997041493E+02  0.17034721295E+02  0.92149937021E+01  0.83280361245E+02  0.00000000000E+00 0.  1.
         21    1    1    2  502  501  0.24159557844E+01 -0.36521767067E+02  0.11784269380E+03  0.12339601612E+03  0.00000000000E+00 0.  1.
<scales pt_clust_5="13000.00000" pt_clust_6="13000.00000" pt_clust_7="13000.00000" pt_clust_8="13000.00000" pt_clust_9="36.60159"></scales>
<clustering>
<clus scale="   36.602">  1  9  2 -1</clus>
<clus scale="   90.647">  5  6 -1 -1</clus>
<clus scale="   95.679">  7  8 -1 -1</clus>
<clus scale="  428.307">  2  5  1 -1</clus>
<clus scale="   36.602">  1  5  2 -1</clus>
</clustering>
</event>
<event>
 9    1  0.1803370E-005  0.1015998E+03  0.7546771E-02  0.1282575E+00
         -2   -1    0    0    0  501 -0.00000000000E+00  0.00000000000E+00  0.42053033026E+02  0.42053033026E+02  0.00000000000E+00 0.  1.
          2   -1    0    0  502    0  0.00000000000E+00 -0.00000000000E+00 -0.28164724763E+03  0.28164724763E+03  0.00000000000E+00 0. -1.
         23    2    1    2    0    0  0.14166604717E+02  0.32505232735E+02 -0.86151461082E+02  0.12592937527E+03  0.84728097260E+02 0.  0.
         23    2    1    2    0    0 -0.31067353774E+02 -0.18425872722E+02 -0.11940875368E+03  0.15724712419E+03  0.95726246946E+02 0.  0.
        -11    1    4    4    0    0 -0.53841947915E+02 -0.30850095488E+02 -0.40296668805E+02  0.73989899741E+02  0.00000000000E+00 0.  1.
         11    1    4    4    0    0  0.22774594141E+02  0.12424222766E+02 -0.79112084873E+02  0.83257224447E+02  0.00000000000E+00 0. -1.
        -13    1    3    3    0    0 -0.23959882780E+02 -0.15290694428E+02 -0.41156615303E+02  0.50017479966E+02  0.00000000000E+00 0.  1.
         13    1    3    3    0    0  0.38126487497E+02  0.47795927163E+02 -0.44994845779E+02  0.75911895306E+02  0.00000000000E+00 0. -1.
         21    1    1    2  502  501  0.16900749057E+02 -0.14079360013E+02 -0.34033999841E+02  0.40523781193E+02  0.00000000000E+00 0. -1.
<scales pt_clust_5="13000.00000" pt_clust_6="13000.00000" pt_clust_7="13000.00000" pt_clust_8="13000.00000" pt_clust_9="21.99690"></scales>
<clustering>
<clus scale="   21.997">  2  9  1 -1</clus>
<clus scale="   84.728">  7  8 -1 -1</clus>
<clus scale="   91.312">  1  7  2 -1</clus>
<clus scale="   95.726">  5  6 -1 -1</clus>
<clus scale="   21.997">  2  5  1 -1</clus>
</clustering>
</event>
<event>
 9    1  0.1803370E-005  0.2349656E+03  0.7546771E-02  0.1123206E+00
         -2   -1    0    0    0  501 -0.00000000000E+00  0.00000000000E+00  0.19186180628E+03  0.19186180628E+03  0.00000000000E+00 0.  1.
          2   -1    0    0  502    0  0.00000000000E+00 -0.00000000000E+00 -0.45265317405E+03  0.45265317405E+03  0.00000000000E+00 0. -1.
         23    2    1    2    0    0  0.75897864019E+02  0.20660193358E+03  0.32914616352E+02  0.24090460064E+03  0.92232369152E+02 0.  0.
         23    2    1    2    0    0 -0.51591327301E+02 -0.20883846582E+03 -0.29784400457E+03  0.37885289564E+03  0.92429949776E+02 0.  0.
        -11    1    3    3    0    0  0.37737281516E+02  0.16496927475E+03 -0.10669908159E+02  0.16956653847E+03  0.00000000000E+00 0.  1.
         11    1    3    3    0    0  0.38160582503E+02  0.41632658833E+02  0.43584524510E+02  0.71338062178E+02  0.00000000000E+00 0. -1.
        -13    1    4    4    0    0 -0.38252960292E+02 -0.10633542168E+03 -0.82282013483E+02  0.13978855682E+03  0.00000000000E+00 0.  1.
         13    1    4    4    0    0 -0.13338367010E+02 -0.10250304414E+03 -0.21556199109E+03  0.23906433881E+03  0.00000000000E+00 0. -1.
         21    1    1    2  502  501 -0.24306536717E+02  0.22365322381E+01  0.41380204472E+01  0.24757484058E+02  0.00000000000E+00 0. -1.
<scales pt_clust_5="13000.00000" pt_clust_6="13000.00000" pt_clust_7="13000.00000" pt_clust_8="13000.00000" pt_clust_9="24.40922"></scales>
<clustering>
<clus scale="   24.409">  1  9  2 -1</clus>
<clus scale="   92.232">  5  6 -1 -1</clus>
<clus scale="   92.430">  7  8 -1 -1</clus>
<clus scale="  234.888">  1  5  2 -1</clus>
<clus scale="  234.966">  2  5  1 -1</clus>
</clustering>
</event>
<event>
 9    1  0.1803370E-005  0.1251938E+03  0.7546771E-02  0.1234809E+00
          1   -1    0    0  502    0  0.00000000000E+00  0.00000000000E+00  0.37344836266E+03  0.37344836266E+03  0.00000000000E+00 0. -1.
         -1   -1    0    0    0  501 -0.00000000000E+00 -0.00000000000E+00 -0.12440111811E+03  0.12440111811E+03  0.00000000000E+00 0.  1.
         23    2    1    2    0    0 -0.75939450641E+02 -0.76381229990E+02 -0.30872551533E+02  0.14405989667E+03  0.90549693160E+02 0.  0.
         23    2    1    2    0    0  0.46370395090E+02  0.30473611573E+02  0.50036584130E+02  0.11750981431E+03  0.90697531192E+02 0.  0.
        -11    1    4    4    0    0  0.67469876840E+02  0.44482453193E+02  0.35103881164E+02  0.88108770254E+02  0.00000000000E+00 0.  1.
         11    1    4    4    0    0 -0.21099481750E+02 -0.14008841620E+02  0.14932702966E+02  0.29401044055E+02  0.00000000000E+00 0. -1.
        -11    1    3    3    0    0 -0.47214834440E+02 -0.61127793410E+01  0.21084852325E+02  0.52068970223E+02  0.00000000000E+00 0. -1.
         11    1    3    3    0    0 -0.28724616200E+02 -0.70268450649E+02 -0.51957403858E+02  0.91990926445E+02  0.00000000000E+00 0.  1.
         21    1    1    2  502  501  0.29569055551E+02  0.45907618417E+02  0.22988321196E+03  0.23627976980E+03  0.00000000000E+00 0. -1.
<scales pt_clust_5="13000.00000" pt_clust_6="13000.00000" pt_clust_7="13000.00000" pt_clust_8="13000.00000" pt_clust_9="54.60621"></scales>
<clustering>
<clus scale="   54.606">  1  9  2 -1</clus>
<clus scale="   90.550">  7  8 -1 -1</clus>
<clus scale="   90.698">  5  6 -1 -1</clus>
<clus scale="  125.087">  2  7  1 -1</clus>
<clus scale="   54.606">  1  5  2 -1</clus>
</clustering>
</event>
<event>
 9    1  0.1803370E-005  0.9767327E+02  0.7546771E-02  0.1286224E+00
         -2   -1    0    0    0  501 -0.00000000000E+00  0.00000000000E+00  0.16017809244E+03  0.16017809244E+03  0.00000000000E+00 0.  1.
          2   -1    0    0  502    0  0.00000000000E+00 -0.00000000000E+00 -0.26912097573E+03  0.26912097573E+03  0.00000000000E+00 0. -1.
         23    2    1    2    0    0 -0.38916567141E+02  0.22634309000E+02  0.10140371508E+03  0.14463731866E+03  0.92792399334E+02 0.  0.
         23    2    1    2    0    0 -0.14567421302E+02  0.21672500850E+01 -0.33153330517E+02  0.97918319835E+02  0.90950246282E+02 0.  0.
        -11    1    3    3    0    0 -0.57425580854E+02  0.32964617313E+02  0.10399220925E+03  0.12328318181E+03  0.00000000000E+00 0.  1.
         11    1    3    3    0    0  0.18509013713E+02 -0.10330308313E+02 -0.25884941748E+01  0.21354136849E+02  0.00000000000E+00 0. -1.
        -13    1    4    4    0    0 -0.28115849551E+02  0.33346197166E+02  0.82040561521E+01  0.44382163070E+02  0.00000000000E+00 0. -1.
         13    1    4    4    0    0  0.13548428249E+02 -0.31178947081E+02 -0.41357386669E+02  0.53536156765E+02  0.00000000000E+00 0.  1.
         21    1    1    2  502  501  0.53483988443E+02 -0.24801559085E+02 -0.17719326785E+03  0.18674342967E+03  0.00000000000E+00 0. -1.
<scales pt_clust_5="13000.00000" pt_clust_6="13000.00000" pt_clust_7="13000.00000" pt_clust_8="13000.00000" pt_clust_9="58.95468"></scales>
<clustering>
<clus scale="   58.955">  2  9  1 -1</clus>
<clus scale="   90.950">  7  8 -1 -1</clus>
<clus scale="   92.792">  5  6 -1 -1</clus>
<clus scale="   95.925">  2  7  1 -1</clus>
<clus scale="   58.955">  2  5  1 -1</clus>
</clustering>
</event>
<event>
 9    1  0.1803370E-005  0.9343253E+02  0.7546771E-02  0.1295216E+00
         -2   -1    0    0    0  501 -0.00000000000E+00  0.00000000000E+00  0.35382904211E+02  0.35382904211E+02  0.00000000000E+00 0.  1.
          2   -1    0    0  502    0  0.00000000000E+00 -0.00000000000E+00 -0.84857448712E+03  0.84857448712E+03  0.00000000000E+00 0. -1.
         23    2    1    2    0    0 -0.37458146924E+02  0.19674550686E+02 -0.10819041123E+03  0.14855630557E+03  0.92593790977E+02 0.  0.
         23    2    1    2    0    0 -0.34640460808E+02  0.79377976177E+01 -0.18358460143E+03  0.20829968114E+03  0.91774076548E+02 0.  0.
        -11    1    3    3    0    0 -0.51841029363E+02  0.38008967175E+02 -0.38170707710E+02  0.74760797469E+02  0.00000000000E+00 0.  1.
         11    1    3    3    0    0  0.14382882439E+02 -0.18334416489E+02 -0.70019703519E+02  0.73795508102E+02  0.00000000000E+00 0. -1.
        -11    1    4    4    0    0 -0.11261325581E+02 -0.40869213601E+02 -0.10131444176E+03  0.10982589032E+03  0.00000000000E+00 0. -1.
         11    1    4    4    0    0 -0.23379135227E+02  0.48807011219E+02 -0.82270159664E+02  0.98473790823E+02  0.00000000000E+00 0.  1.
         21    1    1    2  502  501  0.72098607732E+02 -0.27612348303E+02 -0.52141657025E+03  0.52710140461E+03  0.00000000000E+00 0. -1.
<scales pt_clust_5="13000.00000" pt_clust_6="13000.00000" pt_clust_7="13000.00000" pt_clust_8="13000.00000" pt_clust_9="77.20525"></scales>
<clustering>
<clus scale="   77.205">  2  9  1 -1</clus>
<clus scale="   91.774">  7  8 -1 -1</clus>
<clus scale="   92.594">  5  6 -1 -1</clus>
<clus scale="   92.620">  2  7  1 -1</clus>
<clus scale="   77.205">  2  5  1 -1</clus>
</clustering>
</event>
<event>
 9    1  0.1803370E-005  0.1028240E+03  0.7546771E-02  0.1274926E+00
         -1   -1    0    0    0  501 -0.00000000000E+00  0.00000000000E+00  0.18152611660E+03  0.18152611660E+03  0.00000000000E+00 0.  1.
          1   -1    0    0  502    0  0.00000000000E+00 -0.00000000000E+00 -0.86193758303E+02  0.86193758303E+02  0.00000000000E+00 0. -1.
         23    2    1    2    0    0 -0.22481697458E+02 -0.59434639155E+02  0.54767715691E+02  0.12398857600E+03  0.91300390165E+02 0.  0.
         23    2    1    2    0    0  0.22698587693E+02  0.26868122782E+02  0.10375457543E+02  0.99323958013E+02  0.92306427789E+02 0.  0.
        -13    1    4    4    0    0 -0.24968756090E+01  0.56071489229E+02 -0.78346378822E+01  0.56671225882E+02  0.00000000000E+00 0. -1.
         13    1    4    4    0    0  0.25195463302E+02 -0.29203366448E+02  0.18210095425E+02  0.42652732131E+02  0.00000000000E+00 0.  1.
        -13    1    3    3    0    0  0.57328155272E+01 -0.44583535863E+02  0.74124036945E+02  0.86688694170E+02  0.00000000000E+00 0.  1.
         13    1    3    3    0    0 -0.28214512985E+02 -0.14851103292E+02 -0.19356321255E+02  0.37299881829E+02  0.00000000000E+00 0. -1.
         21    1    1    2  502  501 -0.21689023529E+00  0.32566516373E+02  0.30189185059E+02  0.44407340886E+02  0.00000000000E+00 0. -1.
<scales pt_clust_5="13000.00000" pt_clust_6="13000.00000" pt_clust_7="13000.00000" pt_clust_8="13000.00000" pt_clust_9="32.56724"></scales>
<clustering>
<clus scale="   32.567">  1  9  2 -1</clus>
<clus scale="   91.300">  7  8 -1 -1</clus>
<clus scale="   92.306">  5  6 -1 -1</clus>
<clus scale="  101.922">  1  7  2 -1</clus>
<clus scale="  102.824">  2  5  1 -1</clus>
</clustering>
</event>
<event>
 9    1  0.1803370E-005  0.1061933E+03  0.7546771E-02  0.1271970E+00
          4   -1    0    0  502    0  0.00000000000E+00  0.00000000000E+00  0.14749431703E+03  0.14749431703E+03  0.00000000000E+00 0. -1.
         -4   -1    0    0    0  501 -0.00000000000E+00 -0.00000000000E+00 -0.18250851721E+03  0.18250851721E+03  0.00000000000E+00 0.  1.
         23    2    1    2    0    0 -0.56453071564E+02  0.10375884462E+02 -0.87902692955E+02  0.14477217422E+03  0.99686963699E+02 0.  0.
         23    2    1    2    0    0  0.11416830284E+02  0.28764428332E+01 -0.24405233553E+02  0.94797218554E+02  0.90842056800E+02 0.  0.
        -11    1    3    3    0    0 -0.78935305926E+01  0.48252212377E+02 -0.59334543546E+02  0.76884145845E+02  0.00000000000E+00 0.  1.
         11    1    3    3    0    0 -0.48559540972E+02 -0.37876327915E+02 -0.28568149409E+02  0.67888028373E+02  0.00000000000E+00 0. -1.
        -13    1    4    4    0    0  0.35704547629E+02  0.24746512764E+02 -0.39574606803E+02  0.58765245843E+02  0.00000000000E+00 0.  1.
         13    1    4    4    0    0 -0.24287717345E+02 -0.21870069930E+02  0.15169373250E+02  0.36031972711E+02  0.00000000000E+00 0. -1.
         21    1    1    2  502  501  0.45036241280E+02 -0.13252327295E+02  0.77293726323E+02  0.90433441471E+02  0.00000000000E+00 0. -1.
<scales pt_clust_5="13000.00000" pt_clust_6="13000.00000" pt_clust_7="13000.00000" pt_clust_8="13000.00000" pt_clust_9="46.94558"></scales>
<clustering>
<clus scale="   46.946">  1  9  2 -1</clus>
<clus scale="   90.842">  7  8 -1 -1</clus>
<clus scale="   97.938">  1  7  2 -1</clus>
<clus scale="   99.687">  5  6 -1 -1</clus>
<clus scale="   46.946">  1  5  2 -1</clus>
</clustering>
</event>
<event>
 9    1  0.1803370E-005  0.1101607E+03  0.7546771E-02  0.1260507E+00
          1   -1    0    0  502    0  0.00000000000E+00  0.00000000000E+00  0.48268769349E+03  0.48268769349E+03  0.00000000000E+00 0. -1.
         -1   -1    0    0    0  501 -0.00000000000E+00 -0.00000000000E+00 -0.40518339296E+02  0.40518339296E+02  0.00000000000E+00 0.  1.
         23    2    1    2    0    0 -0.25132469719E+02 -0.45516988824E+02  0.11376595793E+03  0.15504591285E+03  0.91613888694E+02 0.  0.
         23    2    1    2    0    0  0.25612511873E+02  0.69332551151E+02  0.16151164023E+03  0.19957699599E+03  0.91005296457E+02 0.  0.
        -11    1    4    4    0    0  0.47176014666E+02  0.59115956812E+02  0.63659306932E+02  0.98857372353E+02  0.00000000000E+00 0. -1.
         11    1    4    4    0    0 -0.21563502794E+02  0.10216594339E+02  0.97852333301E+02  0.10071962363E+03  0.00000000000E+00 0.  1.
        -13    1    3    3    0    0 -0.58476609894E+01  0.26335838222E+02  0.51060148118E+02  0.57748681715E+02  0.00000000000E+00 0.  1.
         13    1    3    3    0    0 -0.19284808730E+02 -0.71852827046E+02  0.62705809812E+02  0.97297231134E+02  0.00000000000E+00 0. -1.
         21    1    1    2  502  501 -0.48004215320E+00 -0.23815562327E+02  0.16689175604E+03  0.16858312395E+03  0.00000000000E+00 0. -1.
<scales pt_clust_5="13000.00000" pt_clust_6="13000.00000" pt_clust_7="13000.00000" pt_clust_8="13000.00000" pt_clust_9="23.82040"></scales>
<clustering>
<clus scale="   23.820">  1  9  2 -1</clus>
<clus scale="   91.005">  5  6 -1 -1</clus>
<clus scale="   91.614">  7  8 -1 -1</clus>
<clus scale="  109.655">  1  5  2 -1</clus>
<clus scale="   23.820">  1  5  2 -1</clus>
</clustering>
</event>
<event>
 9    1  0.1803370E-005  0.1499428E+03  0.7546771E-02  0.1206473E+00
          2   -1    0    0  502    0  0.00000000000E+00  0.00000000000E+00  0.85547949839E+03  0.85547949839E+03  0.00000000000E+00 0.  1.
         -2   -1    0    0    0  501 -0.00000000000E+00 -0.00000000000E+00 -0.29500183241E+02  0.29500183241E+02  0.00000000000E+00 0. -1.
         23    2    1    2    0    0  0.51873093860E+02 -0.92338997618E+02  0.25927346735E+03  0.29406668520E+03  0.89639143913E+02 0.  0.
         23    2    1    2    0    0 -0.47064218580E+02  0.66767289270E+02  0.45670536981E+03  0.47787697251E+03  0.11451504027E+03 0.  0.
        -13    1    3    3    0    0  0.13353530647E+02 -0.79421741841E+02  0.93575096561E+02  0.12346023066E+03  0.00000000000E+00 0. -1.
         13    1    3    3    0    0  0.38519563213E+02 -0.12917255777E+02  0.16569837079E+03  0.17060645454E+03  0.00000000000E+00 0.  1.
        -13    1    4    4    0    0 -0.34811017123E+02 -0.28213313583E+02  0.13777109185E+03  0.14487467593E+03  0.00000000000E+00 0. -1.
         13    1    4    4    0    0 -0.12253201457E+02  0.94980602852E+02  0.31893427796E+03  0.33300229657E+03  0.00000000000E+00 0.  1.
         21    1    1    2  502  501 -0.48088752809E+01  0.25571708349E+02  0.11000047798E+03  0.11303602393E+03  0.00000000000E+00 0.  1.
<scales pt_clust_5="13000.00000" pt_clust_6="13000.00000" pt_clust_7="13000.00000" pt_clust_8="13000.00000" pt_clust_9="26.01995"></scales>
<clustering>
<clus scale="   26.020">  1  9  2 -1</clus>
<clus scale="   89.639">  5  6 -1 -1</clus>
<clus scale="  114.515">  7  8 -1 -1</clus>
<clus scale="  131.925">  2  5  1 -1</clus>
<clus scale="   26.020">  1  5  2 -1</clus>
</clustering>
</event>
<event>
 9    1  0.1803370E-005  0.9303259E+02  0.7546771E-02  0.1296381E+00
          4   -1    0    0  502    0  0.00000000000E+00  0.00000000000E+00  0.42980992377E+02  0.42980992377E+02  0.00000000000E+00 0. -1.
         -4   -1    0    0    0  501 -0.00000000000E+00 -0.00000000000E+00 -0.35713346403E+03  0.35713346403E+03  0.00000000000E+00 0.  1.
         23    2    1    2    0    0 -0.14710052141E+01  0.20418422277E+02 -0.16169649704E+03  0.18690213458E+03  0.91474449606E+02 0.  0.
         23    2    1    2    0    0  0.25612941743E+02 -0.18275417551E+00 -0.15546348212E+03  0.18156804171E+03  0.90233050014E+02 0.  0.
        -11    1    4    4    0    0  0.16237817743E+02  0.29317169527E+02 -0.13271273889E+02  0.36045663605E+02  0.00000000000E+00 0. -1.
         11    1    4    4    0    0  0.93751239992E+01 -0.29499923702E+02 -0.14219220823E+03  0.14552237811E+03  0.00000000000E+00 0.  1.
        -11    1    3    3    0    0 -0.20711128468E+02  0.34113045263E+02 -0.22697273154E+02  0.45910967189E+02  0.00000000000E+00 0.  1.
         11    1    3    3    0    0  0.19240123254E+02 -0.13694622987E+02 -0.13899922388E+03  0.14099116739E+03  0.00000000000E+00 0. -1.
         21    1    1    2  502  501 -0.24141936528E+02 -0.20235668101E+02  0.30075075032E+01  0.31644280119E+02  0.00000000000E+00 0. -1.
<scales pt_clust_5="13000.00000" pt_clust_6="13000.00000" pt_clust_7="13000.00000" pt_clust_8="13000.00000" pt_clust_9="31.50104"></scales>
<clustering>
<clus scale="   31.501">  1  9  2 -1</clus>
<clus scale="   90.233">  5  6 -1 -1</clus>
<clus scale="   91.474">  7  8 -1 -1</clus>
<clus scale="   91.812">  1  5  2 -1</clus>
<clus scale="   31.501">  1  5  2 -1</clus>
</clustering>
</event>
<event>
 9    1  0.1803370E-005  0.1728539E+03  0.7546771E-02  0.1188195E+00
          2   -1    0    0  502    0  0.00000000000E+00  0.00000000000E+00  0.10975023995E+04  0.10975023995E+04  0.00000000000E+00 0. -1.
         -2   -1    0    0    0  501 -0.00000000000E+00 -0.00000000000E+00 -0.66575431031E+02  0.66575431031E+02  0.00000000000E+00 0.  1.
         23    2    1    2    0    0  0.16200566203E+03 -0.10103513045E+03  0.36936569699E+03  0.42651032878E+03  0.95005843629E+02 0.  0.
         23    2    1    2    0    0 -0.31407962337E+02  0.83246923281E+02  0.55036384998E+03  0.56512317441E+03  0.92451741779E+02 0.  0.
        -13    1    4    4    0    0 -0.23607105179E+02 -0.16145730436E+02  0.12604207411E+03  0.12924621647E+03  0.00000000000E+00 0.  1.
         13    1    4    4    0    0 -0.78008571579E+01  0.99392653717E+02  0.42432177588E+03  0.43587695795E+03  0.00000000000E+00 0. -1.
        -13    1    3    3    0    0  0.53129673300E+02  0.12360678733E+02  0.74213144141E+02  0.92103959345E+02  0.00000000000E+00 0. -1.
         13    1    3    3    0    0  0.10887598873E+03 -0.11339580918E+03  0.29515255285E+03  0.33440636943E+03  0.00000000000E+00 0.  1.
         21    1    1    2  502  501 -0.13059769969E+03  0.17788207167E+02  0.11119742145E+03  0.17244432729E+03  0.00000000000E+00 0.  1.
<scales pt_clust_5="13000.00000" pt_clust_6="13000.00000" pt_clust_7="13000.00000" pt_clust_8="13000.00000" pt_clust_9="144.40347"></scales>
<clustering>
<clus scale="   92.452">  5  6 -1 -1</clus>
<clus scale="   95.006">  7  8 -1 -1</clus>
<clus scale="  128.311">  1  5  2 -1</clus>
<clus scale="  144.403">  2  9  1 -1</clus>
<clus scale="  128.311">  1  5  2 -1</clus>
</clustering>
</event>
<event>
 9    1  0.1803370E-005  0.1644281E+03  0.7546771E-02  0.1184987E+00
          1   -1    0    0  502    0  0.00000000000E+00  0.00000000000E+00  0.73069230777E+03  0.73069230777E+03  0.00000000000E+00 0. -1.
         -1   -1    0    0    0  501 -0.00000000000E+00 -0.00000000000E+00 -0.55434395753E+02  0.55434395753E+02  0.00000000000E+00 0.  1.
         23    2    1    2    0    0 -0.13497216465E+03  0.34189495687E+02  0.13038022103E+03  0.21097701710E+03  0.90143734454E+02 0.  0.
         23    2    1    2    0    0  0.11504016709E+03 -0.14497250880E+02  0.40382190440E+03  0.43133799023E+03  0.97652040532E+02 0.  0.
        -11    1    4    4    0    0  0.22920305156E+02  0.35378447211E+02  0.16955252005E+03  0.17471414359E+03  0.00000000000E+00 0. -1.
         11    1    4    4    0    0  0.92119861931E+02 -0.49875698091E+02  0.23426938435E+03  0.25662384664E+03  0.00000000000E+00 0.  1.
        -13    1    3    3    0    0 -0.47195736386E+02 -0.70212530199E+01 -0.95258413110E+00  0.47724657605E+02  0.00000000000E+00 0.  1.
         13    1    3    3    0    0 -0.87776428262E+02  0.41210748707E+02  0.13133280516E+03  0.16325235949E+03  0.00000000000E+00 0. -1.
         21    1    1    2  502  501  0.19931997561E+02 -0.19692244807E+02  0.14105578659E+03  0.14381169619E+03  0.00000000000E+00 0.  1.
<scales pt_clust_5="13000.00000" pt_clust_6="13000.00000" pt_clust_7="13000.00000" pt_clust_8="13000.00000" pt_clust_9="28.01908"></scales>
<clustering>
<clus scale="   28.019">  1  9  2 -1</clus>
<clus scale="   90.144">  7  8 -1 -1</clus>
<clus scale="   97.652">  5  6 -1 -1</clus>
<clus scale="  160.083">  2  7  1 -1</clus>
<clus scale="   28.019">  1  5  2 -1</clus>
</clustering>
</event>
<event>
 9    1  0.1803370E-005  0.1075508E+03  0.7546771E-02  0.1265756E+00
          2   -1    0    0  502    0  0.00000000000E+00  0.00000000000E+00  0.73545884242E+03  0.73545884242E+03  0.00000000000E+00 0. -1.
         -2   -1    0    0    0  501 -0.00000000000E+00 -0.00000000000E+00 -0.36731216434E+02  0.36731216434E+02  0.00000000000E+00 0.  1.
         23    2    1    2    0    0  0.50269911309E+02 -0.12667905885E+02  0.73516664508E+02  0.12816343543E+03  0.91288698092E+02 0.  0.
         23    2    1    2    0    0 -0.72004726677E+02 -0.16087936749E+02  0.48299116558E+03  0.49730998828E+03  0.92699816788E+02 0.  0.
        -13    1    3    3    0    0 -0.15422422943E+02 -0.31357642332E+02  0.36281797414E+02  0.50373819446E+02  0.00000000000E+00 0. -1.
         13    1    3    3    0    0  0.65692334252E+02  0.18689736447E+02  0.37234867094E+02  0.77789615987E+02  0.00000000000E+00 0.  1.
        -13    1    4    4    0    0 -0.12120390826E+02 -0.43226611944E+02  0.11425953234E+03  0.12276271659E+03  0.00000000000E+00 0.  1.
         13    1    4    4    0    0 -0.59884335851E+02  0.27138675196E+02  0.36873163324E+03  0.37454727168E+03  0.00000000000E+00 0. -1.
         21    1    1    2  502  501  0.21734815367E+02  0.28755842633E+02  0.14221979590E+03  0.14671663515E+03  0.00000000000E+00 0.  1.
<scales pt_clust_5="13000.00000" pt_clust_6="13000.00000" pt_clust_7="13000.00000" pt_clust_8="13000.00000" pt_clust_9="36.04581"></scales>
<clustering>
<clus scale="   36.046">  1  9  2 -1</clus>
<clus scale="   91.289">  5  6 -1 -1</clus>
<clus scale="   92.700">  7  8 -1 -1</clus>
<clus scale="  106.337">  2  5  1 -1</clus>
<clus scale="   36.046">  1  5  2 -1</clus>
</clustering>
</event>
<event>
 9    1  0.1803370E-005  0.1193647E+03  0.7546771E-02  0.1244276E+00
          1   -1    0    0  502    0  0.00000000000E+00  0.00000000000E+00  0.15736477569E+03  0.15736477569E+03  0.00000000000E+00 0. -1.
         -1   -1    0    0    0  501 -0.00000000000E+00 -0.00000000000E+00 -0.12482036299E+03  0.12482036299E+03  0.00000000000E+00 0.  1.
         23    2    1    2    0    0 -0.39975119704E+02 -0.65032680706E+02  0.75748705913E+00  0.11790953191E+03  0.89860025445E+02 0.  0.
         23    2    1    2    0    0  0.65619806514E+02  0.51542986468E+02  0.14692734900E+01  0.12233777368E+03  0.89452409937E+02 0.  0.
        -11    1    3    3    0    0 -0.39801480767E+02 -0.37910205987E+02  0.41563265238E+02  0.68911875656E+02  0.00000000000E+00 0. -1.
         11    1    3    3    0    0 -0.17363893713E+00 -0.27122474719E+02 -0.40805778179E+02  0.48997656251E+02  0.00000000000E+00 0.  1.
        -13    1    4    4    0    0  0.42394012077E+02 -0.19871866686E+02 -0.43141800250E+01  0.47018671768E+02  0.00000000000E+00 0.  1.
         13    1    4    4    0    0  0.23225794437E+02  0.71414853154E+02  0.57834535150E+01  0.75319101912E+02  0.00000000000E+00 0. -1.
         21    1    1    2  502  501 -0.25644686810E+02  0.13489694238E+02  0.30317652152E+02  0.41937833090E+02  0.00000000000E+00 0.  1.
<scales pt_clust_5="13000.00000" pt_clust_6="13000.00000" pt_clust_7="13000.00000" pt_clust_8="13000.00000" pt_clust_9="28.97623"></scales>
<clustering>
<clus scale="   28.976">  1  9  2 -1</clus>
<clus scale="   89.452">  7  8 -1 -1</clus>
<clus scale="   89.860">  5  6 -1 -1</clus>
<clus scale="  119.058">  1  7  2 -1</clus>
<clus scale="   28.976">  1  5  2 -1</clus>
</clustering>
</event>
<event>
 9    1  0.1803370E-005  0.1972735E+03  0.7546771E-02  0.1152144E+00
          2   -1    0    0  502    0  0.00000000000E+00  0.00000000000E+00  0.40480463522E+03  0.40480463522E+03  0.00000000000E+00 0. -1.
         -2   -1    0    0    0  501 -0.00000000000E+00 -0.00000000000E+00 -0.23115979054E+03  0.23115979054E+03  0.00000000000E+00 0.  1.
         23    2    1    2    0    0  0.13943008247E+03 -0.10312284965E+03 -0.14424921855E+03  0.24338215300E+03  0.91389087587E+02 0.  0.
         23    2    1    2    0    0 -0.15977228929E+03  0.92181153101E+02  0.26895272457E+03  0.33846406204E+03  0.90541724239E+02 0.  0.
        -11    1    3    3    0    0  0.28839085083E+02 -0.77170537525E+02 -0.57938619883E+02  0.10071677300E+03  0.00000000000E+00 0.  1.
         11    1    3    3    0    0  0.11059099739E+03 -0.25952312127E+02 -0.86310598665E+02  0.14266538000E+03  0.00000000000E+00 0. -1.
        -13    1    4    4    0    0 -0.87089518604E+02  0.75891308942E+01  0.77159159305E+02  0.11660066476E+03  0.00000000000E+00 0.  1.
         13    1    4    4    0    0 -0.72682770690E+02  0.84592022207E+02  0.19179356526E+03  0.22186339728E+03  0.00000000000E+00 0. -1.
         21    1    1    2  502  501  0.20342206819E+02  0.10941696551E+02  0.48941338657E+02  0.54118210717E+02  0.00000000000E+00 0. -1.
<scales pt_clust_5="13000.00000" pt_clust_6="13000.00000" pt_clust_7="13000.00000" pt_clust_8="13000.00000" pt_clust_9="23.09818"></scales>
<clustering>
<clus scale="   23.098">  1  9  2 -1</clus>
<clus scale="   90.542">  7  8 -1 -1</clus>
<clus scale="   91.389">  5  6 -1 -1</clus>
<clus scale="  196.882">  1  7  2 -1</clus>
<clus scale="   23.098">  1  5  2 -1</clus>
</clustering>
</event>
<event>
 9    1  0.1803370E-005  0.8996668E+02  0.7546771E-02  0.1303156E+00
          1   -1    0    0  502    0  0.00000000000E+00  0.00000000000E+00  0.16246144700E+03  0.16246144700E+03  0.00000000000E+00 0. -1.
         -1   -1    0    0    0  501 -0.00000000000E+00 -0.00000000000E+00 -0.13317497730E+03  0.13317497730E+03  0.00000000000E+00 0.  1.
         23    2    1    2    0    0  0.51896383635E+01 -0.64505366600E+01 -0.87836311959E+02  0.12547619649E+03  0.89221726159E+02 0.  0.
         23    2    1    2    0    0 -0.78352070053E+00 -0.14013183873E+02  0.11896797382E+03  0.14914636417E+03  0.88849737892E+02 0.  0.
        -11    1    3    3    0    0 -0.12859756563E+02 -0.35592829261E+02 -0.82524132784E+02  0.90787969056E+02  0.00000000000E+00 0.  1.
         11    1    3    3    0    0  0.18049394927E+02  0.29142292601E+02 -0.53121791752E+01  0.34688227439E+02  0.00000000000E+00 0. -1.
        -13    1    4    4    0    0 -0.15710755734E+02 -0.48909045799E+02  0.59606270837E+02  0.78688182911E+02  0.00000000000E+00 0.  1.
         13    1    4    4    0    0  0.14927235034E+02  0.34895861927E+02  0.59361702986E+02  0.70458181262E+02  0.00000000000E+00 0. -1.
         21    1    1    2  502  501 -0.44061176630E+01  0.20463720533E+02 -0.18451921653E+01  0.21013863639E+02  0.00000000000E+00 0.  1.
<scales pt_clust_5="13000.00000" pt_clust_6="13000.00000" pt_clust_7="13000.00000" pt_clust_8="13000.00000" pt_clust_9="20.93270"></scales>
<clustering>
<clus scale="   20.933">  2  9  1 -1</clus>
<clus scale="   88.850">  7  8 -1 -1</clus>
<clus scale="   89.222">  5  6 -1 -1</clus>
<clus scale="   89.598">  1  7  2 -1</clus>
<clus scale="   89.598">  1  5  2 -1</clus>
</clustering>
</event>
<event>
 9    1  0.1803370E-005  0.9343568E+02  0.7546771E-02  0.1294880E+00
         -2   -1    0    0    0  501 -0.00000000000E+00  0.00000000000E+00  0.31668760469E+03  0.31668760469E+03  0.00000000000E+00 0.  1.
          2   -1    0    0  502    0  0.00000000000E+00 -0.00000000000E+00 -0.57553471851E+02  0.57553471851E+02  0.00000000000E+00 0. -1.
         23    2    1    2    0    0 -0.11519549205E+02  0.89819280766E+01  0.11677499864E+03  0.14901640525E+03  0.91411780851E+02 0.  0.
         23    2    1    2    0    0 -0.53591282056E+02 -0.22176418164E+02  0.85601613756E+02  0.13784657883E+03  0.91160429916E+02 0.  0.
        -11    1    3    3    0    0 -0.34507327644E+02  0.39957970457E+02  0.55416528152E+02  0.76540098358E+02  0.00000000000E+00 0.  1.
         11    1    3    3    0    0  0.22987778439E+02 -0.30976042381E+02  0.61358470491E+02  0.72476306888E+02  0.00000000000E+00 0. -1.
        -11    1    4    4    0    0  0.26881315647E+01  0.22513369045E+02  0.55461877504E+02  0.59917423954E+02  0.00000000000E+00 0.  1.
         11    1    4    4    0    0 -0.56279413621E+02 -0.44689787209E+02  0.30139736252E+02  0.77929154876E+02  0.00000000000E+00 0. -1.
         21    1    1    2  502  501  0.65110831262E+02  0.13194490088E+02  0.56757520436E+02  0.87378092462E+02  0.00000000000E+00 0.  1.
<scales pt_clust_5="13000.00000" pt_clust_6="13000.00000" pt_clust_7="13000.00000" pt_clust_8="13000.00000" pt_clust_9="66.43429"></scales>
<clustering>
<clus scale="   66.434">  2  9  1 -1</clus>
<clus scale="   91.160">  7  8 -1 -1</clus>
<clus scale="   91.412">  5  6 -1 -1</clus>
<clus scale="   93.190">  2  7  1 -1</clus>
<clus scale="   66.434">  2  5  1 -1</clus>
</clustering>
</event>
<event>
 9    1  0.1803370E-005  0.1003979E+03  0.7546771E-02  0.1283908E+00
          3   -1    0    0  502    0  0.00000000000E+00  0.00000000000E+00  0.12968548335E+03  0.12968548335E+03  0.00000000000E+00 0. -1.
         -3   -1    0    0    0  501 -0.00000000000E+00 -0.00000000000E+00 -0.21485210134E+03  0.21485210134E+03  0.00000000000E+00 0.  1.
         23    2    1    2    0    0  0.41495847142E+02 -0.29304034589E+02 -0.46457208829E+02  0.11476039637E+03  0.91820719610E+02 0.  0.
         23    2    1    2    0    0  0.38694276073E+02 -0.31105191389E+02  0.30578760172E+02  0.10779120202E+03  0.90659267189E+02 0.  0.
        -11    1    3    3    0    0 -0.38850246859E+01  0.24174400779E+02  0.82205032825E+01  0.25827732073E+02  0.00000000000E+00 0.  1.
         11    1    3    3    0    0  0.45380871828E+02 -0.53478435368E+02 -0.54677712112E+02  0.88932664297E+02  0.00000000000E+00 0. -1.
        -11    1    4    4    0    0 -0.14170321405E+02 -0.35279369026E+02 -0.11909115675E+02  0.39840418218E+02  0.00000000000E+00 0.  1.
         11    1    4    4    0    0  0.52864597478E+02  0.41741776369E+01  0.42487875847E+02  0.67950783804E+02  0.00000000000E+00 0. -1.
         21    1    1    2  502  501 -0.80190123216E+02  0.60409225978E+02 -0.69288169325E+02  0.12198598630E+03  0.00000000000E+00 0.  1.
<scales pt_clust_5="13000.00000" pt_clust_6="13000.00000" pt_clust_7="13000.00000" pt_clust_8="13000.00000" pt_clust_9="100.39786"></scales>
<clustering>
<clus scale="   90.659">  7  8 -1 -1</clus>
<clus scale="   91.821">  5  6 -1 -1</clus>
<clus scale="  100.398">  2  9  1 -1</clus>
<clus scale="   92.273">  1  7  2 -1</clus>
<clus scale="   92.273">  1  5  2 -1</clus>
</clustering>
</event>
<event>
 9    1  0.1803370E-005  0.9426943E+02  0.7546771E-02  0.1293409E+00
         -2   -1    0    0    0  501 -0.00000000000E+00  0.00000000000E+00  0.53609995098E+02  0.53609995098E+02  0.00000000000E+00 0.  1.
          2   -1    0    0  502    0  0.00000000000E+00 -0.00000000000E+00 -0.27790592773E+03  0.27790592773E+03  0.00000000000E+00 0. -1.
         23    2    1    2    0    0 -0.91840509831E+01 -0.79992000959E+01 -0.21783046336E+02  0.96053888172E+02  0.92755131021E+02 0.  0.
         23    2    1    2    0    0  0.28667909059E+02  0.15379455706E+02 -0.18104006385E+03  0.20554262620E+03  0.91727257670E+02 0.  0.
        -11    1    4    4    0    0 -0.23094847388E+02  0.35029739756E+02 -0.78431616706E+02  0.88949272860E+02  0.00000000000E+00 0. -1.
         11    1    4    4    0    0  0.51762756447E+02 -0.19650284050E+02 -0.10260844715E+03  0.11659335334E+03  0.00000000000E+00 0.  1.
        -13    1    3    3    0    0 -0.12184183569E+02  0.33951224543E+02  0.16052656585E+02  0.39481992866E+02  0.00000000000E+00 0.  1.
         13    1    3    3    0    0  0.30001325862E+01 -0.41950424639E+02 -0.37835702921E+02  0.56571895306E+02  0.00000000000E+00 0. -1.
         21    1    1    2  502  501 -0.19483858076E+02 -0.73802556100E+01 -0.21472822439E+02  0.29919408448E+02  0.00000000000E+00 0. -1.
<scales pt_clust_5="13000.00000" pt_clust_6="13000.00000" pt_clust_7="13000.00000" pt_clust_8="13000.00000" pt_clust_9="20.83480"></scales>
<clustering>
<clus scale="   20.835">  2  9  1 -1</clus>
<clus scale="   91.727">  5  6 -1 -1</clus>
<clus scale="   92.755">  7  8 -1 -1</clus>
<clus scale="   93.258">  2  5  1 -1</clus>
<clus scale="   20.835">  2  5  1 -1</clus>
</clustering>
</event>
<event>
 9    1  0.1803370E-005  0.1045603E+03  0.7546771E-02  0.1271696E+00
         -2   -1    0    0    0  501 -0.00000000000E+00  0.00000000000E+00  0.37005162643E+03  0.37005162643E+03  0.00000000000E+00 0.  1.
          2   -1    0    0  502    0  0.00000000000E+00 -0.00000000000E+00 -0.14264249541E+03  0.14264249541E+03  0.00000000000E+00 0. -1.
         23    2    1    2    0    0  0.40082896767E+02 -0.23546424687E+02  0.32067621897E+03  0.33711760211E+03  0.93026703222E+02 0.  0.
         23    2    1    2    0    0 -0.67539259801E+02  0.14371593160E+02 -0.91404772123E+02  0.14656794127E+03  0.91428850680E+02 0.  0.
        -11    1    3    3    0    0  0.65784412480E+02  0.41877344094E+00  0.24503061492E+03  0.25370803405E+03  0.00000000000E+00 0.  1.
         11    1    3    3    0    0 -0.25701515713E+02 -0.23965198128E+02  0.75645604050E+02  0.83409568056E+02  0.00000000000E+00 0. -1.
        -13    1    4    4    0    0 -0.53299113913E+02 -0.19582416744E+02 -0.10591057839E+02  0.57761900035E+02  0.00000000000E+00 0.  1.
         13    1    4    4    0    0 -0.14240145888E+02  0.33954009904E+02 -0.80813714283E+02  0.88806041234E+02  0.00000000000E+00 0. -1.
         21    1    1    2  502  501  0.27456363034E+02  0.91748315271E+01 -0.18623158233E+01  0.29008578470E+02  0.00000000000E+00 0.  1.
<scales pt_clust_5="13000.00000" pt_clust_6="13000.00000" pt_clust_7="13000.00000" pt_clust_8="13000.00000" pt_clust_9="28.94874"></scales>
<clustering>
<clus scale="   28.949">  2  9  1 -1</clus>
<clus scale="   91.429">  7  8 -1 -1</clus>
<clus scale="   93.027">  5  6 -1 -1</clus>
<clus scale="  103.141">  2  7  1 -1</clus>
<clus scale="   28.949">  2  5  1 -1</clus>
</clustering>
</event>
<event>
 9    1  0.1803370E-005  0.1666359E+03  0.7546771E-02  0.1181427E+00
          2   -1    0    0  502    0  0.00000000000E+00  0.00000000000E+00  0.22655351765E+03  0.22655351765E+03  0.00000000000E+00 0. -1.
         -2   -1    0    0    0  501 -0.00000000000E+00 -0.00000000000E+00 -0.25344202266E+03  0.25344202266E+03  0.00000000000E+00 0.  1.
         23    2    1    2    0    0  0.79389862776E+02 -0.11030498370E+03 -0.12033685916E+03  0.20273689147E+03  0.90284814611E+02 0.  0.
         23    2    1    2    0    0 -0.73112658143E+02  0.12991166826E+03 -0.73824626368E+01  0.17434762421E+03  0.90111547439E+02 0.  0.
        -11    1    3    3    0    0  0.47823534766E+02 -0.28398712903E+01 -0.18496370888E+02  0.51354367706E+02  0.00000000000E+00 0.  1.
         11    1    3    3    0    0  0.31566328009E+02 -0.10746511241E+03 -0.10184048827E+03  0.15138252376E+03  0.00000000000E+00 0. -1.
        -13    1    4    4    0    0 -0.40673647092E+01  0.72345526667E+02 -0.34774135972E+02  0.80372005182E+02  0.00000000000E+00 0.  1.
         13    1    4    4    0    0 -0.69045293434E+02  0.57566141592E+02  0.27391673335E+02  0.93975619026E+02  0.00000000000E+00 0. -1.
         21    1    1    2  502  501 -0.62772046324E+01 -0.19606684562E+02  0.10083081679E+03  0.10291102463E+03  0.00000000000E+00 0. -1.
<scales pt_clust_5="13000.00000" pt_clust_6="13000.00000" pt_clust_7="13000.00000" pt_clust_8="13000.00000" pt_clust_9="20.58702"></scales>
<clustering>
<clus scale="   20.587">  1  9  2 -1</clus>
<clus scale="   90.112">  7  8 -1 -1</clus>
<clus scale="   90.285">  5  6 -1 -1</clus>
<clus scale="  166.542">  1  7  2 -1</clus>
<clus scale="   20.587">  1  5  2 -1</clus>
</clustering>
</event>
<event>
 9    1  0.1803370E-005  0.1306337E+03  0.7546771E-02  0.1226554E+00
          1   -1    0    0  502    0  0.00000000000E+00  0.00000000000E+00  0.60431841811E+03  0.60431841811E+03  0.00000000000E+00 0. -1.
         -1   -1    0    0    0  501 -0.00000000000E+00 -0.00000000000E+00 -0.96685950673E+02  0.96685950673E+02  0.00000000000E+00 0.  1.
         23    2    1    2    0    0 -0.38435543103E+02  0.28945084707E+02 -0.37671707669E+02  0.11053784141E+03  0.92110520152E+02 0.  0.
         23    2    1    2    0    0  0.91495421086E+02 -0.35379754739E+02  0.50746639188E+03  0.52498024278E+03  0.91972698661E+02 0.  0.
        -11    1    3    3    0    0 -0.41764726372E+02 -0.48449045652E+01 -0.57489636269E+02  0.71223758308E+02  0.00000000000E+00 0.  1.
         11    1    3    3    0    0  0.33291832693E+01  0.33789989272E+02  0.19817928600E+02  0.39314083103E+02  0.00000000000E+00 0. -1.
        -11    1    4    4    0    0  0.56993483056E+02 -0.65279484784E+02  0.37445302574E+03  0.38434975833E+03  0.00000000000E+00 0. -1.
         11    1    4    4    0    0  0.34501938030E+02  0.29899730046E+02  0.13301336614E+03  0.14063048445E+03  0.00000000000E+00 0.  1.
         21    1    1    2  502  501 -0.53059877984E+02  0.64346700316E+01  0.37837783227E+02  0.65486284591E+02  0.00000000000E+00 0.  1.
<scales pt_clust_5="13000.00000" pt_clust_6="13000.00000" pt_clust_7="13000.00000" pt_clust_8="13000.00000" pt_clust_9="53.44863"></scales>
<clustering>
<clus scale="   53.449">  2  9  1 -1</clus>
<clus scale="   91.973">  7  8 -1 -1</clus>
<clus scale="   92.111">  5  6 -1 -1</clus>
<clus scale="  130.537">  1  7  2 -1</clus>
<clus scale="  130.537">  1  5  2 -1</clus>
</clustering>
</event>
<event>
 9    1  0.1803370E-005  0.1581690E+03  0.7546771E-02  0.1191195E+00
         -2   -1    0    0    0  501 -0.00000000000E+00  0.00000000000E+00  0.84401384813E+03  0.84401384813E+03  0.00000000000E+00 0.  1.
          2   -1    0    0  502    0  0.00000000000E+00 -0.00000000000E+00 -0.48129806916E+02  0.48129806916E+02  0.00000000000E+00 0. -1.
         23    2    1    2    0    0 -0.11288998933E+03 -0.64221705955E+02  0.52417775727E+03  0.54780978575E+03  0.92003602827E+02 0.  0.
         23    2    1    2    0    0  0.95390286800E+02  0.86003674612E+02  0.27475938243E+03  0.31622666102E+03  0.89502201322E+02 0.  0.
        -11    1    3    3    0    0 -0.56475582509E+02  0.57117936275E+01  0.31617329537E+03  0.32122837470E+03  0.00000000000E+00 0.  1.
         11    1    3    3    0    0 -0.56414406825E+02 -0.69933499582E+02  0.20800446190E+03  0.22658141104E+03  0.00000000000E+00 0. -1.
        -11    1    4    4    0    0 -0.11561951166E+02  0.35884525381E+02  0.80241565091E+02  0.88657129690E+02  0.00000000000E+00 0.  1.
         11    1    4    4    0    0  0.10695223797E+03  0.50119149231E+02  0.19451781734E+03  0.22756953133E+03  0.00000000000E+00 0. -1.
         21    1    1    2  502  501  0.17499702534E+02 -0.21781968657E+02 -0.30530984836E+01  0.28107208287E+02  0.00000000000E+00 0. -1.
<scales pt_clust_5="13000.00000" pt_clust_6="13000.00000" pt_clust_7="13000.00000" pt_clust_8="13000.00000" pt_clust_9="27.94090"></scales>
<clustering>
<clus scale="   27.941">  2  9  1 -1</clus>
<clus scale="   89.502">  7  8 -1 -1</clus>
<clus scale="   92.004">  5  6 -1 -1</clus>
<clus scale="  156.727">  2  7  1 -1</clus>
<clus scale="   27.941">  2  5  1 -1</clus>
</clustering>
</event>
<event>
 9    1  0.1803370E-005  0.1081068E+03  0.7546771E-02  0.1264638E+00
         -1   -1    0    0    0  501 -0.00000000000E+00  0.00000000000E+00  0.18502577548E+03  0.18502577548E+03  0.00000000000E+00 0.  1.
          1   -1    0    0  502    0  0.00000000000E+00 -0.00000000000E+00 -0.18192802886E+03  0.18192802886E+03  0.00000000000E+00 0. -1.
         23    2    1    2    0    0 -0.45382917107E+02  0.39691939622E+02  0.13224458205E+03  0.17022067893E+03  0.88608074221E+02 0.  0.
         23    2    1    2    0    0  0.64837093836E+02 -0.12113688859E+02 -0.11483066863E+03  0.16007282618E+03  0.89925730627E+02 0.  0.
        -11    1    3    3    0    0  0.22216450087E+02  0.31778324287E+02  0.41597171211E+02  0.56866134049E+02  0.00000000000E+00 0. -1.
         11    1    3    3    0    0 -0.67599367195E+02  0.79136153343E+01  0.90647410843E+02  0.11335454488E+03  0.00000000000E+00 0.  1.
        -13    1    4    4    0    0  0.67705471401E+02  0.19202331813E+02 -0.10630715898E+03  0.12749106814E+03  0.00000000000E+00 0. -1.
         13    1    4    4    0    0 -0.28683775653E+01 -0.31316020672E+02 -0.85235096565E+01  0.32581758047E+02  0.00000000000E+00 0.  1.
         21    1    1    2  502  501 -0.19454176728E+02 -0.27578250763E+02 -0.14316166805E+02  0.36660299225E+02  0.00000000000E+00 0. -1.
<scales pt_clust_5="13000.00000" pt_clust_6="13000.00000" pt_clust_7="13000.00000" pt_clust_8="13000.00000" pt_clust_9="33.74944"></scales>
<clustering>
<clus scale="   33.749">  2  9  1 -1</clus>
<clus scale="   88.608">  5  6 -1 -1</clus>
<clus scale="   89.926">  7  8 -1 -1</clus>
<clus scale="  107.013">  1  5  2 -1</clus>
<clus scale="   33.749">  2  5  1 -1</clus>
</clustering>
</event>
<event>
 9    1  0.1803370E-005  0.1618556E+03  0.7546771E-02  0.1208789E+00
          2   -1    0    0  502    0  0.00000000000E+00  0.00000000000E+00  0.10539762765E+04  0.10539762765E+04  0.00000000000E+00 0. -1.
         -2   -1    0    0    0  501 -0.00000000000E+00 -0.00000000000E+00 -0.14243197092E+03  0.14243197092E+03  0.00000000000E+00 0.  1.
         23    2    1    2    0    0 -0.42557733979E+02  0.44297869414E+01 -0.62188812005E+02  0.11759589966E+03  0.90169637597E+02 0.  0.
         23    2    1    2    0    0  0.99498820858E+02 -0.12142619087E+03  0.12765162029E+03  0.22278410876E+03  0.93238874781E+02 0.  0.
        -13    1    4    4    0    0  0.72721719336E+02 -0.79579157296E+02  0.27913167697E+02  0.11135724346E+03  0.00000000000E+00 0.  1.
         13    1    4    4    0    0  0.26777101522E+02 -0.41847033571E+02  0.99738452596E+02  0.11142686530E+03  0.00000000000E+00 0. -1.
        -13    1    3    3    0    0 -0.53215920822E+02 -0.31218901655E+02 -0.46298541337E+02  0.77136949508E+02  0.00000000000E+00 0.  1.
         13    1    3    3    0    0  0.10658186843E+02  0.35648688597E+02 -0.15890270668E+02  0.40458950152E+02  0.00000000000E+00 0. -1.
         21    1    1    2  502  501 -0.56941086880E+02  0.11699640392E+03  0.84608149730E+03  0.85602823901E+03  0.00000000000E+00 0. -1.
<scales pt_clust_5="13000.00000" pt_clust_6="13000.00000" pt_clust_7="13000.00000" pt_clust_8="13000.00000" pt_clust_9="132.30171"></scales>
<clustering>
<clus scale="   90.170">  7  8 -1 -1</clus>
<clus scale="   93.239">  5  6 -1 -1</clus>
<clus scale="   99.807">  2  7  1 -1</clus>
<clus scale="  132.302">  1  9  2 -1</clus>
<clus scale="  132.302">  1  5  2 -1</clus>
</clustering>
</event>
<event>
 9    1  0.1803370E-005  0.9829641E+02  0.7546771E-02  0.1285104E+00
         -1   -1    0    0    0  501 -0.00000000000E+00  0.00000000000E+00  0.31435220096E+02  0.31435220096E+02  0.00000000000E+00 0.  1.
          1   -1    0    0  502    0  0.00000000000E+00 -0.00000000000E+00 -0.59022134931E+03  0.59022134931E+03  0.00000000000E+00 0. -1.
         23    2    1    2    0    0 -0.18632381548E+02  0.60701187080E+02 -0.15953333043E+03  0.19201888755E+03  0.85956790916E+02 0.  0.
         23    2    1    2    0    0  0.42238539046E+02 -0.84947714917E+01 -0.29092331550E+03  0.30708957926E+03  0.88382005321E+02 0.  0.
        -11    1    3    3    0    0  0.87495021463E+01  0.74882213021E+02 -0.10330107093E+03  0.12788671108E+03  0.00000000000E+00 0.  1.
         11    1    3    3    0    0 -0.27381883695E+02 -0.14181025940E+02 -0.56232259499E+02  0.64132176478E+02  0.00000000000E+00 0. -1.
        -13    1    4    4    0    0  0.66668266638E+02  0.91999520624E+01 -0.18116476317E+03  0.19326139891E+03  0.00000000000E+00 0.  1.
         13    1    4    4    0    0 -0.24429727592E+02 -0.17694723554E+02 -0.10975855233E+03  0.11382818035E+03  0.00000000000E+00 0. -1.
         21    1    1    2  502  501 -0.23606157498E+02 -0.52206415589E+02 -0.10832948329E+03  0.12254810259E+03  0.00000000000E+00 0. -1.
<scales pt_clust_5="13000.00000" pt_clust_6="13000.00000" pt_clust_7="13000.00000" pt_clust_8="13000.00000" pt_clust_9="57.29538"></scales>
<clustering>
<clus scale="   57.295">  1  9  2 -1</clus>
<clus scale="   85.957">  5  6 -1 -1</clus>
<clus scale="   88.382">  7  8 -1 -1</clus>
<clus scale="   96.122">  1  5  2 -1</clus>
<clus scale="   98.296">  2  5  1 -1</clus>
</clustering>
</event>
<event>
 9    1  0.4114433E-005  0.1015525E+03  0.7546771E-02  0.1277466E+00
         -1   -1    0    0    0  501 -0.00000000000E+00  0.00000000000E+00  0.24094072527E+03  0.24094072527E+03  0.00000000000E+00 0.  1.
          1   -1    0    0  502    0  0.00000000000E+00 -0.00000000000E+00 -0.21328282903E+03  0.21328282903E+03  0.00000000000E+00 0. -1.
         23    2    1    2    0    0 -0.14082798016E+02  0.41800790298E+02  0.20686393773E+03  0.22996224548E+03  0.90245854989E+02 0.  0.
         23    2    1    2    0    0 -0.69591348101E+00 -0.59461366363E+02 -0.16348109215E+03  0.19637618210E+03  0.91112013584E+02 0.  0.
        -13    1    4    4    0    0 -0.66007745297E+01  0.24021052804E+02 -0.32678103495E+02  0.41090627280E+02  0.00000000000E+00 0.  1.
         13    1    4    4    0    0  0.59048610487E+01 -0.83482419167E+02 -0.13080298865E+03  0.15528555482E+03  0.00000000000E+00 0. -1.
        -13    1    3    3    0    0 -0.46396694274E+02  0.26172389390E+02  0.17146349633E+03  0.17954770335E+03  0.00000000000E+00 0.  1.
         13    1    3    3    0    0  0.32313896258E+02  0.15628400908E+02  0.35400441403E+02  0.50414542127E+02  0.00000000000E+00 0. -1.
         21    1    1    2  502  501  0.14778711497E+02  0.17660576065E+02 -0.15724949350E+02  0.27885126725E+02  0.00000000000E+00 0. -1.
<scales pt_clust_5="13000.00000" pt_clust_6="13000.00000" pt_clust_7="13000.00000" pt_clust_8="13000.00000" pt_clust_9="23.02838"></scales>
<clustering>
<clus scale="   23.028">  2  9  1 -1</clus>
<clus scale="   90.246">  7  8 -1 -1</clus>
<clus scale="   91.112">  5  6 -1 -1</clus>
<clus scale="  100.776">  1  7  2 -1</clus>
<clus scale="   23.028">  2  5  1 -1</clus>
</clustering>
</event>
<event>
 9    1  0.1803370E-005  0.9657854E+02  0.7546771E-02  0.1288419E+00
          1   -1    0    0  502    0  0.00000000000E+00  0.00000000000E+00  0.22996962434E+03  0.22996962434E+03  0.00000000000E+00 0. -1.
         -1   -1    0    0    0  501 -0.00000000000E+00 -0.00000000000E+00 -0.10992208124E+03  0.10992208124E+03  0.00000000000E+00 0.  1.
         23    2    1    2    0    0  0.61540014115E+02 -0.16184256720E+02 -0.92486686159E+01  0.11216465106E+03  0.91903577587E+02 0.  0.
         23    2    1    2    0    0  0.17680224646E+02 -0.24642499828E+02  0.46756356583E+02  0.10625484384E+03  0.90465970497E+02 0.  0.
        -11    1    3    3    0    0  0.85976757768E+02 -0.10577731899E+02 -0.90052161228E+01  0.87091820545E+02  0.00000000000E+00 0. -1.
         11    1    3    3    0    0 -0.24436743653E+02 -0.56065248212E+01 -0.24345249316E+00  0.25072830515E+02  0.00000000000E+00 0.  1.
        -13    1    4    4    0    0 -0.19517047701E+02 -0.13968202603E+02 -0.18556867358E+02  0.30337817342E+02  0.00000000000E+00 0.  1.
         13    1    4    4    0    0  0.37197272348E+02 -0.10674297225E+02  0.65313223940E+02  0.75917026502E+02  0.00000000000E+00 0. -1.
         21    1    1    2  502  501 -0.79220238762E+02  0.40826756548E+02  0.82539855138E+02  0.12147221067E+03  0.00000000000E+00 0.  1.
<scales pt_clust_5="13000.00000" pt_clust_6="13000.00000" pt_clust_7="13000.00000" pt_clust_8="13000.00000" pt_clust_9="89.12166"></scales>
<clustering>
<clus scale="   89.122">  1  9  2 -1</clus>
<clus scale="   90.466">  7  8 -1 -1</clus>
<clus scale="   91.904">  5  6 -1 -1</clus>
<clus scale="   95.212">  1  7  2 -1</clus>
<clus scale="   89.122">  1  5  2 -1</clus>
</clustering>
</event>
<event>
 9    1  0.1803370E-005  0.1172614E+03  0.7546771E-02  0.1248245E+00
          2   -1    0    0  502    0  0.00000000000E+00  0.00000000000E+00  0.25280689341E+03  0.25280689341E+03  0.00000000000E+00 0. -1.
         -2   -1    0    0    0  501 -0.00000000000E+00 -0.00000000000E+00 -0.90764472101E+02  0.90764472101E+02  0.00000000000E+00 0.  1.
         23    2    1    2    0    0  0.49118746385E+02 -0.57939325926E+02  0.73497267355E+01  0.12007625892E+03  0.92707457831E+02 0.  0.
         23    2    1    2    0    0 -0.62930021507E+01  0.71859051630E+02  0.11527729012E+03  0.16365049747E+03  0.91045628824E+02 0.  0.
        -11    1    4    4    0    0  0.10724704143E+02  0.27052956628E+02  0.11187823131E+03  0.11560112622E+03  0.00000000000E+00 0.  1.
         11    1    4    4    0    0 -0.17017706294E+02  0.44806095002E+02  0.33990588045E+01  0.48049371251E+02  0.00000000000E+00 0. -1.
        -13    1    3    3    0    0  0.34908752352E+02  0.12006326876E+02  0.27360543897E+02  0.45949670708E+02  0.00000000000E+00 0. -1.
         13    1    3    3    0    0  0.14209994033E+02 -0.69945652802E+02 -0.20010817161E+02  0.74126588211E+02  0.00000000000E+00 0.  1.
         21    1    1    2  502  501 -0.42825744234E+02 -0.13919725704E+02  0.39415404460E+02  0.59844609128E+02  0.00000000000E+00 0.  1.
<scales pt_clust_5="13000.00000" pt_clust_6="13000.00000" pt_clust_7="13000.00000" pt_clust_8="13000.00000" pt_clust_9="45.03114"></scales>
<clustering>
<clus scale="   45.031">  1  9  2 -1</clus>
<clus scale="   91.046">  5  6 -1 -1</clus>
<clus scale="   92.707">  7  8 -1 -1</clus>
<clus scale="  115.952">  1  5  2 -1</clus>
<clus scale="   45.031">  1  5  2 -1</clus>
</clustering>
</event>
<event>
 9    1  0.1803370E-005  0.1183849E+03  0.7546771E-02  0.1248054E+00
          3   -1    0    0  502    0  0.00000000000E+00  0.00000000000E+00  0.71581418910E+02  0.71581418910E+02  0.00000000000E+00 0. -1.
         -3   -1    0    0    0  501 -0.00000000000E+00 -0.00000000000E+00 -0.32885902371E+03  0.32885902371E+03  0.00000000000E+00 0.  1.
         23    2    1    2    0    0  0.34658264029E+02  0.48290428614E+02 -0.15145742494E+03  0.19010591456E+03  0.98324698927E+02 0.  0.
         23    2    1    2    0    0 -0.75106931863E+02 -0.31205003029E+02 -0.11180379047E+03  0.16601963110E+03  0.91910972794E+02 0.  0.
        -11    1    3    3    0    0  0.57432563919E+02 -0.33724210890E+01 -0.64530847199E+02  0.86452893894E+02  0.00000000000E+00 0. -1.
         11    1    3    3    0    0 -0.22774299891E+02  0.51662849703E+02 -0.86926577739E+02  0.10365302066E+03  0.00000000000E+00 0.  1.
        -13    1    4    4    0    0 -0.41667900120E+02 -0.57945368731E+02 -0.97594632342E+02  0.12090736917E+03  0.00000000000E+00 0.  1.
         13    1    4    4    0    0 -0.33439031743E+02  0.26740365702E+02 -0.14209158127E+02  0.45112261931E+02  0.00000000000E+00 0. -1.
         21    1    1    2  502  501  0.40448667835E+02 -0.17085425585E+02  0.59836106057E+01  0.44314896963E+02  0.00000000000E+00 0. -1.
<scales pt_clust_5="13000.00000" pt_clust_6="13000.00000" pt_clust_7="13000.00000" pt_clust_8="13000.00000" pt_clust_9="43.90907"></scales>
<clustering>
<clus scale="   43.909">  1  9  2 -1</clus>
<clus scale="   91.911">  7  8 -1 -1</clus>
<clus scale="   98.325">  5  6 -1 -1</clus>
<clus scale="  113.114">  1  7  2 -1</clus>
<clus scale="   43.909">  1  5  2 -1</clus>
</clustering>
</event>
<event>
 9    1  0.1803370E-005  0.1318768E+03  0.7546771E-02  0.1225320E+00
         -1   -1    0    0    0  501 -0.00000000000E+00  0.00000000000E+00  0.82507847903E+03  0.82507847903E+03  0.00000000000E+00 0.  1.
          1   -1    0    0  502    0  0.00000000000E+00 -0.00000000000E+00 -0.31284219066E+02  0.31284219066E+02  0.00000000000E+00 0. -1.
         23    2    1    2    0    0  0.98928112084E+02  0.17573321163E+02  0.60359033214E+03  0.61864205272E+03  0.91110413076E+02 0.  0.
         23    2    1    2    0    0 -0.78359537340E+02 -0.24646420553E+02  0.16136164862E+03  0.20159624819E+03  0.88632965092E+02 0.  0.
        -11    1    4    4    0    0  0.64001780227E+00  0.20702600801E+02  0.68308549972E+02  0.71379726127E+02  0.00000000000E+00 0.  1.
         11    1    4    4    0    0 -0.78999555142E+02 -0.45349021354E+02  0.93053098650E+02  0.13021652207E+03  0.00000000000E+00 0. -1.
        -11    1    3    3    0    0  0.44101212748E+02 -0.36049663810E+02  0.20639008468E+03  0.21410596041E+03  0.00000000000E+00 0.  1.
         11    1    3    3    0    0  0.54826899336E+02  0.53622984973E+02  0.39720024745E+03  0.40453609231E+03  0.00000000000E+00 0. -1.
         21    1    1    2  502  501 -0.20568574744E+02  0.70730993904E+01  0.28842279212E+02  0.36124397187E+02  0.00000000000E+00 0. -1.
<scales pt_clust_5="13000.00000" pt_clust_6="13000.00000" pt_clust_7="13000.00000" pt_clust_8="13000.00000" pt_clust_9="21.75075"></scales>
<clustering>
<clus scale="   21.751">  2  9  1 -1</clus>
<clus scale="   88.633">  5  6 -1 -1</clus>
<clus scale="   91.110">  7  8 -1 -1</clus>
<clus scale="  130.178">  2  5  1 -1</clus>
<clus scale="   21.751">  2  5  1 -1</clus>
</clustering>
</event>
<event>
 9    1  0.1803370E-005  0.1004219E+03  0.7546771E-02  0.1279882E+00
         -1   -1    0    0    0  501 -0.00000000000E+00  0.00000000000E+00  0.22889731630E+03  0.22889731630E+03  0.00000000000E+00 0.  1.
          1   -1    0    0  502    0  0.00000000000E+00 -0.00000000000E+00 -0.81736772580E+02  0.81736772580E+02  0.00000000000E+00 0. -1.
         23    2    1    2    0    0  0.83460424077E+01 -0.47444594294E+02  0.13285930630E+03  0.16868662888E+03  0.92102863916E+02 0.  0.
         23    2    1    2    0    0 -0.13925331541E+02  0.23536142167E+02  0.42807348968E+02  0.10432644266E+03  0.91124489938E+02 0.  0.
        -11    1    3    3    0    0 -0.39356107758E+02 -0.35550548118E+02  0.53495441401E+02  0.75329323241E+02  0.00000000000E+00 0. -1.
         11    1    3    3    0    0  0.47702150165E+02 -0.11894046176E+02  0.79363864896E+02  0.93357305638E+02  0.00000000000E+00 0.  1.
        -13    1    4    4    0    0  0.33300706525E+02  0.11046777186E+02  0.42973028027E+02  0.55476566936E+02  0.00000000000E+00 0.  1.
         13    1    4    4    0    0 -0.47226038066E+02  0.12489364981E+02 -0.16567905845E+00  0.48849875727E+02  0.00000000000E+00 0. -1.
         21    1    1    2  502  501  0.55792891335E+01  0.23908452127E+02 -0.28506111543E+02  0.37621017340E+02  0.00000000000E+00 0. -1.
<scales pt_clust_5="13000.00000" pt_clust_6="13000.00000" pt_clust_7="13000.00000" pt_clust_8="13000.00000" pt_clust_9="24.55082"></scales>
<clustering>
<clus scale="   24.551">  2  9  1 -1</clus>
<clus scale="   91.124">  7  8 -1 -1</clus>
<clus scale="   92.103">  5  6 -1 -1</clus>
<clus scale="   99.525">  2  7  1 -1</clus>
<clus scale="   24.551">  2  5  1 -1</clus>
</clustering>
</event>
<event>
 9    1  0.1803370E-005  0.1921322E+03  0.7546771E-02  0.1161228E+00
          1   -1    0    0  502    0  0.00000000000E+00  0.00000000000E+00  0.58852179780E+03  0.58852179780E+03  0.00000000000E+00 0. -1.
         -1   -1    0    0    0  501 -0.00000000000E+00 -0.00000000000E+00 -0.92953667525E+02  0.92953667525E+02  0.00000000000E+00 0.  1.
         23    2    1    2    0    0 -0.13031099521E+03 -0.81631846243E+02  0.89305576836E+02  0.21613291756E+03  0.12285454085E+03 0.  0.
         23    2    1    2    0    0  0.86609068499E+02  0.11318937410E+03  0.26007884144E+03  0.30953685590E+03  0.88651543928E+02 0.  0.
        -11    1    3    3    0    0 -0.21329262680E+02  0.15377794168E+02 -0.20651693449E+02  0.33435107929E+02  0.00000000000E+00 0.  1.
         11    1    3    3    0    0 -0.10898173253E+03 -0.97009640410E+02  0.10995727028E+03  0.18269780964E+03  0.00000000000E+00 0. -1.
        -13    1    4    4    0    0  0.30649681680E+02 -0.96516522727E+01  0.62055904405E+02  0.69881990886E+02  0.00000000000E+00 0. -1.
         13    1    4    4    0    0  0.55959386819E+02  0.12284102637E+03  0.19802293703E+03  0.23965486501E+03  0.00000000000E+00 0.  1.
         21    1    1    2  502  501  0.43701926708E+02 -0.31557527855E+02  0.14618371200E+03  0.15580569187E+03  0.00000000000E+00 0. -1.
<scales pt_clust_5="13000.00000" pt_clust_6="13000.00000" pt_clust_7="13000.00000" pt_clust_8="13000.00000" pt_clust_9="53.90488"></scales>
<clustering>
<clus scale="   53.905">  1  9  2 -1</clus>
<clus scale="   88.652">  7  8 -1 -1</clus>
<clus scale="  122.855">  5  6 -1 -1</clus>
<clus scale="  172.281">  1  7  2 -1</clus>
<clus scale="   53.905">  1  5  2 -1</clus>
</clustering>
</event>
<event>
 9    1  0.1803370E-005  0.1112736E+03  0.7546771E-02  0.1267895E+00
         -2   -1    0    0    0  501 -0.00000000000E+00  0.00000000000E+00  0.59555776662E+02  0.59555776662E+02  0.00000000000E+00 0.  1.
          2   -1    0    0  502    0  0.00000000000E+00 -0.00000000000E+00 -0.30462059728E+03  0.30462059728E+03  0.00000000000E+00 0. -1.
         23    2    1    2    0    0  0.73521104537E+01  0.14890855446E+02 -0.33542009255E+02  0.11577949999E+03  0.10956292772E+03 0.  0.
         23    2    1    2    0    0  0.21851233383E+02 -0.29894801958E+02 -0.16095860533E+03  0.18810846185E+03  0.90033022849E+02 0.  0.
        -11    1    4    4    0    0  0.44068499139E+02 -0.48752343571E+02 -0.90349641133E+02  0.11172234008E+03  0.00000000000E+00 0. -1.
         11    1    4    4    0    0 -0.22217265756E+02  0.18857541613E+02 -0.70608964198E+02  0.76386121766E+02  0.00000000000E+00 0.  1.
        -13    1    3    3    0    0  0.44301738367E+02  0.42175036283E+02 -0.33724126838E+02  0.69847651635E+02  0.00000000000E+00 0. -1.
         13    1    3    3    0    0 -0.36949627914E+02 -0.27284180837E+02  0.18211758362E+00  0.45931848360E+02  0.00000000000E+00 0.  1.
         21    1    1    2  502  501 -0.29203343837E+02  0.15003946512E+02 -0.50564206031E+02  0.60288412101E+02  0.00000000000E+00 0. -1.
<scales pt_clust_5="13000.00000" pt_clust_6="13000.00000" pt_clust_7="13000.00000" pt_clust_8="13000.00000" pt_clust_9="32.83221"></scales>
<clustering>
<clus scale="   32.832">  2  9  1 -1</clus>
<clus scale="   90.033">  5  6 -1 -1</clus>
<clus scale="   92.107">  2  5  1 -1</clus>
<clus scale="  109.563">  7  8 -1 -1</clus>
<clus scale="   32.832">  2  5  1 -1</clus>
</clustering>
</event>
<event>
 9    1  0.1803370E-005  0.9518784E+02  0.7546771E-02  0.1290865E+00
         -1   -1    0    0    0  501 -0.00000000000E+00  0.00000000000E+00  0.21677820190E+03  0.21677820190E+03  0.00000000000E+00 0.  1.
          1   -1    0    0  502    0  0.00000000000E+00 -0.00000000000E+00 -0.77753148138E+02  0.77753148138E+02  0.00000000000E+00 0. -1.
         23    2    1    2    0    0  0.66302489289E+01 -0.27694727544E+02  0.14213350219E+03  0.17116424475E+03  0.91018174567E+02 0.  0.
         23    2    1    2    0    0 -0.30225511586E+02  0.16503550484E+02 -0.43949999886E+01  0.97220708233E+02  0.90810799772E+02 0.  0.
        -11    1    4    4    0    0 -0.25525449355E+02  0.53092307050E+02 -0.10474882794E+02  0.59833642729E+02  0.00000000000E+00 0. -1.
         11    1    4    4    0    0 -0.47000622314E+01 -0.36588756567E+02  0.60798828055E+01  0.37387065504E+02  0.00000000000E+00 0.  1.
        -13    1    3    3    0    0  0.35536554006E+02 -0.53175596758E+01  0.15100699852E+02  0.38976329324E+02  0.00000000000E+00 0. -1.
         13    1    3    3    0    0 -0.28906305077E+02 -0.22377167868E+02  0.12703280234E+03  0.13218791543E+03  0.00000000000E+00 0.  1.
         21    1    1    2  502  501  0.23595262657E+02  0.11191177060E+02  0.12865515574E+01  0.26146397051E+02  0.00000000000E+00 0.  1.
<scales pt_clust_5="13000.00000" pt_clust_6="13000.00000" pt_clust_7="13000.00000" pt_clust_8="13000.00000" pt_clust_9="26.11473"></scales>
<clustering>
<clus scale="   26.115">  2  9  1 -1</clus>
<clus scale="   90.811">  5  6 -1 -1</clus>
<clus scale="   91.018">  7  8 -1 -1</clus>
<clus scale="   94.990">  2  5  1 -1</clus>
<clus scale="   26.115">  2  5  1 -1</clus>
</clustering>
</event>
<event>
 9    1  0.1803370E-005  0.1929634E+03  0.7546771E-02  0.1182956E+00
          2   -1    0    0  502    0  0.00000000000E+00  0.00000000000E+00  0.11705683721E+04  0.11705683721E+04  0.00000000000E+00 0. -1.
         -2   -1    0    0    0  501 -0.00000000000E+00 -0.00000000000E+00 -0.76275075659E+02  0.76275075659E+02  0.00000000000E+00 0.  1.
         23    2    1    2    0    0 -0.44033024614E+02  0.33750300321E+02  0.13392812105E+03  0.16934743007E+03  0.87543248944E+02 0.  0.
         23    2    1    2    0    0  0.15414377629E+03 -0.14965057067E+03  0.22620651083E+03  0.32613312597E+03  0.95067519378E+02 0.  0.
        -13    1    4    4    0    0  0.11210545358E+03 -0.10893511191E+03  0.21615405165E+03  0.26675281699E+03  0.00000000000E+00 0. -1.
         13    1    4    4    0    0  0.42038322707E+02 -0.40715458762E+02  0.10052459179E+02  0.59380308973E+02  0.00000000000E+00 0.  1.
        -13    1    3    3    0    0  0.77589591737E+01  0.44427965273E+02  0.89734990780E+02  0.10043114117E+03  0.00000000000E+00 0.  1.
         13    1    3    3    0    0 -0.51791983788E+02 -0.10677664952E+02  0.44193130272E+02  0.68916288907E+02  0.00000000000E+00 0. -1.
         21    1    1    2  502  501 -0.11011075168E+03  0.11590027035E+03  0.73415866454E+03  0.75136289170E+03  0.00000000000E+00 0. -1.
<scales pt_clust_5="13000.00000" pt_clust_6="13000.00000" pt_clust_7="13000.00000" pt_clust_8="13000.00000" pt_clust_9="167.91978"></scales>
<clustering>
<clus scale="   87.543">  7  8 -1 -1</clus>
<clus scale="   95.068">  5  6 -1 -1</clus>
<clus scale="  103.643">  2  7  1 -1</clus>
<clus scale="  167.920">  1  9  2 -1</clus>
<clus scale="  167.920">  1  5  2 -1</clus>
</clustering>
</event>
<event>
 9    1  0.1803370E-005  0.9363606E+02  0.7546771E-02  0.1294305E+00
          4   -1    0    0  502    0  0.00000000000E+00  0.00000000000E+00  0.26189818667E+03  0.26189818667E+03  0.00000000000E+00 0. -1.
         -4   -1    0    0    0  501 -0.00000000000E+00 -0.00000000000E+00 -0.67751630740E+02  0.67751630740E+02  0.00000000000E+00 0.  1.
         23    2    1    2    0    0  0.27436240062E+01  0.97390458510E+01  0.19375379784E+02  0.95769185444E+02  0.93241380578E+02 0.  0.
         23    2    1    2    0    0 -0.10467838044E+02  0.39875662052E+02  0.93221710542E+02  0.13811217128E+03  0.93193564589E+02 0.  0.
        -13    1    4    4    0    0 -0.48411136621E+02  0.24110532768E+01  0.41166761425E+02  0.63593659850E+02  0.00000000000E+00 0.  1.
         13    1    4    4    0    0  0.37943298577E+02  0.37464608775E+02  0.52054949117E+02  0.74518511426E+02  0.00000000000E+00 0. -1.
        -13    1    3    3    0    0  0.47147683761E+01  0.51632968714E+02  0.10896198790E+02  0.52980370395E+02  0.00000000000E+00 0. -1.
         13    1    3    3    0    0 -0.19711443699E+01 -0.41893922863E+02  0.84791809933E+01  0.42788815049E+02  0.00000000000E+00 0.  1.
         21    1    1    2  502  501  0.77242140376E+01 -0.49614707903E+02  0.81549465606E+02  0.95768460692E+02  0.00000000000E+00 0.  1.
<scales pt_clust_5="13000.00000" pt_clust_6="13000.00000" pt_clust_7="13000.00000" pt_clust_8="13000.00000" pt_clust_9="50.21238"></scales>
<clustering>
<clus scale="   50.212">  1  9  2 -1</clus>
<clus scale="   93.194">  5  6 -1 -1</clus>
<clus scale="   93.241">  7  8 -1 -1</clus>
<clus scale="   93.588">  1  5  2 -1</clus>
<clus scale="   50.212">  1  5  2 -1</clus>
</clustering>
</event>
<event>
 9    1  0.1803370E-005  0.9839698E+02  0.7546771E-02  0.1284541E+00
         -1   -1    0    0    0  501 -0.00000000000E+00  0.00000000000E+00  0.71837347323E+02  0.71837347323E+02  0.00000000000E+00 0.  1.
          1   -1    0    0  502    0  0.00000000000E+00 -0.00000000000E+00 -0.17271977972E+03  0.17271977972E+03  0.00000000000E+00 0. -1.
         23    2    1    2    0    0 -0.12791181273E+02  0.35937096958E+02 -0.24435368740E+02  0.10360455123E+03  0.93175782986E+02 0.  0.
         23    2    1    2    0    0  0.21606636589E+02 -0.14540882551E+02 -0.63804122181E+02  0.11458300599E+03  0.91542423194E+02 0.  0.
        -11    1    3    3    0    0 -0.29626305951E+02 -0.21275481939E+02  0.54808188835E+01  0.36883648296E+02  0.00000000000E+00 0.  1.
         11    1    3    3    0    0  0.16835124677E+02  0.57212578897E+02 -0.29916187623E+02  0.66720902938E+02  0.00000000000E+00 0. -1.
        -13    1    4    4    0    0  0.12858436748E+02  0.33188425335E+02 -0.54625985856E+02  0.65198230824E+02  0.00000000000E+00 0. -1.
         13    1    4    4    0    0  0.87481998408E+01 -0.47729307886E+02 -0.91781363248E+01  0.49384775166E+02  0.00000000000E+00 0.  1.
         21    1    1    2  502  501 -0.88154553156E+01 -0.21396214407E+02 -0.12642941481E+02  0.26369569823E+02  0.00000000000E+00 0.  1.
<scales pt_clust_5="13000.00000" pt_clust_6="13000.00000" pt_clust_7="13000.00000" pt_clust_8="13000.00000" pt_clust_9="23.14109"></scales>
<clustering>
<clus scale="   23.141">  2  9  1 -1</clus>
<clus scale="   91.542">  7  8 -1 -1</clus>
<clus scale="   93.176">  5  6 -1 -1</clus>
<clus scale="   96.852">  2  7  1 -1</clus>
<clus scale="   23.141">  2  5  1 -1</clus>
</clustering>
</event>
<event>
 9    1  0.1803370E-005  0.2481092E+03  0.7546771E-02  0.1114660E+00
         -1   -1    0    0    0  501 -0.00000000000E+00  0.00000000000E+00  0.25134932271E+03  0.25134932271E+03  0.00000000000E+00 0.  1.
          1   -1    0    0  502    0  0.00000000000E+00 -0.00000000000E+00 -0.44562089376E+03  0.44562089376E+03  0.00000000000E+00 0. -1.
         23    2    1    2    0    0 -0.23890897865E+03  0.10618215855E+03  0.70432346629E+02  0.28717784587E+03  0.95698739969E+02 0.  0.
         23    2    1    2    0    0  0.20551376646E+03 -0.80807849189E+02 -0.27679226136E+03  0.36614350091E+03  0.93173443708E+02 0.  0.
        -11    1    4    4    0    0  0.12644128377E+03 -0.94909749799E+01 -0.10793531930E+03  0.16651579505E+03  0.00000000000E+00 0.  1.
         11    1    4    4    0    0  0.79072482694E+02 -0.71316874209E+02 -0.16885694206E+03  0.19962770586E+03  0.00000000000E+00 0. -1.
        -13    1    3    3    0    0 -0.14538474674E+03  0.10988849115E+03  0.64767316999E+02  0.19340892023E+03  0.00000000000E+00 0.  1.
         13    1    3    3    0    0 -0.93524231905E+02 -0.37063325968E+01  0.56650296297E+01  0.93768925639E+02  0.00000000000E+00 0. -1.
         21    1    1    2  502  501  0.33395212184E+02 -0.25374309362E+02  0.12088343681E+02  0.43648869691E+02  0.00000000000E+00 0.  1.
<scales pt_clust_5="13000.00000" pt_clust_6="13000.00000" pt_clust_7="13000.00000" pt_clust_8="13000.00000" pt_clust_9="41.94158"></scales>
<clustering>
<clus scale="   41.942">  1  9  2 -1</clus>
<clus scale="   93.173">  5  6 -1 -1</clus>
<clus scale="   95.699">  7  8 -1 -1</clus>
<clus scale="  247.146">  2  5  1 -1</clus>
<clus scale="  247.146">  2  5  1 -1</clus>
</clustering>
</event>
<event>
 9    1  0.1803370E-005  0.9292041E+02  0.7546771E-02  0.1296633E+00
          4   -1    0    0  502    0  0.00000000000E+00  0.00000000000E+00  0.72450620079E+02  0.72450620079E+02  0.00000000000E+00 0. -1.
         -4   -1    0    0    0  501 -0.00000000000E+00 -0.00000000000E+00 -0.19923592107E+03  0.19923592107E+03  0.00000000000E+00 0.  1.
         23    2    1    2    0    0  0.16889378163E+01 -0.70232857508E+01 -0.11590507474E+03  0.14808684368E+03  0.91888779882E+02 0.  0.
         23    2    1    2    0    0  0.12934444995E+01  0.29664590913E+02 -0.22427070713E+02  0.98009603274E+02  0.90671097271E+02 0.  0.
        -11    1    4    4    0    0  0.29120293093E+02  0.52043207347E+02 -0.12288863009E+02  0.60889268798E+02  0.00000000000E+00 0.  1.
         11    1    4    4    0    0 -0.27826848593E+02 -0.22378616434E+02 -0.10138207704E+02  0.37120334475E+02  0.00000000000E+00 0. -1.
        -13    1    3    3    0    0 -0.85963001410E+01  0.39809495223E+02 -0.73721943026E+02  0.84223614085E+02  0.00000000000E+00 0.  1.
         13    1    3    3    0    0  0.10285237957E+02 -0.46832780974E+02 -0.42183131712E+02  0.63863229597E+02  0.00000000000E+00 0. -1.
         21    1    1    2  502  501 -0.29823823158E+01 -0.22641305162E+02  0.11546844462E+02  0.25590094192E+02  0.00000000000E+00 0. -1.
<scales pt_clust_5="13000.00000" pt_clust_6="13000.00000" pt_clust_7="13000.00000" pt_clust_8="13000.00000" pt_clust_9="22.83688"></scales>
<clustering>
<clus scale="   22.837">  1  9  2 -1</clus>
<clus scale="   90.671">  5  6 -1 -1</clus>
<clus scale="   91.716">  1  5  2 -1</clus>
<clus scale="   91.889">  7  8 -1 -1</clus>
<clus scale="   22.837">  1  5  2 -1</clus>
</clustering>
</event>
<event>
 9    1  0.1803370E-005  0.1405552E+03  0.7546771E-02  0.1216326E+00
          1   -1    0    0  502    0  0.00000000000E+00  0.00000000000E+00  0.64057550986E+03  0.64057550986E+03  0.00000000000E+00 0. -1.
         -1   -1    0    0    0  501 -0.00000000000E+00 -0.00000000000E+00 -0.64285644040E+02  0.64285644040E+02  0.00000000000E+00 0.  1.
         23    2    1    2    0    0  0.72237885463E+02  0.56878685830E+02  0.41700780475E+02  0.13601446643E+03  0.91145394778E+02 0.  0.
         23    2    1    2    0    0 -0.46837063099E+02 -0.81179561298E+02  0.49971295624E+03  0.51932821913E+03  0.10585333673E+03 0.  0.
        -13    1    3    3    0    0  0.31202197775E+02 -0.13461026080E+02  0.42702542301E+02  0.54573651959E+02  0.00000000000E+00 0. -1.
         13    1    3    3    0    0  0.41035687688E+02  0.70339711911E+02 -0.10017618261E+01  0.81440814476E+02  0.00000000000E+00 0.  1.
        -13    1    4    4    0    0  0.22021859379E+02  0.11815369230E+02  0.10975927063E+03  0.11256848018E+03  0.00000000000E+00 0.  1.
         13    1    4    4    0    0 -0.68858922478E+02 -0.92994930529E+02  0.38995368561E+03  0.40675973895E+03  0.00000000000E+00 0. -1.
         21    1    1    2  502  501 -0.25400822364E+02  0.24300875468E+02  0.34876129112E+02  0.49518468343E+02  0.00000000000E+00 0.  1.
<scales pt_clust_5="13000.00000" pt_clust_6="13000.00000" pt_clust_7="13000.00000" pt_clust_8="13000.00000" pt_clust_9="35.15301"></scales>
<clustering>
<clus scale="   35.153">  2  9  1 -1</clus>
<clus scale="   91.145">  5  6 -1 -1</clus>
<clus scale="  105.853">  7  8 -1 -1</clus>
<clus scale="  129.840">  2  5  1 -1</clus>
<clus scale="  140.555">  1  5  2 -1</clus>
</clustering>
</event>
<event>
 9    1  0.1803370E-005  0.1221654E+03  0.7546771E-02  0.1244162E+00
         -2   -1    0    0    0  501 -0.00000000000E+00  0.00000000000E+00  0.42127991244E+03  0.42127991244E+03  0.00000000000E+00 0.  1.
          2   -1    0    0  502    0  0.00000000000E+00 -0.00000000000E+00 -0.68363269969E+02  0.68363269969E+02  0.00000000000E+00 0. -1.
         23    2    1    2    0    0  0.99171520119E+01 -0.81133278039E+02  0.20972736831E+03  0.24221685881E+03  0.89456575874E+02 0.  0.
         23    2    1    2    0    0  0.53461088852E+02  0.32164242714E+02  0.70588453631E+02  0.13932615256E+03  0.10264706752E+03 0.  0.
        -11    1    4    4    0    0  0.45564808699E+02  0.11382774453E+02  0.95203821183E+02  0.10615783963E+03  0.00000000000E+00 0.  1.
         11    1    4    4    0    0  0.78962801531E+01  0.20781468261E+02 -0.24615367552E+02  0.33168312936E+02  0.00000000000E+00 0. -1.
        -11    1    3    3    0    0  0.46527876967E+02 -0.63234968388E+02  0.15740265932E+03  0.17589514411E+03  0.00000000000E+00 0. -1.
         11    1    3    3    0    0 -0.36610724955E+02 -0.17898309651E+02  0.52324708992E+02  0.66321714704E+02  0.00000000000E+00 0.  1.
         21    1    1    2  502  501 -0.63378240864E+02  0.48969035325E+02  0.72600820537E+02  0.10810017104E+03  0.00000000000E+00 0.  1.
<scales pt_clust_5="13000.00000" pt_clust_6="13000.00000" pt_clust_7="13000.00000" pt_clust_8="13000.00000" pt_clust_9="80.09225"></scales>
<clustering>
<clus scale="   80.092">  2  9  1 -1</clus>
<clus scale="   89.457">  7  8 -1 -1</clus>
<clus scale="  102.647">  5  6 -1 -1</clus>
<clus scale="  111.312">  1  7  2 -1</clus>
<clus scale="   80.092">  2  5  1 -1</clus>
</clustering>
</event>
<event>
 9    1  0.1803370E-005  0.1142748E+03  0.7546771E-02  0.1253629E+00
         -1   -1    0    0    0  501 -0.00000000000E+00  0.00000000000E+00  0.21400774836E+03  0.21400774836E+03  0.00000000000E+00 0.  1.
          1   -1    0    0  502    0  0.00000000000E+00 -0.00000000000E+00 -0.15634085809E+03  0.15634085809E+03  0.00000000000E+00 0. -1.
         23    2    1    2    0    0 -0.45974476901E+02  0.22627123203E+02  0.57300302698E+02  0.12203046713E+03  0.94775898772E+02 0.  0.
         23    2    1    2    0    0  0.45441206982E+02  0.81984341305E+02 -0.37548737884E+02  0.13704633342E+03  0.92657726474E+02 0.  0.
        -11    1    4    4    0    0  0.47475623316E+02  0.30700843153E+01 -0.33146520135E+02  0.57983204671E+02  0.00000000000E+00 0.  1.
         11    1    4    4    0    0 -0.20344163338E+01  0.78914256990E+02 -0.44022177492E+01  0.79063128746E+02  0.00000000000E+00 0. -1.
        -13    1    3    3    0    0  0.15523014903E+02  0.30596457912E+02 -0.43550371520E+01  0.34584296683E+02  0.00000000000E+00 0.  1.
         13    1    3    3    0    0 -0.61497491804E+02 -0.79693347096E+01  0.61655339850E+02  0.87446170447E+02  0.00000000000E+00 0. -1.
         21    1    1    2  502  501  0.53326991901E+00 -0.10461146451E+03  0.37915325461E+02  0.11127180590E+03  0.00000000000E+00 0.  1.
<scales pt_clust_5="13000.00000" pt_clust_6="13000.00000" pt_clust_7="13000.00000" pt_clust_8="13000.00000" pt_clust_9="104.61282"></scales>
<clustering>
<clus scale="   92.658">  5  6 -1 -1</clus>
<clus scale="   94.776">  7  8 -1 -1</clus>
<clus scale="  104.613">  1  9  2 -1</clus>
<clus scale="  112.524">  2  5  1 -1</clus>
<clus scale="  112.524">  2  5  1 -1</clus>
</clustering>
</event>
<event>
 9    1  0.1803370E-005  0.1595171E+03  0.7546771E-02  0.1189858E+00
         -1   -1    0    0    0  501 -0.00000000000E+00  0.00000000000E+00  0.79874670700E+02  0.79874670700E+02  0.00000000000E+00 0.  1.
          1   -1    0    0  502    0  0.00000000000E+00 -0.00000000000E+00 -0.94188885185E+03  0.94188885185E+03  0.00000000000E+00 0. -1.
         23    2    1    2    0    0  0.11526015537E+03 -0.36297310773E+02 -0.39356366292E+02  0.15601197991E+03  0.90489867521E+02 0.  0.
         23    2    1    2    0    0 -0.17920317479E+03  0.22722137666E+02 -0.59596273510E+03  0.62982008174E+03  0.94189597795E+02 0.  0.
        -11    1    3    3    0    0  0.38192888143E+02 -0.36873991295E+02 -0.56001284913E+02  0.77165613136E+02  0.00000000000E+00 0. -1.
         11    1    3    3    0    0  0.77067267228E+02  0.57668052142E+00  0.16644918621E+02  0.78846366779E+02  0.00000000000E+00 0.  1.
        -11    1    4    4    0    0 -0.13336860046E+03  0.57856948092E+02 -0.40414870434E+03  0.42950062311E+03  0.00000000000E+00 0. -1.
         11    1    4    4    0    0 -0.45834574330E+02 -0.35134810425E+02 -0.19181403076E+03  0.20031945862E+03  0.00000000000E+00 0.  1.
         21    1    1    2  502  501  0.63943019416E+02  0.13575173107E+02 -0.22669507975E+03  0.23593146089E+03  0.00000000000E+00 0.  1.
<scales pt_clust_5="13000.00000" pt_clust_6="13000.00000" pt_clust_7="13000.00000" pt_clust_8="13000.00000" pt_clust_9="65.36815"></scales>
<clustering>
<clus scale="   65.368">  2  9  1 -1</clus>
<clus scale="   90.490">  5  6 -1 -1</clus>
<clus scale="   94.190">  7  8 -1 -1</clus>
<clus scale="  157.361">  1  5  2 -1</clus>
<clus scale="   65.368">  2  5  1 -1</clus>
</clustering>
</event>
<event>
 9    1  0.1803370E-005  0.1670378E+03  0.7546771E-02  0.1181507E+00
         -3   -1    0    0    0  501 -0.00000000000E+00  0.00000000000E+00  0.97759964083E+03  0.97759964083E+03  0.00000000000E+00 0.  1.
          3   -1    0    0  502    0  0.00000000000E+00 -0.00000000000E+00 -0.38671856831E+02  0.38671856831E+02  0.00000000000E+00 0. -1.
         23    2    1    2    0    0 -0.78597133309E+02 -0.92078194178E+02  0.42003555354E+03  0.44683806442E+03  0.92620118585E+02 0.  0.
         23    2    1    2    0    0  0.99013843243E+02  0.13335207460E+03  0.42204254982E+03  0.46219428046E+03  0.88978211252E+02 0.  0.
        -11    1    3    3    0    0 -0.45168431273E+02 -0.29820432440E+02  0.63817866023E+02  0.83678942383E+02  0.00000000000E+00 0.  1.
         11    1    3    3    0    0 -0.33428702036E+02 -0.62257761738E+02  0.35621768752E+03  0.36315912204E+03  0.00000000000E+00 0. -1.
        -13    1    4    4    0    0  0.80429072158E+02  0.41126870614E+02  0.25433511915E+03  0.26990110776E+03  0.00000000000E+00 0.  1.
         13    1    4    4    0    0  0.18584771085E+02  0.92225203989E+02  0.16770743067E+03  0.19229317270E+03  0.00000000000E+00 0. -1.
         21    1    1    2  502  501 -0.20416709934E+02 -0.41273880424E+02  0.96849680632E+02  0.10723915278E+03  0.00000000000E+00 0. -1.
<scales pt_clust_5="13000.00000" pt_clust_6="13000.00000" pt_clust_7="13000.00000" pt_clust_8="13000.00000" pt_clust_9="46.04753"></scales>
<clustering>
<clus scale="   46.048">  2  9  1 -1</clus>
<clus scale="   88.978">  7  8 -1 -1</clus>
<clus scale="   92.620">  5  6 -1 -1</clus>
<clus scale="  165.046">  2  7  1 -1</clus>
<clus scale="   46.048">  2  5  1 -1</clus>
</clustering>
</event>
<event>
 9    1  0.1803370E-005  0.1315489E+03  0.7546771E-02  0.1225323E+00
          2   -1    0    0  502    0  0.00000000000E+00  0.00000000000E+00  0.65102725072E+03  0.65102725072E+03  0.00000000000E+00 0. -1.
         -2   -1    0    0    0  501 -0.00000000000E+00 -0.00000000000E+00 -0.61918619093E+02  0.61918619093E+02  0.00000000000E+00 0.  1.
         23    2    1    2    0    0 -0.10832088921E+03  0.95445786123E+01  0.60598890218E+02  0.15461290189E+03  0.91697382273E+02 0.  0.
         23    2    1    2    0    0  0.41005738958E+02 -0.35667401532E+02  0.34006691664E+03  0.35653002062E+03  0.92274122329E+02 0.  0.
        -11    1    3    3    0    0 -0.89267828017E+02  0.35786444472E+02  0.13045802486E+02  0.97054663408E+02  0.00000000000E+00 0.  1.
         11    1    3    3    0    0 -0.19053061197E+02 -0.26241865860E+02  0.47553087732E+02  0.57558238487E+02  0.00000000000E+00 0. -1.
        -13    1    4    4    0    0  0.69936729556E+02 -0.31696449817E+02  0.22194213067E+03  0.23484914401E+03  0.00000000000E+00 0.  1.
         13    1    4    4    0    0 -0.28930990598E+02 -0.39709517149E+01  0.11812478597E+03  0.12168087662E+03  0.00000000000E+00 0. -1.
         21    1    1    2  502  501  0.67315150256E+02  0.26122822920E+02  0.18844282477E+03  0.20180294730E+03  0.00000000000E+00 0.  1.
<scales pt_clust_5="13000.00000" pt_clust_6="13000.00000" pt_clust_7="13000.00000" pt_clust_8="13000.00000" pt_clust_9="72.20617"></scales>
<clustering>
<clus scale="   72.206">  1  9  2 -1</clus>
<clus scale="   91.697">  5  6 -1 -1</clus>
<clus scale="   92.274">  7  8 -1 -1</clus>
<clus scale="  131.145">  2  5  1 -1</clus>
<clus scale="   72.206">  1  5  2 -1</clus>
</clustering>
</event>
<event>
 9    1  0.1803370E-005  0.1017924E+03  0.7546771E-02  0.1279032E+00
         -1   -1    0    0    0  501 -0.00000000000E+00  0.00000000000E+00  0.10909370839E+03  0.10909370839E+03  0.00000000000E+00 0.  1.
          1   -1    0    0  502    0  0.00000000000E+00 -0.00000000000E+00 -0.15031661125E+03  0.15031661125E+03  0.00000000000E+00 0. -1.
         23    2    1    2    0    0 -0.26619997622E+02  0.35859840011E+02  0.41243683432E+02  0.10851731756E+03  0.89891125191E+02 0.  0.
         23    2    1    2    0    0  0.10340130960E+02 -0.10899236881E+02 -0.68277043166E+02  0.11788680719E+03  0.94920140188E+02 0.  0.
        -13    1    3    3    0    0  0.22422015855E+02 -0.19566627886E+01  0.40788919738E+02  0.46586599980E+02  0.00000000000E+00 0.  1.
         13    1    3    3    0    0 -0.49042013477E+02  0.37816502799E+02  0.45476369438E+00  0.61930717579E+02  0.00000000000E+00 0. -1.
        -13    1    4    4    0    0  0.17407750440E+02  0.37370699497E+02 -0.52210388327E+02  0.66524609022E+02  0.00000000000E+00 0. -1.
         13    1    4    4    0    0 -0.70676194794E+01 -0.48269936378E+02 -0.16066654840E+02  0.51362198170E+02  0.00000000000E+00 0.  1.
         21    1    1    2  502  501  0.16279866661E+02 -0.24960603129E+02 -0.14189543129E+02  0.33006194893E+02  0.00000000000E+00 0. -1.
<scales pt_clust_5="13000.00000" pt_clust_6="13000.00000" pt_clust_7="13000.00000" pt_clust_8="13000.00000" pt_clust_9="29.80043"></scales>
<clustering>
<clus scale="   29.800">  2  9  1 -1</clus>
<clus scale="   89.891">  5  6 -1 -1</clus>
<clus scale="   94.920">  7  8 -1 -1</clus>
<clus scale="   97.120">  1  5  2 -1</clus>
<clus scale="   29.800">  2  5  1 -1</clus>
</clustering>
</event>
<event>
 9    1  0.1803370E-005  0.1227257E+03  0.7546771E-02  0.1239083E+00
          1   -1    0    0  502    0  0.00000000000E+00  0.00000000000E+00  0.43698156340E+03  0.43698156340E+03  0.00000000000E+00 0. -1.
         -1   -1    0    0    0  501 -0.00000000000E+00 -0.00000000000E+00 -0.18142557772E+03  0.18142557772E+03  0.00000000000E+00 0.  1.
         23    2    1    2    0    0  0.95317098122E+01 -0.88721922119E+02 -0.13444395165E+03  0.18644507919E+03  0.93403203712E+02 0.  0.
         23    2    1    2    0    0  0.17784752713E+02  0.10904527790E+01  0.20654916681E+03  0.22682881560E+03  0.92039484799E+02 0.  0.
        -11    1    3    3    0    0  0.37547778695E+02 -0.10699024664E+02 -0.74608094271E+02  0.84206131276E+02  0.00000000000E+00 0.  1.
         11    1    3    3    0    0 -0.28016068883E+02 -0.78022897456E+02 -0.59835857379E+02  0.10223894792E+03  0.00000000000E+00 0. -1.
        -11    1    4    4    0    0 -0.15491697564E+02 -0.38377852315E+02  0.77972969537E+02  0.88275909625E+02  0.00000000000E+00 0. -1.
         11    1    4    4    0    0  0.33276450278E+02  0.39468305094E+02  0.12857619727E+03  0.13855290598E+03  0.00000000000E+00 0.  1.
         21    1    1    2  502  501 -0.27316462525E+02  0.87631469340E+02  0.18345077052E+03  0.20513324633E+03  0.00000000000E+00 0. -1.
<scales pt_clust_5="13000.00000" pt_clust_6="13000.00000" pt_clust_7="13000.00000" pt_clust_8="13000.00000" pt_clust_9="91.79032"></scales>
<clustering>
<clus scale="   91.790">  1  9  2 -1</clus>
<clus scale="   92.039">  7  8 -1 -1</clus>
<clus scale="   93.403">  5  6 -1 -1</clus>
<clus scale="  121.691">  1  7  2 -1</clus>
<clus scale="   91.790">  1  5  2 -1</clus>
</clustering>
</event>
<event>
 9    1  0.1803370E-005  0.9754164E+02  0.7546771E-02  0.1285664E+00
         -1   -1    0    0    0  501 -0.00000000000E+00  0.00000000000E+00  0.39538821205E+03  0.39538821205E+03  0.00000000000E+00 0.  1.
          1   -1    0    0  502    0  0.00000000000E+00 -0.00000000000E+00 -0.16236293774E+03  0.16236293774E+03  0.00000000000E+00 0. -1.
         23    2    1    2    0    0  0.40510713518E+02 -0.13629958578E+02  0.32595145208E+03  0.34080113413E+03  0.89856386714E+02 0.  0.
         23    2    1    2    0    0  0.93230105086E+01  0.42920358632E+02  0.85323146685E+01  0.10018035662E+03  0.89633853809E+02 0.  0.
        -11    1    4    4    0    0 -0.37074922428E+02  0.39311475917E+01 -0.62398709380E+01  0.37801319868E+02  0.00000000000E+00 0. -1.
         11    1    4    4    0    0  0.46397932937E+02  0.38989211040E+02  0.14772185607E+02  0.62379036751E+02  0.00000000000E+00 0.  1.
        -13    1    3    3    0    0  0.27650864700E+02 -0.43596164870E+02  0.27837836131E+03  0.28312489815E+03  0.00000000000E+00 0.  1.
         13    1    3    3    0    0  0.12859848818E+02  0.29966206293E+02  0.47573090770E+02  0.57676235978E+02  0.00000000000E+00 0. -1.
         21    1    1    2  502  501 -0.49833724026E+02 -0.29290400054E+02 -0.10145849243E+03  0.11676965904E+03  0.00000000000E+00 0. -1.
<scales pt_clust_5="13000.00000" pt_clust_6="13000.00000" pt_clust_7="13000.00000" pt_clust_8="13000.00000" pt_clust_9="57.80422"></scales>
<clustering>
<clus scale="   57.804">  2  9  1 -1</clus>
<clus scale="   89.634">  5  6 -1 -1</clus>
<clus scale="   89.856">  7  8 -1 -1</clus>
<clus scale="   97.337">  2  5  1 -1</clus>
<clus scale="   57.804">  2  5  1 -1</clus>
</clustering>
</event>
<event>
 9    1  0.1803370E-005  0.1072536E+03  0.7546771E-02  0.1266344E+00
          1   -1    0    0  502    0  0.00000000000E+00  0.00000000000E+00  0.26447397314E+03  0.26447397314E+03  0.00000000000E+00 0. -1.
         -1   -1    0    0    0  501 -0.00000000000E+00 -0.00000000000E+00 -0.62640275847E+02  0.62640275847E+02  0.00000000000E+00 0.  1.
         23    2    1    2    0    0  0.37986353730E+02 -0.51344613786E+02  0.40340751581E+02  0.11795969598E+03  0.90597357593E+02 0.  0.
         23    2    1    2    0    0 -0.10335243711E+02  0.49010996180E+02  0.10688773941E+03  0.14790295538E+03  0.89114535096E+02 0.  0.
        -11    1    4    4    0    0  0.23304282217E+02  0.12206305797E+02 -0.37262987410E+01  0.26570072886E+02  0.00000000000E+00 0.  1.
         11    1    4    4    0    0 -0.33639525928E+02  0.36804690384E+02  0.11061403815E+03  0.12133288249E+03  0.00000000000E+00 0. -1.
        -13    1    3    3    0    0  0.88095759280E+01  0.22670797100E+02  0.28593058761E+02  0.37538469315E+02  0.00000000000E+00 0.  1.
         13    1    3    3    0    0  0.29176777802E+02 -0.74015410886E+02  0.11747692820E+02  0.80421226664E+02  0.00000000000E+00 0. -1.
         21    1    1    2  502  501 -0.27651110019E+02  0.23336176052E+01  0.54605206303E+02  0.61251597627E+02  0.00000000000E+00 0.  1.
<scales pt_clust_5="13000.00000" pt_clust_6="13000.00000" pt_clust_7="13000.00000" pt_clust_8="13000.00000" pt_clust_9="27.74941"></scales>
<clustering>
<clus scale="   27.749">  1  9  2 -1</clus>
<clus scale="   89.115">  5  6 -1 -1</clus>
<clus scale="   90.597">  7  8 -1 -1</clus>
<clus scale="  106.004">  1  5  2 -1</clus>
<clus scale="   27.749">  1  5  2 -1</clus>
</clustering>
</event>
<event>
 9    1  0.1803370E-005  0.1599600E+03  0.7546771E-02  0.1189205E+00
         -3   -1    0    0    0  501 -0.00000000000E+00  0.00000000000E+00  0.32354347293E+03  0.32354347293E+03  0.00000000000E+00 0.  1.
          3   -1    0    0  502    0  0.00000000000E+00 -0.00000000000E+00 -0.18458292952E+03  0.18458292952E+03  0.00000000000E+00 0. -1.
         23    2    1    2    0    0 -0.91092097447E+02 -0.92450105477E+02  0.23025007978E+03  0.27859627274E+03  0.88068108439E+02 0.  0.
         23    2    1    2    0    0  0.74029812845E+02  0.12272846955E+03 -0.53044559233E+02  0.17785248306E+03  0.90967521894E+02 0.  0.
        -11    1    4    4    0    0 -0.99232495947E+01  0.42909369395E+02 -0.43039557285E+02  0.61579934684E+02  0.00000000000E+00 0. -1.
         11    1    4    4    0    0  0.83953062440E+02  0.79819100151E+02 -0.10005001948E+02  0.11627254838E+03  0.00000000000E+00 0.  1.
        -11    1    3    3    0    0 -0.64291986829E+02 -0.49405276934E+01  0.81174158033E+02  0.10366828019E+03  0.00000000000E+00 0. -1.
         11    1    3    3    0    0 -0.26800110617E+02 -0.87509577784E+02  0.14907592175E+03  0.17492799255E+03  0.00000000000E+00 0.  1.
         21    1    1    2  502  501  0.17062284601E+02 -0.30278364069E+02 -0.38244977142E+02  0.51677646648E+02  0.00000000000E+00 0.  1.
<scales pt_clust_5="13000.00000" pt_clust_6="13000.00000" pt_clust_7="13000.00000" pt_clust_8="13000.00000" pt_clust_9="34.75487"></scales>
<clustering>
<clus scale="   34.755">  2  9  1 -1</clus>
<clus scale="   88.068">  7  8 -1 -1</clus>
<clus scale="   90.968">  5  6 -1 -1</clus>
<clus scale="  158.329">  1  7  2 -1</clus>
<clus scale="   34.755">  2  5  1 -1</clus>
</clustering>
</event>
<event>
 9    1  0.1803370E-005  0.1057784E+03  0.7546771E-02  0.1268777E+00
         -1   -1    0    0    0  501 -0.00000000000E+00  0.00000000000E+00  0.15361482439E+03  0.15361482439E+03  0.00000000000E+00 0.  1.
          1   -1    0    0  502    0  0.00000000000E+00 -0.00000000000E+00 -0.10018347360E+03  0.10018347360E+03  0.00000000000E+00 0. -1.
         23    2    1    2    0    0  0.93770866788E+01  0.66698829277E+02  0.38790592399E+02  0.11817092423E+03  0.89011199824E+02 0.  0.
         23    2    1    2    0    0  0.15942512096E+02 -0.44577733467E+02  0.10638220695E+02  0.10176817604E+03  0.89455306729E+02 0.  0.
        -13    1    4    4    0    0  0.25682852301E+02  0.15724842400E+02 -0.17155362634E+02  0.34658130906E+02  0.00000000000E+00 0. -1.
         13    1    4    4    0    0 -0.97403402049E+01 -0.60302575867E+02  0.27793583329E+02  0.67110045133E+02  0.00000000000E+00 0.  1.
        -13    1    3    3    0    0 -0.31303314418E+02 -0.97571575422E+00  0.29501398900E+01  0.31457158806E+02  0.00000000000E+00 0.  1.
         13    1    3    3    0    0  0.40680401097E+02  0.67674545031E+02  0.35840452509E+02  0.86713765428E+02  0.00000000000E+00 0. -1.
         21    1    1    2  502  501 -0.25319598775E+02 -0.22121095810E+02  0.40025376879E+01  0.33859197715E+02  0.00000000000E+00 0.  1.
<scales pt_clust_5="13000.00000" pt_clust_6="13000.00000" pt_clust_7="13000.00000" pt_clust_8="13000.00000" pt_clust_9="33.62179"></scales>
<clustering>
<clus scale="   33.622">  2  9  1 -1</clus>
<clus scale="   89.011">  7  8 -1 -1</clus>
<clus scale="   89.455">  5  6 -1 -1</clus>
<clus scale="  105.403">  1  7  2 -1</clus>
<clus scale="   33.622">  2  5  1 -1</clus>
</clustering>
</event>
<event>
 9    1  0.1803370E-005  0.1028054E+03  0.7546771E-02  0.1274570E+00
          2   -1    0    0  502    0  0.00000000000E+00  0.00000000000E+00  0.70628812328E+02  0.70628812328E+02  0.00000000000E+00 0. -1.
         -2   -1    0    0    0  501 -0.00000000000E+00 -0.00000000000E+00 -0.27615835619E+03  0.27615835619E+03  0.00000000000E+00 0.  1.
         23    2    1    2    0    0  0.25318332913E+02 -0.24741036255E+02 -0.11364138743E+03  0.15062394334E+03  0.92304228036E+02 0.  0.
         23    2    1    2    0    0 -0.63180544775E+02  0.84900666719E+01 -0.10434471172E+03  0.15311898202E+03  0.92161495864E+02 0.  0.
        -11    1    3    3    0    0 -0.17893577986E+01  0.28826355451E+02 -0.71953859832E+02  0.77533982967E+02  0.00000000000E+00 0. -1.
         11    1    3    3    0    0  0.27107690712E+02 -0.53567391706E+02 -0.41687527597E+02  0.73089960371E+02  0.00000000000E+00 0.  1.
        -13    1    4    4    0    0 -0.85503948523E+02  0.13466491374E+02 -0.67555601214E+02  0.10979995837E+03  0.00000000000E+00 0.  1.
         13    1    4    4    0    0  0.22323403749E+02 -0.49764247025E+01 -0.36789110507E+02  0.43319023646E+02  0.00000000000E+00 0. -1.
         21    1    1    2  502  501  0.37862211862E+02  0.16250969583E+02  0.12456555290E+02  0.43044243159E+02  0.00000000000E+00 0. -1.
<scales pt_clust_5="13000.00000" pt_clust_6="13000.00000" pt_clust_7="13000.00000" pt_clust_8="13000.00000" pt_clust_9="41.20244"></scales>
<clustering>
<clus scale="   41.202">  1  9  2 -1</clus>
<clus scale="   92.161">  7  8 -1 -1</clus>
<clus scale="   92.304">  5  6 -1 -1</clus>
<clus scale="  102.677">  1  7  2 -1</clus>
<clus scale="   41.202">  1  5  2 -1</clus>
</clustering>
</event>
<event>
 9    1  0.1803370E-005  0.1119576E+03  0.7546771E-02  0.1259201E+00
          1   -1    0    0  502    0  0.00000000000E+00  0.00000000000E+00  0.41457319323E+03  0.41457319323E+03  0.00000000000E+00 0. -1.
         -1   -1    0    0    0  501 -0.00000000000E+00 -0.00000000000E+00 -0.91444114904E+02  0.91444114904E+02  0.00000000000E+00 0.  1.
         23    2    1    2    0    0  0.10705454887E+02  0.63018000172E+02 -0.37699167216E+02  0.11558771891E+03  0.88619515028E+02 0.  0.
         23    2    1    2    0    0  0.20269295810E+02 -0.35019303689E+02  0.29621978477E+03  0.31350355079E+03  0.94345744400E+02 0.  0.
        -11    1    4    4    0    0 -0.28301782099E+02  0.18236056143E+01  0.33928034975E+02  0.44220221219E+02  0.00000000000E+00 0.  1.
         11    1    4    4    0    0  0.48571077909E+02 -0.36842909303E+02  0.26229174980E+03  0.26928332957E+03  0.00000000000E+00 0. -1.
        -13    1    3    3    0    0  0.32250505781E+02  0.73086782105E+02 -0.12359923394E+02  0.80836505045E+02  0.00000000000E+00 0.  1.
         13    1    3    3    0    0 -0.21545050893E+02 -0.10068781933E+02 -0.25339243822E+02  0.34751213864E+02  0.00000000000E+00 0. -1.
         21    1    1    2  502  501 -0.30974750697E+02 -0.27998696483E+02  0.64608460767E+02  0.76926038428E+02  0.00000000000E+00 0. -1.
<scales pt_clust_5="13000.00000" pt_clust_6="13000.00000" pt_clust_7="13000.00000" pt_clust_8="13000.00000" pt_clust_9="41.75359"></scales>
<clustering>
<clus scale="   41.754">  1  9  2 -1</clus>
<clus scale="   88.620">  7  8 -1 -1</clus>
<clus scale="   94.346">  5  6 -1 -1</clus>
<clus scale="  107.177">  2  7  1 -1</clus>
<clus scale="   41.754">  1  5  2 -1</clus>
</clustering>
</event>
<event>
 9    1  0.1803370E-005  0.2031753E+03  0.7546771E-02  0.1147537E+00
         -2   -1    0    0    0  501 -0.00000000000E+00  0.00000000000E+00  0.47105197963E+02  0.47105197963E+02  0.00000000000E+00 0.  1.
          2   -1    0    0  502    0  0.00000000000E+00 -0.00000000000E+00 -0.17111967919E+04  0.17111967919E+04  0.00000000000E+00 0. -1.
         23    2    1    2    0    0  0.11852055346E+03 -0.15657130256E+03 -0.32173156355E+03  0.38715885064E+03  0.88425574727E+02 0.  0.
         23    2    1    2    0    0 -0.14293667276E+03  0.61854706891E+02 -0.89228187941E+03  0.91055902925E+03  0.93241065159E+02 0.  0.
        -11    1    4    4    0    0 -0.14327284411E+03  0.40385226566E+02 -0.85205694650E+03  0.86496191504E+03  0.00000000000E+00 0. -1.
         11    1    4    4    0    0  0.33617134755E+00  0.21469480325E+02 -0.40224932911E+02  0.45597114211E+02  0.00000000000E+00 0.  1.
        -13    1    3    3    0    0  0.53926972623E+02 -0.13501148185E+03 -0.24192726792E+03  0.28224992749E+03  0.00000000000E+00 0. -1.
         13    1    3    3    0    0  0.64593580838E+02 -0.21559820715E+02 -0.79804295631E+02  0.10490892315E+03  0.00000000000E+00 0.  1.
         21    1    1    2  502  501  0.24416119297E+02  0.94716595672E+02 -0.45007815099E+03  0.46058410999E+03  0.00000000000E+00 0. -1.
<scales pt_clust_5="13000.00000" pt_clust_6="13000.00000" pt_clust_7="13000.00000" pt_clust_8="13000.00000" pt_clust_9="97.81299"></scales>
<clustering>
<clus scale="   88.426">  7  8 -1 -1</clus>
<clus scale="   93.241">  5  6 -1 -1</clus>
<clus scale="   97.813">  2  9  1 -1</clus>
<clus scale="  201.011">  1  7  2 -1</clus>
<clus scale="   97.813">  2  5  1 -1</clus>
</clustering>
</event>
<event>
 9    1  0.1803370E-005  0.9431360E+02  0.7546771E-02  0.1292825E+00
          1   -1    0    0  502    0  0.00000000000E+00  0.00000000000E+00  0.36651614535E+02  0.36651614535E+02  0.00000000000E+00 0. -1.
         -1   -1    0    0    0  501 -0.00000000000E+00 -0.00000000000E+00 -0.51563188695E+03  0.51563188695E+03  0.00000000000E+00 0.  1.
         23    2    1    2    0    0 -0.17784798618E+02 -0.14525334734E+01 -0.35870472070E+03  0.37061414125E+03  0.91473253604E+02 0.  0.
         23    2    1    2    0    0  0.34834020710E+02 -0.11687202973E+02 -0.12533727394E+03  0.15955715365E+03  0.91646349245E+02 0.  0.
        -11    1    4    4    0    0 -0.98893781335E+01  0.33105957887E+02 -0.54800677339E+02  0.64783628212E+02  0.00000000000E+00 0.  1.
         11    1    4    4    0    0  0.44723398844E+02 -0.44793160860E+02 -0.70536596605E+02  0.94773525441E+02  0.00000000000E+00 0. -1.
        -13    1    3    3    0    0  0.31624722769E+02 -0.13334334889E+02 -0.76164131432E+02  0.83539825796E+02  0.00000000000E+00 0. -1.
         13    1    3    3    0    0 -0.49409521387E+02  0.11881801415E+02 -0.28254058927E+03  0.28707431545E+03  0.00000000000E+00 0.  1.
         21    1    1    2  502  501 -0.17049222092E+02  0.13139736447E+02  0.50617222345E+01  0.22112206579E+02  0.00000000000E+00 0. -1.
<scales pt_clust_5="13000.00000" pt_clust_6="13000.00000" pt_clust_7="13000.00000" pt_clust_8="13000.00000" pt_clust_9="21.52507"></scales>
<clustering>
<clus scale="   21.525">  1  9  2 -1</clus>
<clus scale="   91.473">  7  8 -1 -1</clus>
<clus scale="   91.646">  5  6 -1 -1</clus>
<clus scale="   94.145">  2  7  1 -1</clus>
<clus scale="   21.525">  1  5  2 -1</clus>
</clustering>
</event>
<event>
 9    1  0.1803370E-005  0.9815757E+02  0.7546771E-02  0.1284774E+00
          2   -1    0    0  502    0  0.00000000000E+00  0.00000000000E+00  0.55777350208E+03  0.55777350208E+03  0.00000000000E+00 0. -1.
         -2   -1    0    0    0  501 -0.00000000000E+00 -0.00000000000E+00 -0.30226866531E+03  0.30226866531E+03  0.00000000000E+00 0.  1.
         23    2    1    2    0    0  0.12782111348E+02 -0.62321127709E+02 -0.27015808218E+03  0.29237603574E+03  0.91929601209E+02 0.  0.
         23    2    1    2    0    0  0.17389011850E+02  0.29441865230E+02  0.51182383741E+03  0.52094501485E+03  0.90834282046E+02 0.  0.
        -13    1    3    3    0    0  0.36098858145E+02  0.20081423496E+01 -0.14807865339E+03  0.15242850057E+03  0.00000000000E+00 0. -1.
         13    1    3    3    0    0 -0.23316746797E+02 -0.64329270059E+02 -0.12207942879E+03  0.13994753518E+03  0.00000000000E+00 0.  1.
        -13    1    4    4    0    0  0.14285867437E+02 -0.32222505868E+02  0.17677185609E+03  0.18025167128E+03  0.00000000000E+00 0.  1.
         13    1    4    4    0    0  0.31031444128E+01  0.61664371098E+02  0.33505198132E+03  0.34069334357E+03  0.00000000000E+00 0. -1.
         21    1    1    2  502  501 -0.30171123198E+02  0.32879262480E+02  0.13839081541E+02  0.46721116790E+02  0.00000000000E+00 0.  1.
<scales pt_clust_5="13000.00000" pt_clust_6="13000.00000" pt_clust_7="13000.00000" pt_clust_8="13000.00000" pt_clust_9="44.62446"></scales>
<clustering>
<clus scale="   44.624">  2  9  1 -1</clus>
<clus scale="   90.834">  7  8 -1 -1</clus>
<clus scale="   91.930">  5  6 -1 -1</clus>
<clus scale="   97.133">  1  7  2 -1</clus>
<clus scale="   97.133">  1  5  2 -1</clus>
</clustering>
</event>
<event>
 9    1  0.1803370E-005  0.1009635E+03  0.7546771E-02  0.1279756E+00
          2   -1    0    0  502    0  0.00000000000E+00  0.00000000000E+00  0.40985906880E+02  0.40985906880E+02  0.00000000000E+00 0. -1.
         -2   -1    0    0    0  501 -0.00000000000E+00 -0.00000000000E+00 -0.59028663011E+03  0.59028663011E+03  0.00000000000E+00 0.  1.
         23    2    1    2    0    0 -0.43074075179E+02 -0.12544993379E+02 -0.42295724031E+03  0.43499864574E+03  0.91204396063E+02 0.  0.
         23    2    1    2    0    0  0.13273115018E+02 -0.25695666983E+02 -0.10270382551E+03  0.14233616110E+03  0.94207558596E+02 0.  0.
        -11    1    3    3    0    0 -0.37553643815E+02  0.35690689355E+02 -0.18374494897E+03  0.19090916097E+03  0.00000000000E+00 0.  1.
         11    1    3    3    0    0 -0.55204313646E+01 -0.48235682734E+02 -0.23921229134E+03  0.24408948478E+03  0.00000000000E+00 0. -1.
        -11    1    4    4    0    0  0.67932824609E+01 -0.48648858857E+02 -0.14870754254E+02  0.51322504682E+02  0.00000000000E+00 0. -1.
         11    1    4    4    0    0  0.64798325569E+01  0.22953191875E+02 -0.87833071258E+02  0.91013656414E+02  0.00000000000E+00 0.  1.
         21    1    1    2  502  501  0.29800960161E+02  0.38240660362E+02 -0.23639657418E+02  0.53937730155E+02  0.00000000000E+00 0. -1.
<scales pt_clust_5="13000.00000" pt_clust_6="13000.00000" pt_clust_7="13000.00000" pt_clust_8="13000.00000" pt_clust_9="48.48139"></scales>
<clustering>
<clus scale="   48.481">  1  9  2 -1</clus>
<clus scale="   91.204">  5  6 -1 -1</clus>
<clus scale="   94.208">  7  8 -1 -1</clus>
<clus scale="   98.167">  2  5  1 -1</clus>
<clus scale="   48.481">  1  5  2 -1</clus>
</clustering>
</event>
<event>
 9    1  0.1803370E-005  0.1157971E+03  0.7546771E-02  0.1250523E+00
         -2   -1    0    0    0  501 -0.00000000000E+00  0.00000000000E+00  0.30414562772E+03  0.30414562772E+03  0.00000000000E+00 0.  1.
          2   -1    0    0  502    0  0.00000000000E+00 -0.00000000000E+00 -0.11547136891E+03  0.11547136891E+03  0.00000000000E+00 0. -1.
         23    2    1    2    0    0  0.34628535974E+02  0.72709227304E+02  0.20333937956E+03  0.23674222888E+03  0.90632292349E+02 0.  0.
         23    2    1    2    0    0  0.89546965601E+01 -0.59728383453E+02  0.36794806375E+02  0.11420072196E+03  0.89667612542E+02 0.  0.
        -11    1    4    4    0    0 -0.34936585166E+02 -0.14208617366E+02 -0.55168801462E+01  0.38116738542E+02  0.00000000000E+00 0.  1.
         11    1    4    4    0    0  0.43891281726E+02 -0.45519766087E+02  0.42311686521E+02  0.76083983416E+02  0.00000000000E+00 0. -1.
        -13    1    3    3    0    0  0.47745324316E+02  0.26459127822E+02  0.16917857641E+03  0.17776696025E+03  0.00000000000E+00 0.  1.
         13    1    3    3    0    0 -0.13116788342E+02  0.46250099482E+02  0.34160803148E+02  0.58975268632E+02  0.00000000000E+00 0. -1.
         21    1    1    2  502  501 -0.43583232534E+02 -0.12980843851E+02 -0.51459927132E+02  0.68674045793E+02  0.00000000000E+00 0. -1.
<scales pt_clust_5="13000.00000" pt_clust_6="13000.00000" pt_clust_7="13000.00000" pt_clust_8="13000.00000" pt_clust_9="45.47527"></scales>
<clustering>
<clus scale="   45.475">  2  9  1 -1</clus>
<clus scale="   89.668">  5  6 -1 -1</clus>
<clus scale="   90.632">  7  8 -1 -1</clus>
<clus scale="  115.044">  2  5  1 -1</clus>
<clus scale="   45.475">  2  5  1 -1</clus>
</clustering>
</event>
<event>
 9    1  0.1803370E-005  0.9862389E+02  0.7546771E-02  0.1286266E+00
          1   -1    0    0  502    0  0.00000000000E+00  0.00000000000E+00  0.36207082999E+03  0.36207082999E+03  0.00000000000E+00 0. -1.
         -1   -1    0    0    0  501 -0.00000000000E+00 -0.00000000000E+00 -0.36653622739E+02  0.36653622739E+02  0.00000000000E+00 0.  1.
         23    2    1    2    0    0  0.35503168058E+02 -0.22666763306E+02  0.82302426297E+02  0.12659258465E+03  0.86473903646E+02 0.  0.
         23    2    1    2    0    0 -0.23157611414E+02 -0.13353189899E+01  0.19171225126E+03  0.21407385587E+03  0.92390315726E+02 0.  0.
        -11    1    4    4    0    0  0.17529303510E+02  0.31652384894E+02  0.11955053100E+03  0.12490588222E+03  0.00000000000E+00 0.  1.
         11    1    4    4    0    0 -0.40686914924E+02 -0.32987703884E+02  0.72161720268E+02  0.89167973654E+02  0.00000000000E+00 0. -1.
        -13    1    3    3    0    0  0.47893796758E+02  0.14580683108E+02  0.22104453980E+02  0.54726766518E+02  0.00000000000E+00 0.  1.
         13    1    3    3    0    0 -0.12390628700E+02 -0.37247446414E+02  0.60197972318E+02  0.71865818128E+02  0.00000000000E+00 0. -1.
         21    1    1    2  502  501 -0.12345556644E+02  0.24002082296E+02  0.51402529688E+02  0.58058012210E+02  0.00000000000E+00 0. -1.
<scales pt_clust_5="13000.00000" pt_clust_6="13000.00000" pt_clust_7="13000.00000" pt_clust_8="13000.00000" pt_clust_9="26.99097"></scales>
<clustering>
<clus scale="   26.991">  1  9  2 -1</clus>
<clus scale="   86.474">  7  8 -1 -1</clus>
<clus scale="   92.390">  5  6 -1 -1</clus>
<clus scale="   93.104">  2  7  1 -1</clus>
<clus scale="   26.991">  1  5  2 -1</clus>
</clustering>
</event>
<event>
 9    1  0.1803370E-005  0.1166980E+03  0.7546771E-02  0.1251591E+00
          2   -1    0    0  502    0  0.00000000000E+00  0.00000000000E+00  0.79024416006E+03  0.79024416006E+03  0.00000000000E+00 0. -1.
         -2   -1    0    0    0  501 -0.00000000000E+00 -0.00000000000E+00 -0.90201286471E+02  0.90201286471E+02  0.00000000000E+00 0.  1.
         23    2    1    2    0    0  0.41552580284E+02  0.66332741606E+02 -0.22841387884E+02  0.12755670856E+03  0.98093503159E+02 0.  0.
         23    2    1    2    0    0 -0.30949920408E+02  0.10058100011E+02  0.17396831698E+03  0.19858134022E+03  0.90058372298E+02 0.  0.
        -11    1    4    4    0    0 -0.61066428580E+02 -0.54733987693E+01  0.10146770650E+03  0.11855278258E+03  0.00000000000E+00 0. -1.
         11    1    4    4    0    0  0.30116508171E+02  0.15531498780E+02  0.72500610471E+02  0.80028557637E+02  0.00000000000E+00 0.  1.
        -13    1    3    3    0    0 -0.32017074344E+02  0.26099415444E+02 -0.31742647544E+01  0.41428836489E+02  0.00000000000E+00 0. -1.
         13    1    3    3    0    0  0.73569654628E+02  0.40233326161E+02 -0.19667123129E+02  0.86127872075E+02  0.00000000000E+00 0.  1.
         21    1    1    2  502  501 -0.10602659875E+02 -0.76390841616E+02  0.54891594450E+03  0.55430739776E+03  0.00000000000E+00 0. -1.
<scales pt_clust_5="13000.00000" pt_clust_6="13000.00000" pt_clust_7="13000.00000" pt_clust_8="13000.00000" pt_clust_9="77.12313"></scales>
<clustering>
<clus scale="   77.123">  1  9  2 -1</clus>
<clus scale="   90.058">  5  6 -1 -1</clus>
<clus scale="   98.094">  7  8 -1 -1</clus>
<clus scale="  110.030">  1  5  2 -1</clus>
<clus scale="   77.123">  1  5  2 -1</clus>
</clustering>
</event>
<event>
 9    1  0.1803370E-005  0.9659087E+02  0.7546771E-02  0.1289089E+00
         -1   -1    0    0    0  501 -0.00000000000E+00  0.00000000000E+00  0.75192011624E+02  0.75192011624E+02  0.00000000000E+00 0.  1.
          1   -1    0    0  502    0  0.00000000000E+00 -0.00000000000E+00 -0.35354450622E+03  0.35354450622E+03  0.00000000000E+00 0. -1.
         23    2    1    2    0    0  0.22235113600E+02 -0.14024067060E+02 -0.14522610643E+02  0.97104160671E+02  0.92343040160E+02 0.  0.
         23    2    1    2    0    0 -0.11029663195E+02 -0.11307484240E+02 -0.37069152430E+02  0.10318612943E+03  0.94993381740E+02 0.  0.
        -11    1    3    3    0    0  0.19746480747E+02  0.38171060849E+02 -0.12718213178E+02  0.44818593627E+02  0.00000000000E+00 0. -1.
         11    1    3    3    0    0  0.24886328537E+01 -0.52195127909E+02 -0.18043974652E+01  0.52285567044E+02  0.00000000000E+00 0.  1.
        -13    1    4    4    0    0 -0.43707675679E+02 -0.34907456189E+02 -0.23218451426E+02  0.60563915804E+02  0.00000000000E+00 0. -1.
         13    1    4    4    0    0  0.32678012484E+02  0.23599971949E+02 -0.13850701004E+02  0.42622213624E+02  0.00000000000E+00 0.  1.
         21    1    1    2  502  501 -0.11205450405E+02  0.25331551300E+02 -0.22676073152E+03  0.22844622774E+03  0.00000000000E+00 0. -1.
<scales pt_clust_5="13000.00000" pt_clust_6="13000.00000" pt_clust_7="13000.00000" pt_clust_8="13000.00000" pt_clust_9="27.69927"></scales>
<clustering>
<clus scale="   27.699">  2  9  1 -1</clus>
<clus scale="   92.343">  5  6 -1 -1</clus>
<clus scale="   93.986">  1  5  2 -1</clus>
<clus scale="   94.993">  7  8 -1 -1</clus>
<clus scale="   27.699">  2  5  1 -1</clus>
</clustering>
</event>
<event>
 9    1  0.1803370E-005  0.9219849E+02  0.7546771E-02  0.1299419E+00
          2   -1    0    0  502    0  0.00000000000E+00  0.00000000000E+00  0.37895012114E+03  0.37895012114E+03  0.00000000000E+00 0. -1.
         -2   -1    0    0    0  501 -0.00000000000E+00 -0.00000000000E+00 -0.33931890700E+02  0.33931890700E+02  0.00000000000E+00 0.  1.
         23    2    1    2    0    0 -0.56786002676E+01 -0.22149741542E+02  0.87221113635E+02  0.12799775620E+03  0.90846273319E+02 0.  0.
         23    2    1    2    0    0 -0.18487905129E+02  0.62975788055E+01  0.21694225760E+03  0.23483996959E+03  0.87774746069E+02 0.  0.
        -13    1    3    3    0    0 -0.26645278974E+02 -0.34507221877E+02  0.93238214227E+02  0.10292756601E+03  0.00000000000E+00 0. -1.
         13    1    3    3    0    0  0.20966678707E+02  0.12357480335E+02 -0.60171005920E+01  0.25070190182E+02  0.00000000000E+00 0.  1.
        -13    1    4    4    0    0 -0.49889618109E+01 -0.32060801388E+02  0.16848597341E+03  0.17158178214E+03  0.00000000000E+00 0. -1.
         13    1    4    4    0    0 -0.13498943318E+02  0.38358380193E+02  0.48456284191E+02  0.63258187449E+02  0.00000000000E+00 0.  1.
         21    1    1    2  502  501  0.24166505397E+02  0.15852162736E+02  0.40854859208E+02  0.50044286062E+02  0.00000000000E+00 0.  1.
<scales pt_clust_5="13000.00000" pt_clust_6="13000.00000" pt_clust_7="13000.00000" pt_clust_8="13000.00000" pt_clust_9="28.90175"></scales>
<clustering>
<clus scale="   28.902">  2  9  1 -1</clus>
<clus scale="   87.775">  7  8 -1 -1</clus>
<clus scale="   89.174">  1  7  2 -1</clus>
<clus scale="   90.846">  5  6 -1 -1</clus>
<clus scale="   89.174">  1  5  2 -1</clus>
</clustering>
</event>
<event>
 9    1  0.1803370E-005  0.9732825E+02  0.7546771E-02  0.1286881E+00
         -1   -1    0    0    0  501 -0.00000000000E+00  0.00000000000E+00  0.57290165265E+02  0.57290165265E+02  0.00000000000E+00 0.  1.
          1   -1    0    0  502    0  0.00000000000E+00 -0.00000000000E+00 -0.36256731283E+03  0.36256731283E+03  0.00000000000E+00 0. -1.
         23    2    1    2    0    0  0.31046769658E+02 -0.69930105420E+01 -0.62608794250E+01  0.97365258365E+02  0.91804089357E+02 0.  0.
         23    2    1    2    0    0 -0.27770578693E+02  0.28825418400E+02 -0.23937520429E+03  0.25889627680E+03  0.90137028599E+02 0.  0.
        -11    1    4    4    0    0 -0.57228155329E+01 -0.31198999057E+02 -0.52007116593E+02  0.60916896967E+02  0.00000000000E+00 0.  1.
         11    1    4    4    0    0 -0.22047763160E+02  0.60024417457E+02 -0.18736808770E+03  0.19797937983E+03  0.00000000000E+00 0. -1.
        -13    1    3    3    0    0  0.63019929509E+02 -0.30691540795E+00 -0.12129938613E+02  0.64177419106E+02  0.00000000000E+00 0. -1.
         13    1    3    3    0    0 -0.31973159850E+02 -0.66860951341E+01  0.58690591877E+01  0.33187839259E+02  0.00000000000E+00 0.  1.
         21    1    1    2  502  501 -0.32761909655E+01 -0.21832407858E+02 -0.59641063844E+02  0.63595942925E+02  0.00000000000E+00 0. -1.
<scales pt_clust_5="13000.00000" pt_clust_6="13000.00000" pt_clust_7="13000.00000" pt_clust_8="13000.00000" pt_clust_9="22.07685"></scales>
<clustering>
<clus scale="   22.077">  2  9  1 -1</clus>
<clus scale="   90.137">  5  6 -1 -1</clus>
<clus scale="   91.804">  7  8 -1 -1</clus>
<clus scale="   95.757">  2  5  1 -1</clus>
<clus scale="   22.077">  2  5  1 -1</clus>
</clustering>
</event>
<event>
 9    1  0.1803370E-005  0.1159184E+03  0.7546771E-02  0.1250156E+00
          3   -1    0    0  502    0  0.00000000000E+00  0.00000000000E+00  0.41720130739E+03  0.41720130739E+03  0.00000000000E+00 0. -1.
         -3   -1    0    0    0  501 -0.00000000000E+00 -0.00000000000E+00 -0.65279928912E+02  0.65279928912E+02  0.00000000000E+00 0.  1.
         23    2    1    2    0    0 -0.33702545047E+02  0.74639897802E+02  0.44812924997E+02  0.13072873546E+03  0.91514087114E+02 0.  0.
         23    2    1    2    0    0  0.98974841633E+01 -0.54891633696E+02  0.11397853629E+03  0.15616149959E+03  0.91017886025E+02 0.  0.
        -13    1    4    4    0    0 -0.38239812400E+01 -0.78831086031E+02  0.88844276859E+02  0.11883715113E+03  0.00000000000E+00 0. -1.
         13    1    4    4    0    0  0.13721465403E+02  0.23939452336E+02  0.25134259427E+02  0.37324348459E+02  0.00000000000E+00 0.  1.
        -13    1    3    3    0    0 -0.20774299003E+02 -0.62703080000E+01  0.43692563566E+02  0.48784509554E+02  0.00000000000E+00 0. -1.
         13    1    3    3    0    0 -0.12928246045E+02  0.80910205802E+02  0.11203614312E+01  0.81944225901E+02  0.00000000000E+00 0.  1.
         21    1    1    2  502  501  0.23805060884E+02 -0.19748264107E+02  0.19312991720E+03  0.19559100127E+03  0.00000000000E+00 0.  1.
<scales pt_clust_5="13000.00000" pt_clust_6="13000.00000" pt_clust_7="13000.00000" pt_clust_8="13000.00000" pt_clust_9="30.93016"></scales>
<clustering>
<clus scale="   30.930">  1  9  2 -1</clus>
<clus scale="   91.018">  5  6 -1 -1</clus>
<clus scale="   91.514">  7  8 -1 -1</clus>
<clus scale="  115.527">  1  5  2 -1</clus>
<clus scale="   30.930">  1  5  2 -1</clus>
</clustering>
</event>
<event>
 9    1  0.1803370E-005  0.9786932E+02  0.7546771E-02  0.1286037E+00
          1   -1    0    0  502    0  0.00000000000E+00  0.00000000000E+00  0.35239521821E+03  0.35239521821E+03  0.00000000000E+00 0. -1.
         -1   -1    0    0    0  501 -0.00000000000E+00 -0.00000000000E+00 -0.86351460357E+02  0.86351460357E+02  0.00000000000E+00 0.  1.
         23    2    1    2    0    0 -0.32089544460E+02  0.44421913146E+02  0.19527837224E+02  0.11086604698E+03  0.94376367358E+02 0.  0.
         23    2    1    2    0    0  0.15659902850E+01  0.49733339528E+02  0.72990925095E+02  0.12811120689E+03  0.92784421103E+02 0.  0.
        -11    1    3    3    0    0  0.18155399846E+02 -0.17929545644E+02  0.17168746821E+02  0.30754723507E+02  0.00000000000E+00 0.  1.
         11    1    3    3    0    0 -0.50244944306E+02  0.62351458791E+02  0.23590904030E+01  0.80111323476E+02  0.00000000000E+00 0. -1.
        -13    1    4    4    0    0  0.34963721955E+02 -0.10402120547E+02  0.24143232671E+02  0.43744275610E+02  0.00000000000E+00 0. -1.
         13    1    4    4    0    0 -0.33397731670E+02  0.60135460075E+02  0.48847692424E+02  0.84366931284E+02  0.00000000000E+00 0.  1.
         21    1    1    2  502  501  0.30523554175E+02 -0.94155252675E+02  0.17352499553E+03  0.19976942469E+03  0.00000000000E+00 0. -1.
<scales pt_clust_5="13000.00000" pt_clust_6="13000.00000" pt_clust_7="13000.00000" pt_clust_8="13000.00000" pt_clust_9="98.97929"></scales>
<clustering>
<clus scale="   92.784">  7  8 -1 -1</clus>
<clus scale="   94.376">  5  6 -1 -1</clus>
<clus scale="   98.979">  1  9  2 -1</clus>
<clus scale="   98.979">  1  7  2 -1</clus>
<clus scale="   97.869">  1  5  2 -1</clus>
</clustering>
</event>
<event>
 9    1  0.1803370E-005  0.1379626E+03  0.7546771E-02  0.1216123E+00
          1   -1    0    0  502    0  0.00000000000E+00  0.00000000000E+00  0.16267370034E+03  0.16267370034E+03  0.00000000000E+00 0. -1.
         -1   -1    0    0    0  501 -0.00000000000E+00 -0.00000000000E+00 -0.58746618358E+03  0.58746618358E+03  0.00000000000E+00 0.  1.
         23    2    1    2    0    0  0.28829228062E+01 -0.10766063978E+03 -0.51861407146E+03  0.53770000611E+03  0.92529005449E+02 0.  0.
         23    2    1    2    0    0 -0.46987099489E+02  0.44875858105E+02  0.65923553193E+02  0.13079793044E+03  0.92415115551E+02 0.  0.
        -11    1    3    3    0    0  0.44209994335E+02 -0.73514568958E+02 -0.36683529054E+03  0.37673206106E+03  0.00000000000E+00 0.  1.
         11    1    3    3    0    0 -0.41327071529E+02 -0.34146070823E+02 -0.15177878093E+03  0.16096794505E+03  0.00000000000E+00 0. -1.
        -13    1    4    4    0    0  0.25651703344E+02  0.53519945581E+01  0.20072858310E+01  0.26280847144E+02  0.00000000000E+00 0.  1.
         13    1    4    4    0    0 -0.72638802834E+02  0.39523863547E+02  0.63916267362E+02  0.10451708329E+03  0.00000000000E+00 0. -1.
         21    1    1    2  502  501  0.44104176683E+02  0.62784781675E+02  0.27898035031E+02  0.81641947365E+02  0.00000000000E+00 0. -1.
<scales pt_clust_5="13000.00000" pt_clust_6="13000.00000" pt_clust_7="13000.00000" pt_clust_8="13000.00000" pt_clust_9="76.72749"></scales>
<clustering>
<clus scale="   76.727">  1  9  2 -1</clus>
<clus scale="   92.415">  7  8 -1 -1</clus>
<clus scale="   92.529">  5  6 -1 -1</clus>
<clus scale="  137.886">  1  7  2 -1</clus>
<clus scale="   76.727">  1  5  2 -1</clus>
</clustering>
</event>
<event>
 9    1  0.1803370E-005  0.1009244E+03  0.7546771E-02  0.1278893E+00
          1   -1    0    0  502    0  0.00000000000E+00  0.00000000000E+00  0.53064824514E+03  0.53064824514E+03  0.00000000000E+00 0. -1.
         -1   -1    0    0    0  501 -0.00000000000E+00 -0.00000000000E+00 -0.13754278000E+03  0.13754278000E+03  0.00000000000E+00 0.  1.
         23    2    1    2    0    0 -0.45353316764E+02  0.10165259576E+01 -0.99646534453E+02  0.14163809054E+03  0.89855217969E+02 0.  0.
         23    2    1    2    0    0  0.15643599310E+02 -0.65980106714E+02  0.27951971362E+03  0.30167309577E+03  0.90979611599E+02 0.  0.
        -11    1    4    4    0    0  0.49497081920E+02 -0.14400107472E+02  0.11786612689E+03  0.12864582419E+03  0.00000000000E+00 0. -1.
         11    1    4    4    0    0 -0.33853482610E+02 -0.51579999242E+02  0.16165358673E+03  0.17302727158E+03  0.00000000000E+00 0.  1.
        -11    1    3    3    0    0 -0.37774994425E+01  0.42019248919E+02 -0.44514434177E+02  0.61330429901E+02  0.00000000000E+00 0. -1.
         11    1    3    3    0    0 -0.41575817322E+02 -0.41002722961E+02 -0.55132100275E+02  0.80307660637E+02  0.00000000000E+00 0.  1.
         21    1    1    2  502  501  0.29709717455E+02  0.64963580756E+02  0.21323228597E+03  0.22487983884E+03  0.00000000000E+00 0. -1.
<scales pt_clust_5="13000.00000" pt_clust_6="13000.00000" pt_clust_7="13000.00000" pt_clust_8="13000.00000" pt_clust_9="71.43482"></scales>
<clustering>
<clus scale="   71.435">  1  9  2 -1</clus>
<clus scale="   89.855">  7  8 -1 -1</clus>
<clus scale="   90.980">  5  6 -1 -1</clus>
<clus scale="   99.912">  2  7  1 -1</clus>
<clus scale="   71.435">  1  5  2 -1</clus>
</clustering>
</event>
<event>
 9    1  0.1803370E-005  0.1092214E+03  0.7546771E-02  0.1264608E+00
          1   -1    0    0  502    0  0.00000000000E+00  0.00000000000E+00  0.26156038891E+03  0.26156038891E+03  0.00000000000E+00 0. -1.
         -1   -1    0    0    0  501 -0.00000000000E+00 -0.00000000000E+00 -0.72937510300E+02  0.72937510300E+02  0.00000000000E+00 0.  1.
         23    2    1    2    0    0 -0.25087331272E+02 -0.51370605088E+02  0.14752223857E+01  0.11107774839E+03  0.95224874105E+02 0.  0.
         23    2    1    2    0    0  0.31754381186E+02  0.30589214701E+02  0.16298996169E+03  0.19086389265E+03  0.88990208030E+02 0.  0.
        -11    1    4    4    0    0 -0.30768983124E+02  0.16747247503E+02  0.51339332461E+02  0.62152455132E+02  0.00000000000E+00 0.  1.
         11    1    4    4    0    0  0.62523364311E+02  0.13841967198E+02  0.11165062923E+03  0.12871143752E+03  0.00000000000E+00 0. -1.
        -13    1    3    3    0    0 -0.32683325364E+02 -0.27021879467E+02 -0.42628589027E+02  0.60129679271E+02  0.00000000000E+00 0.  1.
         13    1    3    3    0    0  0.75959940926E+01 -0.24348725621E+02  0.44103811412E+02  0.50948069117E+02  0.00000000000E+00 0. -1.
         21    1    1    2  502  501 -0.66670499147E+01  0.20781390387E+02  0.24157694533E+02  0.32556258172E+02  0.00000000000E+00 0. -1.
<scales pt_clust_5="13000.00000" pt_clust_6="13000.00000" pt_clust_7="13000.00000" pt_clust_8="13000.00000" pt_clust_9="21.82466"></scales>
<clustering>
<clus scale="   21.825">  1  9  2 -1</clus>
<clus scale="   88.990">  5  6 -1 -1</clus>
<clus scale="   95.225">  7  8 -1 -1</clus>
<clus scale="  103.831">  1  5  2 -1</clus>
<clus scale="   21.825">  1  5  2 -1</clus>
</clustering>
</event>
<event>
 9    1  0.1803370E-005  0.9173993E+02  0.7546771E-02  0.1299428E+00
          1   -1    0    0  502    0  0.00000000000E+00  0.00000000000E+00  0.34068329919E+03  0.34068329919E+03  0.00000000000E+00 0. -1.
         -1   -1    0    0    0  501 -0.00000000000E+00 -0.00000000000E+00 -0.65276491030E+02  0.65276491030E+02  0.00000000000E+00 0.  1.
         23    2    1    2    0    0  0.15216543359E+02  0.86495721556E+01 -0.15247761988E+02  0.93338900369E+02  0.90406292846E+02 0.  0.
         23    2    1    2    0    0 -0.11480407878E+02  0.14787389386E+02  0.22117691054E+03  0.23920158000E+03  0.89149893259E+02 0.  0.
        -11    1    3    3    0    0 -0.14230092576E+02 -0.32694051447E+02 -0.22355809300E+02  0.42085374470E+02  0.00000000000E+00 0.  1.
         11    1    3    3    0    0  0.29446635935E+02  0.41343623603E+02  0.71080473125E+01  0.51253525899E+02  0.00000000000E+00 0. -1.
        -13    1    4    4    0    0  0.27353337417E+02  0.33717128307E+02  0.73810401423E+02  0.85633084537E+02  0.00000000000E+00 0.  1.
         13    1    4    4    0    0 -0.38833745294E+02 -0.18929738921E+02  0.14736650912E+03  0.15356849546E+03  0.00000000000E+00 0. -1.
         21    1    1    2  502  501 -0.37361354814E+01 -0.23436961541E+02  0.69477659607E+02  0.73419309852E+02  0.00000000000E+00 0. -1.
<scales pt_clust_5="13000.00000" pt_clust_6="13000.00000" pt_clust_7="13000.00000" pt_clust_8="13000.00000" pt_clust_9="23.73289"></scales>
<clustering>
<clus scale="   23.733">  1  9  2 -1</clus>
<clus scale="   89.150">  7  8 -1 -1</clus>
<clus scale="   90.406">  5  6 -1 -1</clus>
<clus scale="   90.502">  1  7  2 -1</clus>
<clus scale="   23.733">  1  5  2 -1</clus>
</clustering>
</event>
<event>
 9    1  0.1803370E-005  0.1030969E+03  0.7546771E-02  0.1273961E+00
          2   -1    0    0  502    0  0.00000000000E+00  0.00000000000E+00  0.58381785400E+03  0.58381785400E+03  0.00000000000E+00 0. -1.
         -2   -1    0    0    0  501 -0.00000000000E+00 -0.00000000000E+00 -0.32054442591E+02  0.32054442591E+02  0.00000000000E+00 0.  1.
         23    2    1    2    0    0 -0.36278505598E+02 -0.53788096840E+02  0.13931994112E+03  0.17862026647E+03  0.91026722842E+02 0.  0.
         23    2    1    2    0    0  0.22141141768E+02  0.15171517675E+02  0.20735402091E+03  0.22808036022E+03  0.91129334584E+02 0.  0.
        -13    1    3    3    0    0 -0.24893707781E+02 -0.78349997273E+02  0.11959068086E+03  0.14512184435E+03  0.00000000000E+00 0. -1.
         13    1    3    3    0    0 -0.11384797817E+02  0.24561900433E+02  0.19729260263E+02  0.33498422123E+02  0.00000000000E+00 0.  1.
        -13    1    4    4    0    0 -0.46896477557E+01 -0.32598434320E+02  0.12425018300E+03  0.12854088335E+03  0.00000000000E+00 0. -1.
         13    1    4    4    0    0  0.26830789523E+02  0.47769951995E+02  0.83103837910E+02  0.99539476869E+02  0.00000000000E+00 0.  1.
         21    1    1    2  502  501  0.14137363830E+02  0.38616579165E+02  0.20508944938E+03  0.20917166990E+03  0.00000000000E+00 0.  1.
<scales pt_clust_5="13000.00000" pt_clust_6="13000.00000" pt_clust_7="13000.00000" pt_clust_8="13000.00000" pt_clust_9="41.12305"></scales>
<clustering>
<clus scale="   41.123">  1  9  2 -1</clus>
<clus scale="   91.027">  5  6 -1 -1</clus>
<clus scale="   91.129">  7  8 -1 -1</clus>
<clus scale="  103.006">  2  5  1 -1</clus>
<clus scale="   41.123">  1  5  2 -1</clus>
</clustering>
</event>
<event>
 9    1  0.1803370E-005  0.1763091E+03  0.7546771E-02  0.1171884E+00
         -1   -1    0    0    0  501 -0.00000000000E+00  0.00000000000E+00  0.76113017713E+02  0.76113017713E+02  0.00000000000E+00 0.  1.
          1   -1    0    0  502    0  0.00000000000E+00 -0.00000000000E+00 -0.10527216703E+04  0.10527216703E+04  0.00000000000E+00 0. -1.
         23    2    1    2    0    0  0.10300836861E+03 -0.11549316933E+03 -0.56664106519E+02  0.18672152713E+03  0.87776486372E+02 0.  0.
         23    2    1    2    0    0 -0.10570303873E+03  0.72709194005E+02 -0.78020499088E+03  0.79594588317E+03  0.91379767134E+02 0.  0.
        -13    1    3    3    0    0  0.44828478125E+02 -0.10380194590E+03 -0.58590971887E+02  0.12734731410E+03  0.00000000000E+00 0. -1.
         13    1    3    3    0    0  0.58179890484E+02 -0.11691223436E+02  0.19268653681E+01  0.59374213025E+02  0.00000000000E+00 0.  1.
        -13    1    4    4    0    0 -0.67654588666E+02 -0.65467969594E+01 -0.39778315809E+03  0.40354856557E+03  0.00000000000E+00 0. -1.
         13    1    4    4    0    0 -0.38048450065E+02  0.79255990964E+02 -0.38242183280E+03  0.39239731759E+03  0.00000000000E+00 0.  1.
         21    1    1    2  502  501  0.26946701213E+01  0.42783975328E+02 -0.13973955517E+03  0.14616727770E+03  0.00000000000E+00 0.  1.
<scales pt_clust_5="13000.00000" pt_clust_6="13000.00000" pt_clust_7="13000.00000" pt_clust_8="13000.00000" pt_clust_9="42.86875"></scales>
<clustering>
<clus scale="   42.869">  2  9  1 -1</clus>
<clus scale="   87.776">  5  6 -1 -1</clus>
<clus scale="   91.380">  7  8 -1 -1</clus>
<clus scale="  174.469">  1  5  2 -1</clus>
<clus scale="   42.869">  2  5  1 -1</clus>
</clustering>
</event>
<event>
 9    1  0.1803370E-005  0.9287549E+02  0.7546771E-02  0.1296703E+00
          1   -1    0    0  502    0  0.00000000000E+00  0.00000000000E+00  0.18439482515E+03  0.18439482515E+03  0.00000000000E+00 0. -1.
         -1   -1    0    0    0  501 -0.00000000000E+00 -0.00000000000E+00 -0.14598881589E+03  0.14598881589E+03  0.00000000000E+00 0.  1.
         23    2    1    2    0    0 -0.94540723354E+01 -0.13147221948E+02 -0.77285462670E+02  0.12028810364E+03  0.90741149482E+02 0.  0.
         23    2    1    2    0    0 -0.42594074933E+02  0.50126773080E+02  0.66604140837E+02  0.12955944046E+03  0.89568903288E+02 0.  0.
        -11    1    4    4    0    0 -0.29024359797E+02  0.76255559376E+02  0.46567992728E+02  0.93946270517E+02  0.00000000000E+00 0. -1.
         11    1    4    4    0    0 -0.13569715136E+02 -0.26128786296E+02  0.20036148109E+02  0.35613169940E+02  0.00000000000E+00 0.  1.
        -13    1    3    3    0    0 -0.25667047381E+02 -0.27951008192E+02  0.20180113479E+01  0.38001691410E+02  0.00000000000E+00 0. -1.
         13    1    3    3    0    0  0.16212975045E+02  0.14803786244E+02 -0.79303474018E+02  0.82286412234E+02  0.00000000000E+00 0.  1.
         21    1    1    2  502  501  0.52048147268E+02 -0.36979551132E+02  0.49087331089E+02  0.80536096935E+02  0.00000000000E+00 0. -1.
<scales pt_clust_5="13000.00000" pt_clust_6="13000.00000" pt_clust_7="13000.00000" pt_clust_8="13000.00000" pt_clust_9="63.84745"></scales>
<clustering>
<clus scale="   63.847">  1  9  2 -1</clus>
<clus scale="   89.569">  5  6 -1 -1</clus>
<clus scale="   90.741">  7  8 -1 -1</clus>
<clus scale="   91.731">  1  5  2 -1</clus>
<clus scale="   63.847">  1  5  2 -1</clus>
</clustering>
</event>
<event>
 9    1  0.1803370E-005  0.9871756E+02  0.7546771E-02  0.1285171E+00
          2   -1    0    0  502    0  0.00000000000E+00  0.00000000000E+00  0.18189705823E+03  0.18189705823E+03  0.00000000000E+00 0. -1.
         -2   -1    0    0    0  501 -0.00000000000E+00 -0.00000000000E+00 -0.13980556990E+03  0.13980556990E+03  0.00000000000E+00 0.  1.
         23    2    1    2    0    0 -0.84822231218E+01  0.42423833639E+02 -0.94311633290E+02  0.13813520050E+03  0.91186181379E+02 0.  0.
         23    2    1    2    0    0  0.10206936438E+02 -0.74375875078E+01  0.97271342234E+02  0.13104782926E+03  0.86904086632E+02 0.  0.
        -11    1    3    3    0    0 -0.13990481273E+02  0.67285619239E+02 -0.88438473669E+02  0.11200201671E+03  0.00000000000E+00 0.  1.
         11    1    3    3    0    0  0.55082581515E+01 -0.24861785600E+02 -0.58731596205E+01  0.26133183791E+02  0.00000000000E+00 0. -1.
        -11    1    4    4    0    0  0.25883926893E+02  0.15071459913E+02  0.99128414268E+02  0.10355466716E+03  0.00000000000E+00 0.  1.
         11    1    4    4    0    0 -0.15676990455E+02 -0.22509047421E+02 -0.18570720337E+01  0.27493162096E+02  0.00000000000E+00 0. -1.
         21    1    1    2  502  501 -0.17247133162E+01 -0.34986246131E+02  0.39131779391E+02  0.52519598368E+02  0.00000000000E+00 0. -1.
<scales pt_clust_5="13000.00000" pt_clust_6="13000.00000" pt_clust_7="13000.00000" pt_clust_8="13000.00000" pt_clust_9="35.02873"></scales>
<clustering>
<clus scale="   35.029">  1  9  2 -1</clus>
<clus scale="   86.904">  7  8 -1 -1</clus>
<clus scale="   91.186">  5  6 -1 -1</clus>
<clus scale="   94.776">  1  7  2 -1</clus>
<clus scale="   35.029">  1  5  2 -1</clus>
</clustering>
</event>
<event>
 9    1  0.3944987E-005  0.9705904E+02  0.7546771E-02  0.1286770E+00
         -1   -1    0    0    0  501 -0.00000000000E+00  0.00000000000E+00  0.15581561578E+03  0.15581561578E+03  0.00000000000E+00 0.  1.
          1   -1    0    0  502    0  0.00000000000E+00 -0.00000000000E+00 -0.21614165065E+03  0.21614165065E+03  0.00000000000E+00 0. -1.
         23    2    1    2    0    0 -0.12347226416E+02  0.30233291970E+02  0.11897343921E+03  0.15372640246E+03  0.91709441347E+02 0.  0.
         23    2    1    2    0    0  0.22783694118E+02 -0.46048092603E+01 -0.15302250130E+03  0.18007043574E+03  0.92028120371E+02 0.  0.
        -13    1    4    4    0    0 -0.27949565769E+02  0.23378347792E+02 -0.49926049031E+02  0.61808864607E+02  0.00000000000E+00 0. -1.
         13    1    4    4    0    0  0.50733259888E+02 -0.27983157052E+02 -0.10309645227E+03  0.11826157113E+03  0.00000000000E+00 0.  1.
        -13    1    3    3    0    0 -0.15558165563E+02  0.60346011796E+02  0.55717425279E+02  0.83595030565E+02  0.00000000000E+00 0. -1.
         13    1    3    3    0    0  0.32109391473E+01 -0.30112719826E+02  0.63256013926E+02  0.70131371891E+02  0.00000000000E+00 0.  1.
         21    1    1    2  502  501 -0.10436467703E+02 -0.25628482709E+02 -0.26276972782E+02  0.38160428230E+02  0.00000000000E+00 0. -1.
<scales pt_clust_5="13000.00000" pt_clust_6="13000.00000" pt_clust_7="13000.00000" pt_clust_8="13000.00000" pt_clust_9="27.67199"></scales>
<clustering>
<clus scale="   27.672">  2  9  1 -1</clus>
<clus scale="   91.709">  7  8 -1 -1</clus>
<clus scale="   92.028">  5  6 -1 -1</clus>
<clus scale="   96.757">  1  7  2 -1</clus>
<clus scale="   27.672">  2  5  1 -1</clus>
</clustering>
</event>
<event>
 9    1  0.1803370E-005  0.4493086E+03  0.7546771E-02  0.1027932E+00
          1   -1    0    0  502    0  0.00000000000E+00  0.00000000000E+00  0.68764277250E+03  0.68764277250E+03  0.00000000000E+00 0. -1.
         -1   -1    0    0    0  501 -0.00000000000E+00 -0.00000000000E+00 -0.61957222478E+03  0.61957222478E+03  0.00000000000E+00 0.  1.
         23    2    1    2    0    0 -0.37157681820E+03  0.25011238915E+03 -0.39199652196E+03  0.60238611389E+03  0.92640260936E+02 0.  0.
         23    2    1    2    0    0  0.28107239186E+03 -0.29473870459E+03  0.43025976205E+03  0.59960989839E+03  0.92390334783E+02 0.  0.
        -13    1    3    3    0    0 -0.29976839841E+03  0.24162366980E+03 -0.32640991939E+03  0.50476383188E+03  0.00000000000E+00 0.  1.
         13    1    3    3    0    0 -0.71808419784E+02  0.84887193512E+01 -0.65586602572E+02  0.97622282011E+02  0.00000000000E+00 0. -1.
        -13    1    4    4    0    0  0.20151515387E+03 -0.15525697851E+03  0.29606379961E+03  0.39034197834E+03  0.00000000000E+00 0. -1.
         13    1    4    4    0    0  0.79557237987E+02 -0.13948172608E+03  0.13419596243E+03  0.20926792005E+03  0.00000000000E+00 0.  1.
         21    1    1    2  502  501  0.90504426337E+02  0.44626315436E+02  0.29807307638E+02  0.10521898500E+03  0.00000000000E+00 0. -1.
<scales pt_clust_5="13000.00000" pt_clust_6="13000.00000" pt_clust_7="13000.00000" pt_clust_8="13000.00000" pt_clust_9="100.90867"></scales>
<clustering>
<clus scale="   92.390">  7  8 -1 -1</clus>
<clus scale="   92.640">  5  6 -1 -1</clus>
<clus scale="  100.909">  1  9  2 -1</clus>
<clus scale="  449.257">  1  7  2 -1</clus>
<clus scale="  100.909">  1  5  2 -1</clus>
</clustering>
</event>
<event>
 9    1  0.1803370E-005  0.9831892E+02  0.7546771E-02  0.1284555E+00
         -2   -1    0    0    0  501 -0.00000000000E+00  0.00000000000E+00  0.15439150624E+03  0.15439150624E+03  0.00000000000E+00 0.  1.
          2   -1    0    0  502    0  0.00000000000E+00 -0.00000000000E+00 -0.88749399654E+02  0.88749399654E+02  0.00000000000E+00 0. -1.
         23    2    1    2    0    0  0.58518397628E+01  0.26892688515E+02  0.39452775408E+02  0.10354934502E+03  0.91697789731E+02 0.  0.
         23    2    1    2    0    0 -0.38219056400E+02 -0.21295907650E+02  0.28433023158E+02  0.10666748424E+03  0.93033883256E+02 0.  0.
        -13    1    3    3    0    0  0.33451579156E+02 -0.19773153402E+02  0.46789642947E+01  0.39139218826E+02  0.00000000000E+00 0.  1.
         13    1    3    3    0    0 -0.27599739393E+02  0.46665841917E+02  0.34773811113E+02  0.64410126189E+02  0.00000000000E+00 0. -1.
        -13    1    4    4    0    0 -0.53590204041E+02  0.20947827389E+02  0.20097929042E+02  0.60947913773E+02  0.00000000000E+00 0. -1.
         13    1    4    4    0    0  0.15371147642E+02 -0.42243735038E+02  0.83350941163E+01  0.45719570468E+02  0.00000000000E+00 0.  1.
         21    1    1    2  502  501  0.32367216637E+02 -0.55967808654E+01 -0.22436919776E+01  0.32924076639E+02  0.00000000000E+00 0.  1.
<scales pt_clust_5="13000.00000" pt_clust_6="13000.00000" pt_clust_7="13000.00000" pt_clust_8="13000.00000" pt_clust_9="32.84754"></scales>
<clustering>
<clus scale="   32.848">  2  9  1 -1</clus>
<clus scale="   91.698">  5  6 -1 -1</clus>
<clus scale="   93.034">  7  8 -1 -1</clus>
<clus scale="   97.056">  1  5  2 -1</clus>
<clus scale="   32.848">  2  5  1 -1</clus>
</clustering>
</event>
<event>
 9    1  0.1803370E-005  0.9457970E+02  0.7546771E-02  0.1292807E+00
         -1   -1    0    0    0  501 -0.00000000000E+00  0.00000000000E+00  0.15202073011E+03  0.15202073011E+03  0.00000000000E+00 0.  1.
          1   -1    0    0  502    0  0.00000000000E+00 -0.00000000000E+00 -0.15060979652E+03  0.15060979652E+03  0.00000000000E+00 0. -1.
         23    2    1    2    0    0 -0.24824074028E+02  0.43939443602E+02  0.43725900314E+02  0.11265387972E+03  0.90730551092E+02 0.  0.
         23    2    1    2    0    0  0.11589285438E+02  0.30318477581E+02  0.10222826073E+02  0.98054842318E+02  0.91960449702E+02 0.  0.
        -11    1    3    3    0    0 -0.54231271001E+02  0.49361423087E+02  0.36388672173E+02  0.81864011056E+02  0.00000000000E+00 0. -1.
         11    1    3    3    0    0  0.29407196973E+02 -0.54219794857E+01  0.73372281410E+01  0.30789868660E+02  0.00000000000E+00 0.  1.
        -11    1    4    4    0    0 -0.10420191838E+02  0.59808682792E+02  0.71379074548E+01  0.61127805933E+02  0.00000000000E+00 0. -1.
         11    1    4    4    0    0  0.22009477276E+02 -0.29490205211E+02  0.30849186186E+01  0.36927036386E+02  0.00000000000E+00 0.  1.
         21    1    1    2  502  501  0.13234788590E+02 -0.74257921183E+02 -0.52537792801E+02  0.91921804594E+02  0.00000000000E+00 0.  1.
<scales pt_clust_5="13000.00000" pt_clust_6="13000.00000" pt_clust_7="13000.00000" pt_clust_8="13000.00000" pt_clust_9="75.42810"></scales>
<clustering>
<clus scale="   75.428">  2  9  1 -1</clus>
<clus scale="   90.731">  5  6 -1 -1</clus>
<clus scale="   91.960">  7  8 -1 -1</clus>
<clus scale="   93.384">  1  5  2 -1</clus>
<clus scale="   75.428">  2  5  1 -1</clus>
</clustering>
</event>
<event>
 9    1  0.1803370E-005  0.1509902E+03  0.7546771E-02  0.1200829E+00
         -2   -1    0    0    0  501 -0.00000000000E+00  0.00000000000E+00  0.17587546648E+03  0.17587546648E+03  0.00000000000E+00 0.  1.
          2   -1    0    0  502    0  0.00000000000E+00 -0.00000000000E+00 -0.18121217116E+03  0.18121217116E+03  0.00000000000E+00 0. -1.
         23    2    1    2    0    0 -0.12179541135E+03  0.34369454124E+02  0.35476533865E+02  0.15647168911E+03  0.84908323702E+02 0.  0.
         23    2    1    2    0    0  0.11171131537E+03  0.14677409905E+02 -0.32282397951E+02  0.14982166634E+03  0.93324884909E+02 0.  0.
        -11    1    4    4    0    0  0.11470014964E+02  0.30063592606E+02 -0.36068882396E+02  0.48335754065E+02  0.00000000000E+00 0.  1.
         11    1    4    4    0    0  0.10024130041E+03 -0.15386182702E+02  0.37864844452E+01  0.10148591227E+03  0.00000000000E+00 0. -1.
        -13    1    3    3    0    0 -0.37282641742E+02 -0.84777872611E+01  0.47479729009E+02  0.60960584962E+02  0.00000000000E+00 0.  1.
         13    1    3    3    0    0 -0.84512769612E+02  0.42847241385E+02 -0.12003195144E+02  0.95511104147E+02  0.00000000000E+00 0. -1.
         21    1    1    2  502  501  0.10084095984E+02 -0.49046864028E+02 -0.85308405975E+01  0.50794282199E+02  0.00000000000E+00 0.  1.
<scales pt_clust_5="13000.00000" pt_clust_6="13000.00000" pt_clust_7="13000.00000" pt_clust_8="13000.00000" pt_clust_9="50.07279"></scales>
<clustering>
<clus scale="   50.073">  2  9  1 -1</clus>
<clus scale="   84.908">  7  8 -1 -1</clus>
<clus scale="   93.325">  5  6 -1 -1</clus>
<clus scale="  145.938">  1  7  2 -1</clus>
<clus scale="   50.073">  2  5  1 -1</clus>
</clustering>
</event>
<event>
 9    1  0.1803370E-005  0.1198863E+03  0.7546771E-02  0.1243328E+00
          1   -1    0    0  502    0  0.00000000000E+00  0.00000000000E+00  0.46127330621E+02  0.46127330621E+02  0.00000000000E+00 0. -1.
         -1   -1    0    0    0  501 -0.00000000000E+00 -0.00000000000E+00 -0.66326053715E+03  0.66326053715E+03  0.00000000000E+00 0.  1.
         23    2    1    2    0    0  0.14704108539E+02  0.12551104283E+03 -0.32573737416E+03  0.36054603382E+03  0.88990858499E+02 0.  0.
         23    2    1    2    0    0 -0.40365587919E+02 -0.48627372686E+02 -0.14570968851E+03  0.18212631946E+03  0.89132939227E+02 0.  0.
        -13    1    4    4    0    0  0.19786719347E+02 -0.14253472289E+02 -0.44457056922E+01  0.24787900958E+02  0.00000000000E+00 0.  1.
         13    1    4    4    0    0 -0.60152307266E+02 -0.34373900397E+02 -0.14126398281E+03  0.15733841851E+03  0.00000000000E+00 0. -1.
        -13    1    3    3    0    0  0.21840928692E+02 -0.20780026637E+01 -0.87403525036E+02  0.90115040087E+02  0.00000000000E+00 0.  1.
         13    1    3    3    0    0 -0.71368201525E+01  0.12758904549E+03 -0.23833384912E+03  0.27043099373E+03  0.00000000000E+00 0. -1.
         21    1    1    2  502  501  0.25661479379E+02 -0.76883670139E+02 -0.14568614386E+03  0.16671551449E+03  0.00000000000E+00 0. -1.
<scales pt_clust_5="13000.00000" pt_clust_6="13000.00000" pt_clust_7="13000.00000" pt_clust_8="13000.00000" pt_clust_9="81.05313"></scales>
<clustering>
<clus scale="   81.053">  2  9  1 -1</clus>
<clus scale="   88.991">  7  8 -1 -1</clus>
<clus scale="   89.133">  5  6 -1 -1</clus>
<clus scale="  119.781">  2  7  1 -1</clus>
<clus scale="  119.886">  1  5  2 -1</clus>
</clustering>
</event>
<event>
 9    1  0.2093454E-005  0.1670893E+03  0.7546771E-02  0.1181617E+00
          1   -1    0    0  502    0  0.00000000000E+00  0.00000000000E+00  0.22707903734E+03  0.22707903734E+03  0.00000000000E+00 0. -1.
         -1   -1    0    0    0  501 -0.00000000000E+00 -0.00000000000E+00 -0.34967523344E+03  0.34967523344E+03  0.00000000000E+00 0.  1.
         23    2    1    2    0    0  0.10437618028E+03  0.87079878255E+02 -0.28487289292E+03  0.33122214842E+03  0.10039050889E+03 0.  0.
         23    2    1    2    0    0 -0.10136472581E+03 -0.62752778224E+02  0.11221925581E+03  0.18979502471E+03  0.96001412580E+02 0.  0.
        -11    1    3    3    0    0  0.11577757618E+03  0.49502468958E+02 -0.18385273531E+03  0.22283799016E+03  0.00000000000E+00 0.  1.
         11    1    3    3    0    0 -0.11401395895E+02  0.37577409297E+02 -0.10102015761E+03  0.10838415826E+03  0.00000000000E+00 0. -1.
        -11    1    4    4    0    0  0.16290107586E+02 -0.13094863303E+02  0.18096223647E+01  0.20978984322E+02  0.00000000000E+00 0.  1.
         11    1    4    4    0    0 -0.11765483339E+03 -0.49657914921E+02  0.11040963344E+03  0.16881604039E+03  0.00000000000E+00 0. -1.
         21    1    1    2  502  501 -0.30114544769E+01 -0.24327100031E+02  0.50057441008E+02  0.55737097648E+02  0.00000000000E+00 0. -1.
<scales pt_clust_5="13000.00000" pt_clust_6="13000.00000" pt_clust_7="13000.00000" pt_clust_8="13000.00000" pt_clust_9="24.51279"></scales>
<clustering>
<clus scale="   24.513">  1  9  2 -1</clus>
<clus scale="   96.001">  7  8 -1 -1</clus>
<clus scale="  100.391">  5  6 -1 -1</clus>
<clus scale="  164.490">  1  7  2 -1</clus>
<clus scale="   24.513">  1  5  2 -1</clus>
</clustering>
</event>
<event>
 9    1  0.1803370E-005  0.2463386E+03  0.7546771E-02  0.1157003E+00
          1   -1    0    0  502    0  0.00000000000E+00  0.00000000000E+00  0.16265477437E+04  0.16265477437E+04  0.00000000000E+00 0. -1.
         -1   -1    0    0    0  501 -0.00000000000E+00 -0.00000000000E+00 -0.15932281588E+03  0.15932281588E+03  0.00000000000E+00 0.  1.
         23    2    1    2    0    0  0.16503223489E+03  0.15996619746E+03 -0.27003056963E+02  0.24782057225E+03  0.88662551634E+02 0.  0.
         23    2    1    2    0    0  0.13745668068E+02 -0.14405799984E+02  0.15677549002E+03  0.18087330626E+03  0.87977998277E+02 0.  0.
        -11    1    4    4    0    0 -0.30685895167E+02  0.12567449220E+02  0.92174361971E+02  0.97957531343E+02  0.00000000000E+00 0.  1.
         11    1    4    4    0    0  0.44431563235E+02 -0.26973249204E+02  0.64601128051E+02  0.82915774914E+02  0.00000000000E+00 0. -1.
        -13    1    3    3    0    0  0.11253128830E+03  0.47387659216E+02 -0.15130499753E+02  0.12303582046E+03  0.00000000000E+00 0.  1.
         13    1    3    3    0    0  0.52500946593E+02  0.11257853824E+03 -0.11872557209E+02  0.12478475179E+03  0.00000000000E+00 0. -1.
         21    1    1    2  502  501 -0.17877790296E+03 -0.14556039747E+03  0.13374524947E+04  0.13571766810E+04  0.00000000000E+00 0. -1.
<scales pt_clust_5="13000.00000" pt_clust_6="13000.00000" pt_clust_7="13000.00000" pt_clust_8="13000.00000" pt_clust_9="229.82961"></scales>
<clustering>
<clus scale="   87.978">  5  6 -1 -1</clus>
<clus scale="   88.663">  7  8 -1 -1</clus>
<clus scale="   90.203">  1  5  2 -1</clus>
<clus scale="  229.830">  1  9  2 -1</clus>
<clus scale="   90.203">  1  5  2 -1</clus>
</clustering>
</event>
<event>
 9    1  0.1803370E-005  0.1193178E+03  0.7546771E-02  0.1248527E+00
         -1   -1    0    0    0  501 -0.00000000000E+00  0.00000000000E+00  0.63009284953E+02  0.63009284953E+02  0.00000000000E+00 0.  1.
          1   -1    0    0  502    0  0.00000000000E+00 -0.00000000000E+00 -0.50145694550E+03  0.50145694550E+03  0.00000000000E+00 0. -1.
         23    2    1    2    0    0  0.37539025427E+02  0.20108236846E+02 -0.31617299719E+02  0.11667098306E+03  0.10391797259E+03 0.  0.
         23    2    1    2    0    0 -0.20199804642E+02  0.40455192044E+02 -0.24397867756E+03  0.27318354034E+03  0.11427596835E+03 0.  0.
        -11    1    3    3    0    0  0.21629638682E+02  0.57316908647E+02  0.58256967923E+01  0.61538671009E+02  0.00000000000E+00 0. -1.
         11    1    3    3    0    0  0.15909386746E+02 -0.37208671802E+02 -0.37442996512E+02  0.55132312047E+02  0.00000000000E+00 0.  1.
        -11    1    4    4    0    0  0.43725351193E+02 -0.21088189074E+01 -0.11528130048E+03  0.12331314486E+03  0.00000000000E+00 0.  1.
         11    1    4    4    0    0 -0.63925155836E+02  0.42564010951E+02 -0.12869737707E+03  0.14987039548E+03  0.00000000000E+00 0. -1.
         21    1    1    2  502  501 -0.17339220785E+02 -0.60563428890E+02 -0.16285168327E+03  0.17461170705E+03  0.00000000000E+00 0.  1.
<scales pt_clust_5="13000.00000" pt_clust_6="13000.00000" pt_clust_7="13000.00000" pt_clust_8="13000.00000" pt_clust_9="62.99665"></scales>
<clustering>
<clus scale="   62.997">  2  9  1 -1</clus>
<clus scale="  103.918">  5  6 -1 -1</clus>
<clus scale="  109.438">  1  5  2 -1</clus>
<clus scale="  114.276">  7  8 -1 -1</clus>
<clus scale="   62.997">  2  5  1 -1</clus>
</clustering>
</event>
<event>
 9    1  0.1803370E-005  0.9709350E+02  0.7546771E-02  0.1286760E+00
         -1   -1    0    0    0  501 -0.00000000000E+00  0.00000000000E+00  0.36692611630E+03  0.36692611630E+03  0.00000000000E+00 0.  1.
          1   -1    0    0  502    0  0.00000000000E+00 -0.00000000000E+00 -0.11097799838E+03  0.11097799838E+03  0.00000000000E+00 0. -1.
         23    2    1    2    0    0  0.35786390489E+02  0.69155291435E+01  0.21590691292E+03  0.23710297823E+03  0.90958984991E+02 0.  0.
         23    2    1    2    0    0 -0.31007540438E+02  0.14341982968E+02  0.12216775786E+03  0.15583355490E+03  0.90509533942E+02 0.  0.
        -11    1    3    3    0    0  0.41008278684E+02 -0.30823495009E+02  0.16932144217E+03  0.17692234891E+03  0.00000000000E+00 0. -1.
         11    1    3    3    0    0 -0.52218881957E+01  0.37739024153E+02  0.46585470756E+02  0.60180629325E+02  0.00000000000E+00 0.  1.
        -13    1    4    4    0    0 -0.24961542723E+02  0.41031297357E+02  0.23552458626E+02  0.53491721651E+02  0.00000000000E+00 0. -1.
         13    1    4    4    0    0 -0.60459977147E+01 -0.26689314388E+02  0.98615299231E+02  0.10234183325E+03  0.00000000000E+00 0.  1.
         21    1    1    2  502  501 -0.47788500505E+01 -0.21257512112E+02 -0.82126552855E+02  0.84967581541E+02  0.00000000000E+00 0. -1.
<scales pt_clust_5="13000.00000" pt_clust_6="13000.00000" pt_clust_7="13000.00000" pt_clust_8="13000.00000" pt_clust_9="21.78805"></scales>
<clustering>
<clus scale="   21.788">  2  9  1 -1</clus>
<clus scale="   90.510">  7  8 -1 -1</clus>
<clus scale="   90.959">  5  6 -1 -1</clus>
<clus scale="   96.673">  2  7  1 -1</clus>
<clus scale="   21.788">  2  5  1 -1</clus>
</clustering>
</event>
<event>
 9    1  0.1803370E-005  0.9244916E+02  0.7546771E-02  0.1297452E+00
          2   -1    0    0  502    0  0.00000000000E+00  0.00000000000E+00  0.20579086725E+03  0.20579086725E+03  0.00000000000E+00 0. -1.
         -2   -1    0    0    0  501 -0.00000000000E+00 -0.00000000000E+00 -0.61268764242E+02  0.61268764242E+02  0.00000000000E+00 0.  1.
         23    2    1    2    0    0 -0.66713273595E+01 -0.48070321787E+01  0.32764489728E+02  0.97553840113E+02  0.91518444953E+02 0.  0.
         23    2    1    2    0    0 -0.23935785031E+02 -0.71643682262E+00  0.74452354805E+02  0.12093639414E+03  0.92244366787E+02 0.  0.
        -13    1    3    3    0    0  0.20234374543E+02  0.35852344692E+02  0.50633594482E+01  0.41478405731E+02  0.00000000000E+00 0.  1.
         13    1    3    3    0    0 -0.26905701902E+02 -0.40659376871E+02  0.27701130280E+02  0.56075434382E+02  0.00000000000E+00 0. -1.
        -13    1    4    4    0    0 -0.11068633152E+02  0.30568027291E+02 -0.65419062135E+01  0.33161958164E+02  0.00000000000E+00 0.  1.
         13    1    4    4    0    0 -0.12867151879E+02 -0.31284464114E+02  0.80994261019E+02  0.87774435973E+02  0.00000000000E+00 0. -1.
         21    1    1    2  502  501  0.30607112391E+02  0.55234690014E+01  0.37305258476E+02  0.48569397244E+02  0.00000000000E+00 0. -1.
<scales pt_clust_5="13000.00000" pt_clust_6="13000.00000" pt_clust_7="13000.00000" pt_clust_8="13000.00000" pt_clust_9="31.10151"></scales>
<clustering>
<clus scale="   31.102">  1  9  2 -1</clus>
<clus scale="   91.518">  5  6 -1 -1</clus>
<clus scale="   91.725">  2  5  1 -1</clus>
<clus scale="   92.244">  7  8 -1 -1</clus>
<clus scale="   31.102">  1  5  2 -1</clus>
</clustering>
</event>
<event>
 9    1  0.1803370E-005  0.9840436E+02  0.7546771E-02  0.1283865E+00
         -3   -1    0    0    0  501 -0.00000000000E+00  0.00000000000E+00  0.35871041359E+03  0.35871041359E+03  0.00000000000E+00 0.  1.
          3   -1    0    0  502    0  0.00000000000E+00 -0.00000000000E+00 -0.55146650673E+02  0.55146650673E+02  0.00000000000E+00 0. -1.
         23    2    1    2    0    0 -0.45221202017E+02  0.24192224178E+01  0.23370997810E+03  0.25492460308E+03  0.91188758318E+02 0.  0.
         23    2    1    2    0    0  0.14921847149E+02  0.28208279889E+02  0.63630950685E+02  0.11540294858E+03  0.90832670769E+02 0.  0.
        -11    1    4    4    0    0 -0.24755538926E+02  0.46016784137E+02  0.28664750032E+02  0.59599068988E+02  0.00000000000E+00 0.  1.
         11    1    4    4    0    0  0.39677386075E+02 -0.17808504248E+02  0.34966200653E+02  0.55803879591E+02  0.00000000000E+00 0. -1.
        -11    1    3    3    0    0 -0.40144292773E+02  0.43763110316E+02  0.12161045394E+03  0.13533616137E+03  0.00000000000E+00 0.  1.
         11    1    3    3    0    0 -0.50769092436E+01 -0.41343887898E+02  0.11209952417E+03  0.11958844172E+03  0.00000000000E+00 0. -1.
         21    1    1    2  502  501  0.30299354867E+02 -0.30627502307E+02  0.62228341341E+01  0.43529512605E+02  0.00000000000E+00 0. -1.
<scales pt_clust_5="13000.00000" pt_clust_6="13000.00000" pt_clust_7="13000.00000" pt_clust_8="13000.00000" pt_clust_9="43.08242"></scales>
<clustering>
<clus scale="   43.082">  2  9  1 -1</clus>
<clus scale="   90.833">  5  6 -1 -1</clus>
<clus scale="   91.189">  7  8 -1 -1</clus>
<clus scale="   98.074">  2  5  1 -1</clus>
<clus scale="   43.082">  2  5  1 -1</clus>
</clustering>
</event>
<event>
 9    1  0.1897311E-005  0.9252008E+02  0.7546771E-02  0.1297091E+00
         -2   -1    0    0    0  501 -0.00000000000E+00  0.00000000000E+00  0.54648778135E+02  0.54648778135E+02  0.00000000000E+00 0.  1.
          2   -1    0    0  502    0  0.00000000000E+00 -0.00000000000E+00 -0.35888326508E+03  0.35888326508E+03  0.00000000000E+00 0. -1.
         23    2    1    2    0    0 -0.10359020969E+02 -0.66535572395E+01 -0.50579102923E+01  0.92900605616E+02  0.91942160775E+02 0.  0.
         23    2    1    2    0    0 -0.10688337742E+02  0.12350338618E+02 -0.25347301712E+03  0.26999291490E+03  0.91546885598E+02 0.  0.
        -11    1    3    3    0    0  0.18977691504E+02  0.10579944860E+02 -0.39124768196E+02  0.44753050114E+02  0.00000000000E+00 0. -1.
         11    1    3    3    0    0 -0.29336712474E+02 -0.17233502100E+02  0.34066857904E+02  0.48147555502E+02  0.00000000000E+00 0.  1.
        -13    1    4    4    0    0 -0.11364664872E+02  0.51661070888E+02 -0.12783202489E+03  0.13834394978E+03  0.00000000000E+00 0. -1.
         13    1    4    4    0    0  0.67632713020E+00 -0.39310732270E+02 -0.12564099223E+03  0.13164896512E+03  0.00000000000E+00 0.  1.
         21    1    1    2  502  501  0.21047358711E+02 -0.56967813781E+01 -0.45703559528E+02  0.50638522690E+02  0.00000000000E+00 0. -1.
<scales pt_clust_5="13000.00000" pt_clust_6="13000.00000" pt_clust_7="13000.00000" pt_clust_8="13000.00000" pt_clust_9="21.80469"></scales>
<clustering>
<clus scale="   21.805">  2  9  1 -1</clus>
<clus scale="   91.547">  7  8 -1 -1</clus>
<clus scale="   91.942">  5  6 -1 -1</clus>
<clus scale="   92.127">  2  7  1 -1</clus>
<clus scale="   21.805">  2  5  1 -1</clus>
</clustering>
</event>
<event>
 9    1  0.1803370E-005  0.1384857E+03  0.7546771E-02  0.1216295E+00
         -2   -1    0    0    0  501 -0.00000000000E+00  0.00000000000E+00  0.83479086970E+02  0.83479086970E+02  0.00000000000E+00 0.  1.
          2   -1    0    0  502    0  0.00000000000E+00 -0.00000000000E+00 -0.62623309600E+03  0.62623309600E+03  0.00000000000E+00 0. -1.
         23    2    1    2    0    0  0.33609712220E+02  0.63495212714E+02  0.46093317223E+01  0.11583639662E+03  0.90750041595E+02 0.  0.
         23    2    1    2    0    0  0.12464180192E+02 -0.10745650273E+03 -0.48048492061E+03  0.50152795658E+03  0.94669300903E+02 0.  0.
        -13    1    4    4    0    0 -0.29427817451E+02 -0.53063811118E+02 -0.33754261278E+03  0.34295302876E+03  0.00000000000E+00 0.  1.
         13    1    4    4    0    0  0.41891997644E+02 -0.54392691616E+02 -0.14294230783E+03  0.15857492783E+03  0.00000000000E+00 0. -1.
        -13    1    3    3    0    0 -0.57113721263E+01  0.70890713632E+02  0.18493193789E+02  0.73485449358E+02  0.00000000000E+00 0.  1.
         13    1    3    3    0    0  0.39321084346E+02 -0.73955009175E+01 -0.13883862067E+02  0.42350947261E+02  0.00000000000E+00 0. -1.
         21    1    1    2  502  501 -0.46073892412E+02  0.43961290020E+02 -0.66878420144E+02  0.92347829769E+02  0.00000000000E+00 0.  1.
<scales pt_clust_5="13000.00000" pt_clust_6="13000.00000" pt_clust_7="13000.00000" pt_clust_8="13000.00000" pt_clust_9="63.68201"></scales>
<clustering>
<clus scale="   63.682">  1  9  2 -1</clus>
<clus scale="   90.750">  7  8 -1 -1</clus>
<clus scale="   94.669">  5  6 -1 -1</clus>
<clus scale="  135.837">  1  7  2 -1</clus>
<clus scale="  138.486">  2  5  1 -1</clus>
</clustering>
</event>
<event>
 9    1  0.1803370E-005  0.1055989E+03  0.7546771E-02  0.1270303E+00
          1   -1    0    0  502    0  0.00000000000E+00  0.00000000000E+00  0.96922478753E+03  0.96922478753E+03  0.00000000000E+00 0. -1.
         -1   -1    0    0    0  501 -0.00000000000E+00 -0.00000000000E+00 -0.15917408392E+02  0.15917408392E+02  0.00000000000E+00 0.  1.
         23    2    1    2    0    0  0.41764350675E+02  0.31407848786E+02  0.30614236995E+03  0.32244452514E+03  0.86698368865E+02 0.  0.
         23    2    1    2    0    0 -0.28959297203E+02 -0.55998770931E+02  0.43151005372E+03  0.44526781390E+03  0.89933288545E+02 0.  0.
        -13    1    3    3    0    0 -0.22218913062E+02 -0.41971935395E+01  0.12559055840E+03  0.12760989338E+03  0.00000000000E+00 0. -1.
         13    1    3    3    0    0  0.63983263737E+02  0.35605042325E+02  0.18055181155E+03  0.19483463176E+03  0.00000000000E+00 0.  1.
        -13    1    4    4    0    0 -0.20437802731E+02  0.22395985837E+02  0.14272224048E+03  0.14590723728E+03  0.00000000000E+00 0.  1.
         13    1    4    4    0    0 -0.85214944718E+01 -0.78394756768E+02  0.28878781324E+03  0.29936057662E+03  0.00000000000E+00 0. -1.
         21    1    1    2  502  501 -0.12805053473E+02  0.24590922145E+02  0.21565495547E+03  0.21742985688E+03  0.00000000000E+00 0.  1.
<scales pt_clust_5="13000.00000" pt_clust_6="13000.00000" pt_clust_7="13000.00000" pt_clust_8="13000.00000" pt_clust_9="27.72513"></scales>
<clustering>
<clus scale="   27.725">  1  9  2 -1</clus>
<clus scale="   86.698">  5  6 -1 -1</clus>
<clus scale="   89.933">  7  8 -1 -1</clus>
<clus scale="  102.858">  2  5  1 -1</clus>
<clus scale="   27.725">  1  5  2 -1</clus>
</clustering>
</event>
<event>
 9    1  0.1803370E-005  0.1031686E+03  0.7546771E-02  0.1275049E+00
          1   -1    0    0  502    0  0.00000000000E+00  0.00000000000E+00  0.49785125167E+02  0.49785125167E+02  0.00000000000E+00 0. -1.
         -1   -1    0    0    0  501 -0.00000000000E+00 -0.00000000000E+00 -0.30718554043E+03  0.30718554043E+03  0.00000000000E+00 0.  1.
         23    2    1    2    0    0  0.20633702998E+02  0.48547434428E+02 -0.14671702612E+03  0.17889478550E+03  0.87720325123E+02 0.  0.
         23    2    1    2    0    0 -0.40282109151E+02 -0.28584654998E+02 -0.10889410806E+03  0.15000856896E+03  0.90580975776E+02 0.  0.
        -13    1    3    3    0    0  0.39549879601E+02  0.34893740983E+02 -0.14634898479E+03  0.15556282167E+03  0.00000000000E+00 0. -1.
         13    1    3    3    0    0 -0.18916176603E+02  0.13653693445E+02 -0.36804132317E+00  0.23331963835E+02  0.00000000000E+00 0.  1.
        -13    1    4    4    0    0  0.27902677377E+02 -0.84331253028E+01 -0.49132134778E+02  0.57128308876E+02  0.00000000000E+00 0.  1.
         13    1    4    4    0    0 -0.68184786529E+02 -0.20151529696E+02 -0.59761973287E+02  0.92880260089E+02  0.00000000000E+00 0. -1.
         21    1    1    2  502  501  0.19648406153E+02 -0.19962779430E+02 -0.17892810775E+01  0.28067311123E+02  0.00000000000E+00 0.  1.
<scales pt_clust_5="13000.00000" pt_clust_6="13000.00000" pt_clust_7="13000.00000" pt_clust_8="13000.00000" pt_clust_9="28.01022"></scales>
<clustering>
<clus scale="   28.010">  1  9  2 -1</clus>
<clus scale="   87.720">  5  6 -1 -1</clus>
<clus scale="   90.581">  7  8 -1 -1</clus>
<clus scale="  100.666">  2  5  1 -1</clus>
<clus scale="   28.010">  1  5  2 -1</clus>
</clustering>
</event>
<event>
 9    1  0.1803370E-005  0.1022886E+03  0.7546771E-02  0.1276777E+00
          1   -1    0    0  502    0  0.00000000000E+00  0.00000000000E+00  0.70259559542E+03  0.70259559542E+03  0.00000000000E+00 0. -1.
         -1   -1    0    0    0  501 -0.00000000000E+00 -0.00000000000E+00 -0.58381016288E+02  0.58381016288E+02  0.00000000000E+00 0.  1.
         23    2    1    2    0    0 -0.37075119017E+02  0.37912509002E+01 -0.27544535625E+01  0.99218829047E+02  0.91912191735E+02 0.  0.
         23    2    1    2    0    0  0.57781171562E+02 -0.19932464752E+02  0.50545037812E+03  0.51782443354E+03  0.94477998983E+02 0.  0.
        -11    1    3    3    0    0 -0.11083212314E+02 -0.41273988262E+02  0.13327772578E+02  0.44766161597E+02  0.00000000000E+00 0.  1.
         11    1    3    3    0    0 -0.25991906704E+02  0.45065239162E+02 -0.16082226140E+02  0.54452667450E+02  0.00000000000E+00 0. -1.
        -13    1    4    4    0    0  0.82403781588E+02 -0.23514598671E+02  0.42732422955E+03  0.43583175278E+03  0.00000000000E+00 0. -1.
         13    1    4    4    0    0 -0.24622610027E+02  0.35821339197E+01  0.78126148570E+02  0.81992680761E+02  0.00000000000E+00 0.  1.
         21    1    1    2  502  501 -0.20706052544E+02  0.16141213852E+02  0.14151865457E+03  0.14393334912E+03  0.00000000000E+00 0.  1.
<scales pt_clust_5="13000.00000" pt_clust_6="13000.00000" pt_clust_7="13000.00000" pt_clust_8="13000.00000" pt_clust_9="26.25413"></scales>
<clustering>
<clus scale="   26.254">  1  9  2 -1</clus>
<clus scale="   91.912">  5  6 -1 -1</clus>
<clus scale="   94.478">  7  8 -1 -1</clus>
<clus scale="   99.924">  2  5  1 -1</clus>
<clus scale="   26.254">  1  5  2 -1</clus>
</clustering>
</event>
<event>
 9    1  0.1803370E-005  0.9526720E+02  0.7546771E-02  0.1292725E+00
          2   -1    0    0  502    0  0.00000000000E+00  0.00000000000E+00  0.59733847659E+02  0.59733847659E+02  0.00000000000E+00 0. -1.
         -2   -1    0    0    0  501 -0.00000000000E+00 -0.00000000000E+00 -0.22922009058E+03  0.22922009058E+03  0.00000000000E+00 0.  1.
         23    2    1    2    0    0 -0.39790489590E+01  0.38880554320E+02 -0.10102397185E+03  0.13914076060E+03  0.87331426405E+02 0.  0.
         23    2    1    2    0    0  0.10188857568E+02 -0.12438070836E+02 -0.77904157387E+02  0.12105703268E+03  0.91253651976E+02 0.  0.
        -13    1    3    3    0    0  0.25220211788E+02  0.54388163532E+02 -0.79961557403E+02  0.99939892321E+02  0.00000000000E+00 0.  1.
         13    1    3    3    0    0 -0.29199260747E+02 -0.15507609211E+02 -0.21062414445E+02  0.39200868279E+02  0.00000000000E+00 0. -1.
        -13    1    4    4    0    0  0.25398478206E+02  0.97032167972E+01 -0.88195332122E+02  0.92291124815E+02  0.00000000000E+00 0.  1.
         13    1    4    4    0    0 -0.15209620638E+02 -0.22141287633E+02  0.10291174735E+02  0.28765907867E+02  0.00000000000E+00 0. -1.
         21    1    1    2  502  501 -0.62098086090E+01 -0.26442483485E+02  0.94418863100E+01  0.28756144959E+02  0.00000000000E+00 0. -1.
<scales pt_clust_5="13000.00000" pt_clust_6="13000.00000" pt_clust_7="13000.00000" pt_clust_8="13000.00000" pt_clust_9="27.16186"></scales>
<clustering>
<clus scale="   27.162">  1  9  2 -1</clus>
<clus scale="   87.331">  5  6 -1 -1</clus>
<clus scale="   91.254">  7  8 -1 -1</clus>
<clus scale="   91.517">  2  5  1 -1</clus>
<clus scale="   27.162">  1  5  2 -1</clus>
</clustering>
</event>
<event>
 9    1  0.1803370E-005  0.1455974E+03  0.7546771E-02  0.1224504E+00
         -1   -1    0    0    0  501 -0.00000000000E+00  0.00000000000E+00  0.11341434906E+04  0.11341434906E+04  0.00000000000E+00 0.  1.
          1   -1    0    0  502    0  0.00000000000E+00 -0.00000000000E+00 -0.38566050796E+02  0.38566050796E+02  0.00000000000E+00 0. -1.
         23    2    1    2    0    0  0.24510324412E+02 -0.90191538682E+02  0.20392246316E+03  0.24225885751E+03  0.91486137805E+02 0.  0.
         23    2    1    2    0    0 -0.61201467210E+01 -0.26581672707E+02  0.14971736000E+03  0.17915473119E+03  0.94536174576E+02 0.  0.
        -11    1    4    4    0    0 -0.28806412000E+02 -0.43705167983E+02  0.13942211687E+03  0.14892440282E+03  0.00000000000E+00 0. -1.
         11    1    4    4    0    0  0.22686265279E+02  0.17123495276E+02  0.10295243129E+02  0.30230328378E+02  0.00000000000E+00 0.  1.
        -11    1    3    3    0    0 -0.31484912124E+02 -0.11009653622E+02  0.43747162167E+02  0.55012056515E+02  0.00000000000E+00 0.  1.
         11    1    3    3    0    0  0.55995236537E+02 -0.79181885060E+02  0.16017530099E+03  0.18724680100E+03  0.00000000000E+00 0. -1.
         21    1    1    2  502  501 -0.18390177691E+02  0.11677321139E+03  0.74193761660E+03  0.75129595264E+03  0.00000000000E+00 0.  1.
<scales pt_clust_5="13000.00000" pt_clust_6="13000.00000" pt_clust_7="13000.00000" pt_clust_8="13000.00000" pt_clust_9="113.26470"></scales>
<clustering>
<clus scale="   91.486">  7  8 -1 -1</clus>
<clus scale="   94.536">  5  6 -1 -1</clus>
<clus scale="   98.393">  2  5  1 -1</clus>
<clus scale="  113.265">  1  9  2 -1</clus>
<clus scale="   98.393">  2  5  1 -1</clus>
</clustering>
</event>
<event>
 9    1  0.1803370E-005  0.9795082E+02  0.7546771E-02  0.1302588E+00
         -1   -1    0    0    0  501 -0.00000000000E+00  0.00000000000E+00  0.60661732754E+02  0.60661732754E+02  0.00000000000E+00 0.  1.
          1   -1    0    0  502    0  0.00000000000E+00 -0.00000000000E+00 -0.22980492792E+03  0.22980492792E+03  0.00000000000E+00 0. -1.
         23    2    1    2    0    0 -0.23792850708E+02  0.43179561383E+02 -0.83894990665E+01  0.10280755363E+03  0.89824468401E+02 0.  0.
         23    2    1    2    0    0  0.19730046487E+02 -0.88025800147E+01 -0.10627754003E+03  0.12311505382E+03  0.58272127237E+02 0.  0.
        -11    1    4    4    0    0  0.24263524435E+01 -0.20993186642E+02 -0.98218137754E+02  0.10046593281E+03  0.00000000000E+00 0. -1.
         11    1    4    4    0    0  0.17303694043E+02  0.12190606627E+02 -0.80594022781E+01  0.22649121011E+02  0.00000000000E+00 0.  1.
        -11    1    3    3    0    0 -0.56546287914E+01  0.66741694731E+02  0.10180782440E+02  0.67750106815E+02  0.00000000000E+00 0.  1.
         11    1    3    3    0    0 -0.18138221916E+02 -0.23562133348E+02 -0.18570281506E+02  0.35057446818E+02  0.00000000000E+00 0. -1.
         21    1    1    2  502  501  0.40628042210E+01 -0.34376981368E+02 -0.54476156067E+02  0.64544053219E+02  0.00000000000E+00 0. -1.
<scales pt_clust_5="13000.00000" pt_clust_6="13000.00000" pt_clust_7="13000.00000" pt_clust_8="13000.00000" pt_clust_9="34.61623"></scales>
<clustering>
<clus scale="   34.616">  2  9  1 -1</clus>
<clus scale="   58.272">  5  6 -1 -1</clus>
<clus scale="   70.154">  2  5  1 -1</clus>
<clus scale="   89.824">  7  8 -1 -1</clus>
<clus scale="   34.616">  2  5  1 -1</clus>
</clustering>
</event>
<event>
 9    1  0.1803370E-005  0.9181198E+02  0.7546771E-02  0.1299116E+00
          1   -1    0    0  502    0  0.00000000000E+00  0.00000000000E+00  0.20520793905E+03  0.20520793905E+03  0.00000000000E+00 0. -1.
         -1   -1    0    0    0  501 -0.00000000000E+00 -0.00000000000E+00 -0.21682403902E+03  0.21682403902E+03  0.00000000000E+00 0.  1.
         23    2    1    2    0    0  0.10328336180E+02  0.10235267855E+02 -0.85181768572E+02  0.12569422043E+03  0.91277971693E+02 0.  0.
         23    2    1    2    0    0  0.31045093657E+02  0.92479128072E+01 -0.86938114335E+02  0.12944611806E+03  0.90270371807E+02 0.  0.
        -11    1    3    3    0    0 -0.15116205266E+02 -0.36078660013E+02 -0.30049621196E+02  0.49326961228E+02  0.00000000000E+00 0.  1.
         11    1    3    3    0    0  0.25444541445E+02  0.46313927868E+02 -0.55132147376E+02  0.76367259204E+02  0.00000000000E+00 0. -1.
        -13    1    4    4    0    0 -0.23667303082E+02  0.27323566982E+02 -0.20711715927E+02  0.41661657726E+02  0.00000000000E+00 0. -1.
         13    1    4    4    0    0  0.54712396739E+02 -0.18075654175E+02 -0.66226398408E+02  0.87784460338E+02  0.00000000000E+00 0.  1.
         21    1    1    2  502  501 -0.41373429836E+02 -0.19483180662E+02  0.16050378293E+03  0.16689163958E+03  0.00000000000E+00 0. -1.
<scales pt_clust_5="13000.00000" pt_clust_6="13000.00000" pt_clust_7="13000.00000" pt_clust_8="13000.00000" pt_clust_9="45.73134"></scales>
<clustering>
<clus scale="   45.731">  1  9  2 -1</clus>
<clus scale="   90.270">  7  8 -1 -1</clus>
<clus scale="   90.810">  1  7  2 -1</clus>
<clus scale="   91.278">  5  6 -1 -1</clus>
<clus scale="   45.731">  1  5  2 -1</clus>
</clustering>
</event>
<event>
 9    1  0.1803370E-005  0.1183209E+03  0.7546771E-02  0.1246023E+00
         -1   -1    0    0    0  501 -0.00000000000E+00  0.00000000000E+00  0.39290919719E+03  0.39290919719E+03  0.00000000000E+00 0.  1.
          1   -1    0    0  502    0  0.00000000000E+00 -0.00000000000E+00 -0.82932243665E+02  0.82932243665E+02  0.00000000000E+00 0. -1.
         23    2    1    2    0    0  0.56925196490E+02  0.23946353219E+02  0.20866960603E+03  0.23556555055E+03  0.90189901315E+02 0.  0.
         23    2    1    2    0    0 -0.10798435325E+03 -0.58838625353E+02  0.90372193467E+02  0.17747393382E+03  0.90593926143E+02 0.  0.
        -11    1    3    3    0    0  0.43229245068E+02  0.55261939808E+02  0.10397642101E+03  0.12543422877E+03  0.00000000000E+00 0.  1.
         11    1    3    3    0    0  0.13695951422E+02 -0.31315586589E+02  0.10469318502E+03  0.11013132179E+03  0.00000000000E+00 0. -1.
        -13    1    4    4    0    0 -0.76076391737E+02 -0.12154783552E+02  0.78545314331E+01  0.77440621168E+02  0.00000000000E+00 0. -1.
         13    1    4    4    0    0 -0.31907961518E+02 -0.46683841801E+02  0.82517662034E+02  0.10003331266E+03  0.00000000000E+00 0.  1.
         21    1    1    2  502  501  0.51059156764E+02  0.34892272134E+02  0.10935154034E+02  0.62801956481E+02  0.00000000000E+00 0. -1.
<scales pt_clust_5="13000.00000" pt_clust_6="13000.00000" pt_clust_7="13000.00000" pt_clust_8="13000.00000" pt_clust_9="61.84261"></scales>
<clustering>
<clus scale="   61.843">  2  9  1 -1</clus>
<clus scale="   90.190">  5  6 -1 -1</clus>
<clus scale="   90.594">  7  8 -1 -1</clus>
<clus scale="  118.012">  1  5  2 -1</clus>
<clus scale="   61.843">  2  5  1 -1</clus>
</clustering>
</event>
<event>
 9    1  0.1803370E-005  0.2121386E+03  0.7546771E-02  0.1139983E+00
         -2   -1    0    0    0  501 -0.00000000000E+00  0.00000000000E+00  0.29478190244E+02  0.29478190244E+02  0.00000000000E+00 0.  1.
          2   -1    0    0  502    0  0.00000000000E+00 -0.00000000000E+00 -0.18659836117E+04  0.18659836117E+04  0.00000000000E+00 0. -1.
         23    2    1    2    0    0 -0.57632129618E+02 -0.17304285681E+03 -0.63393805837E+03  0.66599837069E+03  0.91711914445E+02 0.  0.
         23    2    1    2    0    0  0.43938198462E+02  0.19993834610E+03 -0.10262550537E+04  0.10505865978E+04  0.92880874117E+02 0.  0.
        -11    1    4    4    0    0 -0.27088585965E+02  0.83014683181E+02 -0.36109004569E+03  0.37149865439E+03  0.00000000000E+00 0.  1.
         11    1    4    4    0    0  0.71026784427E+02  0.11692366291E+03 -0.66516500796E+03  0.67908794340E+03  0.00000000000E+00 0. -1.
        -11    1    3    3    0    0  0.24497962322E+02 -0.36734085970E+02 -0.11403357734E+03  0.12228327764E+03  0.00000000000E+00 0. -1.
         11    1    3    3    0    0 -0.82130091940E+02 -0.13630877084E+03 -0.51990448104E+03  0.54371509305E+03  0.00000000000E+00 0.  1.
         21    1    1    2  502  501  0.13693931156E+02 -0.26895489288E+02 -0.17631230939E+03  0.17887683342E+03  0.00000000000E+00 0. -1.
<scales pt_clust_5="13000.00000" pt_clust_6="13000.00000" pt_clust_7="13000.00000" pt_clust_8="13000.00000" pt_clust_9="30.18097"></scales>
<clustering>
<clus scale="   30.181">  2  9  1 -1</clus>
<clus scale="   91.712">  7  8 -1 -1</clus>
<clus scale="   92.881">  5  6 -1 -1</clus>
<clus scale="  211.629">  1  7  2 -1</clus>
<clus scale="   30.181">  2  5  1 -1</clus>
</clustering>
</event>
<event>
 9    1  0.1803370E-005  0.1919591E+03  0.7546771E-02  0.1185548E+00
          2   -1    0    0  502    0  0.00000000000E+00  0.00000000000E+00  0.14045325246E+04  0.14045325246E+04  0.00000000000E+00 0. -1.
         -2   -1    0    0    0  501 -0.00000000000E+00 -0.00000000000E+00 -0.50461873618E+02  0.50461873618E+02  0.00000000000E+00 0.  1.
         23    2    1    2    0    0 -0.35219853033E+02  0.23245592809E+02  0.10342581056E+03  0.14342077853E+03  0.89954576277E+02 0.  0.
         23    2    1    2    0    0  0.18607325371E+03  0.34643839007E+02  0.47842135389E+03  0.52262682301E+03  0.91806061634E+02 0.  0.
        -11    1    3    3    0    0 -0.47671752404E+02 -0.18770437696E+02  0.34582607980E+02  0.61813284035E+02  0.00000000000E+00 0. -1.
         11    1    3    3    0    0  0.12451899371E+02  0.42016030505E+02  0.68843202576E+02  0.81607494498E+02  0.00000000000E+00 0.  1.
        -11    1    4    4    0    0  0.48715124228E+02 -0.22758084781E+02  0.19761200210E+03  0.20479647733E+03  0.00000000000E+00 0. -1.
         11    1    4    4    0    0  0.13735812948E+03  0.57401923787E+02  0.28080935178E+03  0.31783034568E+03  0.00000000000E+00 0.  1.
         21    1    1    2  502  501 -0.15085340068E+03 -0.57889431815E+02  0.77222348659E+03  0.78894679672E+03  0.00000000000E+00 0. -1.
<scales pt_clust_5="13000.00000" pt_clust_6="13000.00000" pt_clust_7="13000.00000" pt_clust_8="13000.00000" pt_clust_9="168.58220"></scales>
<clustering>
<clus scale="   89.955">  5  6 -1 -1</clus>
<clus scale="   91.806">  7  8 -1 -1</clus>
<clus scale="   99.361">  2  5  1 -1</clus>
<clus scale="  168.582">  1  9  2 -1</clus>
<clus scale="  168.582">  1  5  2 -1</clus>
</clustering>
</event>
<event>
 9    1  0.1803370E-005  0.1114511E+03  0.7546771E-02  0.1259864E+00
         -3   -1    0    0    0  501 -0.00000000000E+00  0.00000000000E+00  0.26037117092E+03  0.26037117092E+03  0.00000000000E+00 0.  1.
          3   -1    0    0  502    0  0.00000000000E+00 -0.00000000000E+00 -0.11376561422E+03  0.11376561422E+03  0.00000000000E+00 0. -1.
         23    2    1    2    0    0 -0.65854137378E+02  0.34385672576E+02  0.16369913836E+03  0.19897824710E+03  0.85298259253E+02 0.  0.
         23    2    1    2    0    0  0.45358614251E+02  0.29218353718E+02 -0.23630304511E+02  0.10801490562E+03  0.90541219694E+02 0.  0.
        -11    1    4    4    0    0 -0.40043092166E+01  0.31799381978E+02 -0.44097761164E+02  0.54514656067E+02  0.00000000000E+00 0. -1.
         11    1    4    4    0    0  0.49362923468E+02 -0.25810282598E+01  0.20467456653E+02  0.53500249551E+02  0.00000000000E+00 0.  1.
        -13    1    3    3    0    0 -0.75061876530E+02  0.13695045570E+01  0.13412777178E+03  0.15370888072E+03  0.00000000000E+00 0.  1.
         13    1    3    3    0    0  0.92077391516E+01  0.33016168019E+02  0.29571366587E+02  0.45269366383E+02  0.00000000000E+00 0. -1.
         21    1    1    2  502  501  0.20495523127E+02 -0.63604026294E+02  0.65367228416E+01  0.67143632420E+02  0.00000000000E+00 0.  1.
<scales pt_clust_5="13000.00000" pt_clust_6="13000.00000" pt_clust_7="13000.00000" pt_clust_8="13000.00000" pt_clust_9="66.82469"></scales>
<clustering>
<clus scale="   66.825">  2  9  1 -1</clus>
<clus scale="   85.298">  7  8 -1 -1</clus>
<clus scale="   90.541">  5  6 -1 -1</clus>
<clus scale="  107.235">  1  7  2 -1</clus>
<clus scale="   66.825">  2  5  1 -1</clus>
</clustering>
</event>
<event>
 9    1  0.1803370E-005  0.9261908E+02  0.7546771E-02  0.1302042E+00
          2   -1    0    0  502    0  0.00000000000E+00  0.00000000000E+00  0.20225292478E+03  0.20225292478E+03  0.00000000000E+00 0. -1.
         -2   -1    0    0    0  501 -0.00000000000E+00 -0.00000000000E+00 -0.58186830635E+02  0.58186830635E+02  0.00000000000E+00 0.  1.
         23    2    1    2    0    0 -0.81990177205E+01 -0.22403458313E+01  0.18366693778E+02  0.84688200131E+02  0.82234498601E+02 0.  0.
         23    2    1    2    0    0 -0.18055594727E+01  0.22980030854E+02  0.11916992448E+03  0.15181705811E+03  0.91189946650E+02 0.  0.
        -11    1    4    4    0    0 -0.43250269474E+02  0.14843019823E+02  0.34788617974E+02  0.57455626248E+02  0.00000000000E+00 0. -1.
         11    1    4    4    0    0  0.41444710002E+02  0.81370110315E+01  0.84381306506E+02  0.94361431863E+02  0.00000000000E+00 0.  1.
        -13    1    3    3    0    0  0.19734860954E+02 -0.30977314910E+02  0.24491860254E+02  0.44146460726E+02  0.00000000000E+00 0. -1.
         13    1    3    3    0    0 -0.27933878675E+02  0.28736969079E+02 -0.61251664757E+01  0.40541739405E+02  0.00000000000E+00 0.  1.
         21    1    1    2  502  501  0.10004577193E+02 -0.20739685023E+02  0.65294758894E+01  0.23934497176E+02  0.00000000000E+00 0. -1.
<scales pt_clust_5="13000.00000" pt_clust_6="13000.00000" pt_clust_7="13000.00000" pt_clust_8="13000.00000" pt_clust_9="23.02664"></scales>
<clustering>
<clus scale="   23.027">  2  9  1 -1</clus>
<clus scale="   82.234">  7  8 -1 -1</clus>
<clus scale="   83.816">  2  7  1 -1</clus>
<clus scale="   91.190">  5  6 -1 -1</clus>
<clus scale="   92.619">  1  5  2 -1</clus>
</clustering>
</event>
<event>
 9    1  0.1803370E-005  0.9635529E+02  0.7546771E-02  0.1289481E+00
          2   -1    0    0  502    0  0.00000000000E+00  0.00000000000E+00  0.23695421469E+03  0.23695421469E+03  0.00000000000E+00 0. -1.
         -2   -1    0    0    0  501 -0.00000000000E+00 -0.00000000000E+00 -0.11758116461E+03  0.11758116461E+03  0.00000000000E+00 0.  1.
         23    2    1    2    0    0  0.83218144835E+01 -0.36129634611E+02 -0.40126303669E+02  0.10907440882E+03  0.94406055521E+02 0.  0.
         23    2    1    2    0    0  0.21499535786E+02 -0.40947135794E+02  0.10085906541E+03  0.14412575999E+03  0.91982529043E+02 0.  0.
        -11    1    4    4    0    0  0.52916593838E+02 -0.20757742433E+02  0.87739925229E+02  0.10454350412E+03  0.00000000000E+00 0.  1.
         11    1    4    4    0    0 -0.31417058052E+02 -0.20189393361E+02  0.13119140182E+02  0.39582255874E+02  0.00000000000E+00 0. -1.
        -13    1    3    3    0    0  0.28787469160E+02 -0.34210114101E+02 -0.63682450029E+02  0.77810698037E+02  0.00000000000E+00 0.  1.
         13    1    3    3    0    0 -0.20465654676E+02 -0.19195205102E+01  0.23556146359E+02  0.31263710778E+02  0.00000000000E+00 0. -1.
         21    1    1    2  502  501 -0.29821350269E+02  0.77076770405E+02  0.58640288342E+02  0.10133521049E+03  0.00000000000E+00 0. -1.
<scales pt_clust_5="13000.00000" pt_clust_6="13000.00000" pt_clust_7="13000.00000" pt_clust_8="13000.00000" pt_clust_9="82.64467"></scales>
<clustering>
<clus scale="   82.645">  1  9  2 -1</clus>
<clus scale="   91.983">  5  6 -1 -1</clus>
<clus scale="   93.982">  1  5  2 -1</clus>
<clus scale="   94.406">  7  8 -1 -1</clus>
<clus scale="   82.645">  1  5  2 -1</clus>
</clustering>
</event>
<event>
 9    1  0.1803370E-005  0.1236354E+03  0.7546771E-02  0.1238064E+00
         -1   -1    0    0    0  501 -0.00000000000E+00  0.00000000000E+00  0.40653595656E+02  0.40653595656E+02  0.00000000000E+00 0.  1.
          1   -1    0    0  502    0  0.00000000000E+00 -0.00000000000E+00 -0.62086010155E+03  0.62086010155E+03  0.00000000000E+00 0. -1.
         23    2    1    2    0    0 -0.87121937589E+02 -0.41706294539E+02 -0.29277647133E+03  0.32141145123E+03  0.90871402575E+02 0.  0.
         23    2    1    2    0    0  0.74348789304E+02  0.11987415930E+02 -0.28504132358E+03  0.30766660196E+03  0.87970115372E+02 0.  0.
        -11    1    3    3    0    0 -0.57753721191E+02  0.21619550840E+02 -0.11645225997E+03  0.13177263048E+03  0.00000000000E+00 0.  1.
         11    1    3    3    0    0 -0.29368216399E+02 -0.63325845379E+02 -0.17632421135E+03  0.18963882075E+03  0.00000000000E+00 0. -1.
        -13    1    4    4    0    0  0.45946879030E+02  0.39311939572E+02 -0.88326877289E+02  0.10704289578E+03  0.00000000000E+00 0.  1.
         13    1    4    4    0    0  0.28401910274E+02 -0.27324523641E+02 -0.19671444629E+03  0.20062370617E+03  0.00000000000E+00 0. -1.
         21    1    1    2  502  501  0.12773148286E+02  0.29718878609E+02 -0.23887109882E+01  0.32435644021E+02  0.00000000000E+00 0. -1.
<scales pt_clust_5="13000.00000" pt_clust_6="13000.00000" pt_clust_7="13000.00000" pt_clust_8="13000.00000" pt_clust_9="32.34757"></scales>
<clustering>
<clus scale="   32.348">  1  9  2 -1</clus>
<clus scale="   87.970">  7  8 -1 -1</clus>
<clus scale="   90.871">  5  6 -1 -1</clus>
<clus scale="  121.519">  2  7  1 -1</clus>
<clus scale="  121.519">  2  5  1 -1</clus>
</clustering>
</event>
<event>
 9    1  0.1803370E-005  0.1158404E+03  0.7546771E-02  0.1255130E+00
         -3   -1    0    0    0  501 -0.00000000000E+00  0.00000000000E+00  0.44258762732E+03  0.44258762732E+03  0.00000000000E+00 0.  1.
          3   -1    0    0  502    0  0.00000000000E+00 -0.00000000000E+00 -0.10396532156E+03  0.10396532156E+03  0.00000000000E+00 0. -1.
         23    2    1    2    0    0  0.25606720382E+02 -0.43042941799E+02  0.39567930673E+03  0.41255562676E+03  0.10550655160E+03 0.  0.
         23    2    1    2    0    0 -0.86745759659E+01  0.27646026790E+02 -0.40594673240E+02  0.10580564354E+03  0.93313212595E+02 0.  0.
        -13    1    4    4    0    0 -0.25635405786E+02  0.57673243262E+02 -0.23860232381E+02  0.67473607488E+02  0.00000000000E+00 0. -1.
         13    1    4    4    0    0  0.16960829820E+02 -0.30027216473E+02 -0.16734440859E+02  0.38332036055E+02  0.00000000000E+00 0.  1.
        -13    1    3    3    0    0 -0.94783154608E+01  0.28502937916E+02  0.54861852708E+02  0.62546613149E+02  0.00000000000E+00 0. -1.
         13    1    3    3    0    0  0.35085035843E+02 -0.71545879715E+02  0.34081745402E+03  0.35000901362E+03  0.00000000000E+00 0.  1.
         21    1    1    2  502  501 -0.16932144416E+02  0.15396915009E+02 -0.16462327737E+02  0.28191678574E+02  0.00000000000E+00 0. -1.
<scales pt_clust_5="13000.00000" pt_clust_6="13000.00000" pt_clust_7="13000.00000" pt_clust_8="13000.00000" pt_clust_9="22.88586"></scales>
<clustering>
<clus scale="   22.886">  2  9  1 -1</clus>
<clus scale="   93.313">  5  6 -1 -1</clus>
<clus scale="  104.856">  2  5  1 -1</clus>
<clus scale="  105.507">  7  8 -1 -1</clus>
<clus scale="   22.886">  2  5  1 -1</clus>
</clustering>
</event>
<event>
 9    1  0.1803370E-005  0.9864723E+02  0.7546771E-02  0.1284838E+00
          2   -1    0    0  502    0  0.00000000000E+00  0.00000000000E+00  0.70668498240E+03  0.70668498240E+03  0.00000000000E+00 0. -1.
         -2   -1    0    0    0  501 -0.00000000000E+00 -0.00000000000E+00 -0.26680772561E+02  0.26680772561E+02  0.00000000000E+00 0.  1.
         23    2    1    2    0    0 -0.34450827271E+02 -0.30396314736E+02  0.15819714715E+03  0.18691352622E+03  0.88314967422E+02 0.  0.
         23    2    1    2    0    0  0.36557749914E+02 -0.28848236109E+02  0.31797442412E+03  0.33417387262E+03  0.91628341378E+02 0.  0.
        -11    1    4    4    0    0  0.39176111296E+00 -0.56961566825E+02  0.17360461206E+03  0.18271106945E+03  0.00000000000E+00 0.  1.
         11    1    4    4    0    0  0.36165988801E+02  0.28113330716E+02  0.14436981206E+03  0.15146280317E+03  0.00000000000E+00 0. -1.
        -11    1    3    3    0    0 -0.12564506141E+02 -0.56746805722E+02  0.62873591493E+02  0.85622165830E+02  0.00000000000E+00 0.  1.
         11    1    3    3    0    0 -0.21886321130E+02  0.26350490986E+02  0.95323555655E+02  0.10129136039E+03  0.00000000000E+00 0. -1.
         21    1    1    2  502  501 -0.21069226431E+01  0.59244550845E+02  0.20383263857E+03  0.21227835611E+03  0.00000000000E+00 0. -1.
<scales pt_clust_5="13000.00000" pt_clust_6="13000.00000" pt_clust_7="13000.00000" pt_clust_8="13000.00000" pt_clust_9="59.28200"></scales>
<clustering>
<clus scale="   59.282">  1  9  2 -1</clus>
<clus scale="   88.315">  7  8 -1 -1</clus>
<clus scale="   91.628">  5  6 -1 -1</clus>
<clus scale="   95.577">  2  7  1 -1</clus>
<clus scale="   59.282">  1  5  2 -1</clus>
</clustering>
</event>
<event>
 9    1  0.1803370E-005  0.1002232E+03  0.7546771E-02  0.1287361E+00
          1   -1    0    0  502    0  0.00000000000E+00  0.00000000000E+00  0.52202168588E+02  0.52202168588E+02  0.00000000000E+00 0. -1.
         -1   -1    0    0    0  501 -0.00000000000E+00 -0.00000000000E+00 -0.33906472388E+03  0.33906472388E+03  0.00000000000E+00 0.  1.
         23    2    1    2    0    0 -0.13089035937E+01  0.43930003586E+02 -0.19878876734E+03  0.21775192621E+03  0.77248746935E+02 0.  0.
         23    2    1    2    0    0  0.34949089002E+02 -0.24411903837E+02 -0.88577716804E+02  0.13461930794E+03  0.91972638780E+02 0.  0.
        -11    1    3    3    0    0 -0.32075430687E+02  0.25771662145E+02 -0.50096031007E+02  0.64827649550E+02  0.00000000000E+00 0.  1.
         11    1    3    3    0    0  0.30766527093E+02  0.18158341441E+02 -0.14869273633E+03  0.15292427666E+03  0.00000000000E+00 0. -1.
        -13    1    4    4    0    0 -0.18038094201E+02 -0.20436961924E+02 -0.74965193521E+02  0.79767302165E+02  0.00000000000E+00 0.  1.
         13    1    4    4    0    0  0.52987183204E+02 -0.39749419128E+01 -0.13612523283E+02  0.54852005772E+02  0.00000000000E+00 0. -1.
         21    1    1    2  502  501 -0.33640185408E+02 -0.19518099749E+02  0.50392885154E+00  0.38895658323E+02  0.00000000000E+00 0. -1.
<scales pt_clust_5="13000.00000" pt_clust_6="13000.00000" pt_clust_7="13000.00000" pt_clust_8="13000.00000" pt_clust_9="38.89239"></scales>
<clustering>
<clus scale="   38.892">  1  9  2 -1</clus>
<clus scale="   77.249">  5  6 -1 -1</clus>
<clus scale="   86.908">  2  5  1 -1</clus>
<clus scale="   91.973">  7  8 -1 -1</clus>
<clus scale="   38.892">  1  5  2 -1</clus>
</clustering>
</event>
<event>
 9    1  0.1803370E-005  0.9542150E+02  0.7546771E-02  0.1290448E+00
         -1   -1    0    0    0  501 -0.00000000000E+00  0.00000000000E+00  0.20852669791E+03  0.20852669791E+03  0.00000000000E+00 0.  1.
          1   -1    0    0  502    0  0.00000000000E+00 -0.00000000000E+00 -0.53552419803E+03  0.53552419803E+03  0.00000000000E+00 0. -1.
         23    2    1    2    0    0 -0.17974660285E+02 -0.19059100871E+02  0.18780319954E+03  0.21060134428E+03  0.91632672769E+02 0.  0.
         23    2    1    2    0    0 -0.47200103675E+01 -0.13576109010E+02 -0.42740621134E+03  0.43743964805E+03  0.92036878287E+02 0.  0.
        -11    1    3    3    0    0 -0.25367550932E+02  0.17731989842E+02  0.16230998178E+03  0.16523457958E+03  0.00000000000E+00 0.  1.
         11    1    3    3    0    0  0.73928906472E+01 -0.36791090713E+02  0.25493217762E+02  0.45366764705E+02  0.00000000000E+00 0. -1.
        -13    1    4    4    0    0  0.37441908351E+02  0.16883743110E+02 -0.19680178517E+03  0.20104203523E+03  0.00000000000E+00 0.  1.
         13    1    4    4    0    0 -0.42161918719E+02 -0.30459852121E+02 -0.23060442617E+03  0.23639761283E+03  0.00000000000E+00 0. -1.
         21    1    1    2  502  501  0.22694670652E+02  0.32635209882E+02 -0.87394488320E+02  0.96009903597E+02  0.00000000000E+00 0.  1.
<scales pt_clust_5="13000.00000" pt_clust_6="13000.00000" pt_clust_7="13000.00000" pt_clust_8="13000.00000" pt_clust_9="39.75053"></scales>
<clustering>
<clus scale="   39.751">  2  9  1 -1</clus>
<clus scale="   91.633">  5  6 -1 -1</clus>
<clus scale="   92.037">  7  8 -1 -1</clus>
<clus scale="   95.032">  1  5  2 -1</clus>
<clus scale="   39.751">  2  5  1 -1</clus>
</clustering>
</event>
<event>
 9    1  0.1803370E-005  0.9883228E+02  0.7546771E-02  0.1284009E+00
          2   -1    0    0  502    0  0.00000000000E+00  0.00000000000E+00  0.49881388904E+03  0.49881388904E+03  0.00000000000E+00 0. -1.
         -2   -1    0    0    0  501 -0.00000000000E+00 -0.00000000000E+00 -0.90553345393E+02  0.90553345393E+02  0.00000000000E+00 0.  1.
         23    2    1    2    0    0  0.30256480161E+02 -0.23833685971E+02  0.14243016767E+03  0.17171629129E+03  0.87844367225E+02 0.  0.
         23    2    1    2    0    0 -0.45023835983E+02 -0.86170373095E+01  0.32947453989E+03  0.34470093395E+03  0.90354093939E+02 0.  0.
        -11    1    3    3    0    0  0.22054876077E+02  0.31381879848E+02  0.42479506105E+02  0.57234153968E+02  0.00000000000E+00 0.  1.
         11    1    3    3    0    0  0.82016040843E+01 -0.55215565819E+02  0.99950661566E+02  0.11448213732E+03  0.00000000000E+00 0. -1.
        -11    1    4    4    0    0 -0.32767063419E+02 -0.47907218298E+02  0.22618795089E+03  0.23351610467E+03  0.00000000000E+00 0.  1.
         11    1    4    4    0    0 -0.12256772564E+02  0.39290180989E+02  0.10328658900E+03  0.11118482929E+03  0.00000000000E+00 0. -1.
         21    1    1    2  502  501  0.14767355822E+02  0.32450723280E+02 -0.63644163919E+02  0.72950009187E+02  0.00000000000E+00 0.  1.
<scales pt_clust_5="13000.00000" pt_clust_6="13000.00000" pt_clust_7="13000.00000" pt_clust_8="13000.00000" pt_clust_9="35.65283"></scales>
<clustering>
<clus scale="   35.653">  2  9  1 -1</clus>
<clus scale="   87.844">  5  6 -1 -1</clus>
<clus scale="   90.354">  7  8 -1 -1</clus>
<clus scale="   96.543">  2  5  1 -1</clus>
<clus scale="   98.832">  1  5  2 -1</clus>
</clustering>
</event>
<event>
 9    1  0.1803370E-005  0.9812155E+02  0.7546771E-02  0.1285192E+00
          1   -1    0    0  502    0  0.00000000000E+00  0.00000000000E+00  0.48650005202E+03  0.48650005202E+03  0.00000000000E+00 0. -1.
         -1   -1    0    0    0  501 -0.00000000000E+00 -0.00000000000E+00 -0.16874337702E+03  0.16874337702E+03  0.00000000000E+00 0.  1.
         23    2    1    2    0    0  0.69987116632E+01 -0.28047438763E+02 -0.11237960715E+03  0.14838439920E+03  0.92483041882E+02 0.  0.
         23    2    1    2    0    0 -0.22123075912E+02  0.11458942740E+03  0.37512894875E+03  0.40320542923E+03  0.90734351887E+02 0.  0.
        -11    1    4    4    0    0 -0.48968461489E+01  0.12634662666E+03  0.33298625524E+03  0.35618435585E+03  0.00000000000E+00 0. -1.
         11    1    4    4    0    0 -0.17226229763E+02 -0.11757199257E+02  0.42142693508E+02  0.47021073385E+02  0.00000000000E+00 0.  1.
        -13    1    3    3    0    0 -0.26560910148E+02  0.43747643025E+01 -0.23595420717E+00  0.26919810270E+02  0.00000000000E+00 0. -1.
         13    1    3    3    0    0  0.33559621811E+02 -0.32422203066E+02 -0.11214365295E+03  0.12146458893E+03  0.00000000000E+00 0.  1.
         21    1    1    2  502  501  0.15124364248E+02 -0.86541988638E+02  0.55007333397E+02  0.10365360061E+03  0.00000000000E+00 0.  1.
<scales pt_clust_5="13000.00000" pt_clust_6="13000.00000" pt_clust_7="13000.00000" pt_clust_8="13000.00000" pt_clust_9="87.85364"></scales>
<clustering>
<clus scale="   87.854">  1  9  2 -1</clus>
<clus scale="   90.734">  5  6 -1 -1</clus>
<clus scale="   92.483">  7  8 -1 -1</clus>
<clus scale="   96.475">  1  5  2 -1</clus>
<clus scale="   87.854">  1  5  2 -1</clus>
</clustering>
</event>
<event>
 9    1  0.1803370E-005  0.9478874E+02  0.7546771E-02  0.1292068E+00
         -1   -1    0    0    0  501 -0.00000000000E+00  0.00000000000E+00  0.10138383638E+03  0.10138383638E+03  0.00000000000E+00 0.  1.
          1   -1    0    0  502    0  0.00000000000E+00 -0.00000000000E+00 -0.18100717715E+03  0.18100717715E+03  0.00000000000E+00 0. -1.
         23    2    1    2    0    0 -0.26850193757E+02  0.98613236556E+01  0.47739146761E+02  0.10740807715E+03  0.91865609968E+02 0.  0.
         23    2    1    2    0    0 -0.12918243201E+01 -0.11204716755E+02 -0.96394260660E+02  0.13311637500E+03  0.91109282281E+02 0.  0.
        -13    1    3    3    0    0  0.72848184954E+01  0.20058890845E+02  0.64571074473E+02  0.68006259572E+02  0.00000000000E+00 0.  1.
         13    1    3    3    0    0 -0.34135012252E+02 -0.10197567190E+02 -0.16831927711E+02  0.39401817579E+02  0.00000000000E+00 0. -1.
        -13    1    4    4    0    0 -0.28665346492E+02  0.10103828295E+02  0.29210730624E+00  0.30395308230E+02  0.00000000000E+00 0.  1.
         13    1    4    4    0    0  0.27373522172E+02 -0.21308545050E+02 -0.96686367966E+02  0.10272106677E+03  0.00000000000E+00 0. -1.
         21    1    1    2  502  501  0.28142018077E+02  0.13433930998E+01 -0.30968226871E+02  0.41866561382E+02  0.00000000000E+00 0.  1.
<scales pt_clust_5="13000.00000" pt_clust_6="13000.00000" pt_clust_7="13000.00000" pt_clust_8="13000.00000" pt_clust_9="28.17406"></scales>
<clustering>
<clus scale="   28.174">  2  9  1 -1</clus>
<clus scale="   91.109">  7  8 -1 -1</clus>
<clus scale="   91.866">  5  6 -1 -1</clus>
<clus scale="   94.056">  2  7  1 -1</clus>
<clus scale="   28.174">  2  5  1 -1</clus>
</clustering>
</event>
<event>
 9    1  0.1803370E-005  0.9295521E+02  0.7546771E-02  0.1296012E+00
         -1   -1    0    0    0  501 -0.00000000000E+00  0.00000000000E+00  0.12521361679E+03  0.12521361679E+03  0.00000000000E+00 0.  1.
          1   -1    0    0  502    0  0.00000000000E+00 -0.00000000000E+00 -0.12543270656E+03  0.12543270656E+03  0.00000000000E+00 0. -1.
         23    2    1    2    0    0 -0.45661070932E+00 -0.29012151665E+01  0.68551094416E+02  0.11437163544E+03  0.91504059503E+02 0.  0.
         23    2    1    2    0    0  0.20394438226E+02  0.89705675609E+00 -0.69084208530E+02  0.11623392374E+03  0.91219292578E+02 0.  0.
        -11    1    4    4    0    0  0.42964275048E+02  0.31012110455E+02 -0.54100636590E+02  0.75726869767E+02  0.00000000000E+00 0. -1.
         11    1    4    4    0    0 -0.22569836822E+02 -0.30115053699E+02 -0.14983571939E+02  0.40507053972E+02  0.00000000000E+00 0.  1.
        -11    1    3    3    0    0 -0.26720880436E+02  0.67717934445E+01  0.79632701958E+02  0.84268795286E+02  0.00000000000E+00 0.  1.
         11    1    3    3    0    0  0.26264269727E+02 -0.96730086110E+01 -0.11081607541E+02  0.30102840158E+02  0.00000000000E+00 0. -1.
         21    1    1    2  502  501 -0.19937827517E+02  0.20041584104E+01  0.31402434856E+00  0.20040764165E+02  0.00000000000E+00 0. -1.
<scales pt_clust_5="13000.00000" pt_clust_6="13000.00000" pt_clust_7="13000.00000" pt_clust_8="13000.00000" pt_clust_9="20.03830"></scales>
<clustering>
<clus scale="   20.038">  1  9  2 -1</clus>
<clus scale="   91.219">  5  6 -1 -1</clus>
<clus scale="   91.504">  7  8 -1 -1</clus>
<clus scale="   92.675">  2  5  1 -1</clus>
<clus scale="   92.675">  2  5  1 -1</clus>
</clustering>
</event>
<event>
 9    1  0.1803370E-005  0.1437345E+03  0.7546771E-02  0.1208569E+00
          2   -1    0    0  502    0  0.00000000000E+00  0.00000000000E+00  0.11207853268E+03  0.11207853268E+03  0.00000000000E+00 0.  1.
         -2   -1    0    0    0  501 -0.00000000000E+00 -0.00000000000E+00 -0.39894849516E+03  0.39894849516E+03  0.00000000000E+00 0. -1.
         23    2    1    2    0    0  0.80301816389E+02  0.87980714859E+02 -0.20867229967E+03  0.25628145100E+03  0.89146315549E+02 0.  0.
         23    2    1    2    0    0 -0.90873052055E+02 -0.54208475672E+02 -0.13115195669E+03  0.19105513483E+03  0.90026431543E+02 0.  0.
        -11    1    3    3    0    0  0.81091835408E+02  0.25941977328E+02 -0.13886138184E+03  0.16288448461E+03  0.00000000000E+00 0.  1.
         11    1    3    3    0    0 -0.79001901911E+00  0.62038737531E+02 -0.69810917823E+02  0.93396966395E+02  0.00000000000E+00 0. -1.
        -13    1    4    4    0    0 -0.38723042071E+02 -0.16376213189E+02  0.30861557351E+01  0.42156597383E+02  0.00000000000E+00 0.  1.
         13    1    4    4    0    0 -0.52150009984E+02 -0.37832262483E+02 -0.13423811243E+03  0.14889853745E+03  0.00000000000E+00 0. -1.
         21    1    1    2  502  501  0.10571235667E+02 -0.33772239188E+02  0.52954293874E+02  0.63690442006E+02  0.00000000000E+00 0.  1.
<scales pt_clust_5="13000.00000" pt_clust_6="13000.00000" pt_clust_7="13000.00000" pt_clust_8="13000.00000" pt_clust_9="35.38807"></scales>
<clustering>
<clus scale="   35.388">  1  9  2 -1</clus>
<clus scale="   89.146">  5  6 -1 -1</clus>
<clus scale="   90.026">  7  8 -1 -1</clus>
<clus scale="  143.185">  2  5  1 -1</clus>
<clus scale="   35.388">  1  5  2 -1</clus>
</clustering>
</event>
<event>
 9    1  0.1803370E-005  0.1595995E+03  0.7546771E-02  0.1206655E+00
         -2   -1    0    0    0  501 -0.00000000000E+00  0.00000000000E+00  0.14027807779E+03  0.14027807779E+03  0.00000000000E+00 0.  1.
          2   -1    0    0  502    0  0.00000000000E+00 -0.00000000000E+00 -0.46968328811E+03  0.46968328811E+03  0.00000000000E+00 0. -1.
         23    2    1    2    0    0 -0.12714602859E+03  0.61842466591E+02  0.14033011920E+02  0.15427616028E+03  0.60113267654E+02 0.  0.
         23    2    1    2    0    0 -0.50925604900E+02 -0.31536676878E+02 -0.75597029458E+02  0.13262661637E+03  0.91032572650E+02 0.  0.
        -13    1    4    4    0    0 -0.43672849737E+01 -0.23241988963E+02 -0.81598107181E+02  0.84955955203E+02  0.00000000000E+00 0. -1.
         13    1    4    4    0    0 -0.46558319927E+02 -0.82946879153E+01  0.60010777228E+01  0.47670661164E+02  0.00000000000E+00 0.  1.
        -13    1    3    3    0    0 -0.10248463734E+03  0.32411902666E+02  0.31621052842E+02  0.11204250670E+03  0.00000000000E+00 0.  1.
         13    1    3    3    0    0 -0.24661391248E+02  0.29430563925E+02 -0.17588040922E+02  0.42233653580E+02  0.00000000000E+00 0. -1.
         21    1    1    2  502  501  0.17807163349E+03 -0.30305789713E+02 -0.26784119278E+03  0.32305858926E+03  0.00000000000E+00 0. -1.
<scales pt_clust_5="13000.00000" pt_clust_6="13000.00000" pt_clust_7="13000.00000" pt_clust_8="13000.00000" pt_clust_9="147.84588"></scales>
<clustering>
<clus scale="   60.113">  7  8 -1 -1</clus>
<clus scale="   91.033">  5  6 -1 -1</clus>
<clus scale="  108.972">  2  5  1 -1</clus>
<clus scale="  147.846">  2  9  1 -1</clus>
<clus scale="  108.972">  2  5  1 -1</clus>
</clustering>
</event>
<event>
 9    1  0.1803370E-005  0.1424737E+03  0.7546771E-02  0.1210472E+00
          1   -1    0    0  502    0  0.00000000000E+00  0.00000000000E+00  0.11877171645E+04  0.11877171645E+04  0.00000000000E+00 0. -1.
         -1   -1    0    0    0  501 -0.00000000000E+00 -0.00000000000E+00 -0.25394392098E+02  0.25394392098E+02  0.00000000000E+00 0.  1.
         23    2    1    2    0    0  0.41865614815E+02 -0.97538189856E+02  0.40800708017E+03  0.43097427107E+03  0.89457345515E+02 0.  0.
         23    2    1    2    0    0 -0.82006277017E+02  0.82589633517E+02  0.42507748115E+03  0.45012443678E+03  0.91515389823E+02 0.  0.
        -11    1    3    3    0    0 -0.28225222386E+02 -0.31827307312E+02  0.11485174938E+03  0.12247679374E+03  0.00000000000E+00 0.  1.
         11    1    3    3    0    0  0.70090837201E+02 -0.65710882544E+02  0.29315533079E+03  0.30849747733E+03  0.00000000000E+00 0. -1.
        -11    1    4    4    0    0 -0.85574107380E+02  0.29545313594E+02  0.21212156098E+03  0.23063263004E+03  0.00000000000E+00 0.  1.
         11    1    4    4    0    0  0.35678303632E+01  0.53044319923E+02  0.21295592017E+03  0.21949180674E+03  0.00000000000E+00 0. -1.
         21    1    1    2  502  501  0.40140662202E+02  0.14948556339E+02  0.32923821108E+03  0.33201284875E+03  0.00000000000E+00 0. -1.
<scales pt_clust_5="13000.00000" pt_clust_6="13000.00000" pt_clust_7="13000.00000" pt_clust_8="13000.00000" pt_clust_9="42.83377"></scales>
<clustering>
<clus scale="   42.834">  1  9  2 -1</clus>
<clus scale="   89.457">  5  6 -1 -1</clus>
<clus scale="   91.515">  7  8 -1 -1</clus>
<clus scale="  141.161">  2  5  1 -1</clus>
<clus scale="   42.834">  1  5  2 -1</clus>
</clustering>
</event>
<event>
 9    1  0.1803370E-005  0.1641803E+03  0.7546771E-02  0.1184127E+00
          2   -1    0    0  502    0  0.00000000000E+00  0.00000000000E+00  0.42124096029E+03  0.42124096029E+03  0.00000000000E+00 0. -1.
         -2   -1    0    0    0  501 -0.00000000000E+00 -0.00000000000E+00 -0.22481504452E+03  0.22481504452E+03  0.00000000000E+00 0.  1.
         23    2    1    2    0    0 -0.90607484671E+02  0.99478999129E+02 -0.16295680678E+03  0.23024708501E+03  0.91394812405E+02 0.  0.
         23    2    1    2    0    0  0.94306365499E+02 -0.11997452839E+03  0.26414302465E+03  0.31831867161E+03  0.90926680291E+02 0.  0.
        -13    1    3    3    0    0 -0.99834387496E+02  0.62220375167E+02 -0.91121654826E+02  0.14879998653E+03  0.00000000000E+00 0.  1.
         13    1    3    3    0    0  0.92269028249E+01  0.37258623963E+02 -0.71835151950E+02  0.81447098481E+02  0.00000000000E+00 0. -1.
        -13    1    4    4    0    0  0.79219372374E+02 -0.38471004265E+02  0.92548961092E+02  0.12775381532E+03  0.00000000000E+00 0.  1.
         13    1    4    4    0    0  0.15086993124E+02 -0.81503524121E+02  0.17159406356E+03  0.19056485629E+03  0.00000000000E+00 0. -1.
         21    1    1    2  502  501 -0.36988808280E+01  0.20495529257E+02  0.95239697891E+02  0.97490248196E+02  0.00000000000E+00 0.  1.
<scales pt_clust_5="13000.00000" pt_clust_6="13000.00000" pt_clust_7="13000.00000" pt_clust_8="13000.00000" pt_clust_9="20.82663"></scales>
<clustering>
<clus scale="   20.827">  1  9  2 -1</clus>
<clus scale="   90.927">  7  8 -1 -1</clus>
<clus scale="   91.395">  5  6 -1 -1</clus>
<clus scale="  163.920">  1  7  2 -1</clus>
<clus scale="   20.827">  1  5  2 -1</clus>
</clustering>
</event>
<event>
 9    1  0.1803370E-005  0.1300803E+03  0.7546771E-02  0.1227524E+00
          1   -1    0    0  502    0  0.00000000000E+00  0.00000000000E+00  0.21099772462E+03  0.21099772462E+03  0.00000000000E+00 0. -1.
         -1   -1    0    0    0  501 -0.00000000000E+00 -0.00000000000E+00 -0.16914411608E+03  0.16914411608E+03  0.00000000000E+00 0.  1.
         23    2    1    2    0    0 -0.22829414667E+02  0.88677296596E+02 -0.61767034816E+02  0.14342578763E+03  0.91492867819E+02 0.  0.
         23    2    1    2    0    0 -0.10176809415E+02 -0.95321918712E+02  0.56608457404E+01  0.13313186616E+03  0.92207445333E+02 0.  0.
        -11    1    3    3    0    0 -0.47668846899E+02  0.12454988279E+02 -0.24260796896E+02  0.54918411883E+02  0.00000000000E+00 0.  1.
         11    1    3    3    0    0  0.24839432232E+02  0.76222308317E+02 -0.37506237920E+02  0.88507375747E+02  0.00000000000E+00 0. -1.
        -13    1    4    4    0    0 -0.36126647366E+02 -0.10003849133E+03  0.11128623642E+01  0.10636763070E+03  0.00000000000E+00 0.  1.
         13    1    4    4    0    0  0.25949837950E+02  0.47165726176E+01  0.45479833762E+01  0.26764235459E+02  0.00000000000E+00 0. -1.
         21    1    1    2  502  501  0.33006224082E+02  0.66446221162E+01  0.97959797615E+02  0.10358418692E+03  0.00000000000E+00 0. -1.
<scales pt_clust_5="13000.00000" pt_clust_6="13000.00000" pt_clust_7="13000.00000" pt_clust_8="13000.00000" pt_clust_9="33.66841"></scales>
<clustering>
<clus scale="   33.668">  1  9  2 -1</clus>
<clus scale="   91.493">  5  6 -1 -1</clus>
<clus scale="   92.207">  7  8 -1 -1</clus>
<clus scale="  129.575">  2  5  1 -1</clus>
<clus scale="   33.668">  1  5  2 -1</clus>
</clustering>
</event>
<event>
 9    1  0.1803370E-005  0.1123367E+03  0.7546771E-02  0.1256626E+00
          2   -1    0    0  502    0  0.00000000000E+00  0.00000000000E+00  0.26773067512E+03  0.26773067512E+03  0.00000000000E+00 0. -1.
         -2   -1    0    0    0  501 -0.00000000000E+00 -0.00000000000E+00 -0.85975214917E+02  0.85975214917E+02  0.00000000000E+00 0.  1.
         23    2    1    2    0    0 -0.38477070923E+02  0.23860797901E+02 -0.18976584482E+02  0.10441844230E+03  0.92158980410E+02 0.  0.
         23    2    1    2    0    0  0.57011712468E+02 -0.39011116877E+02  0.19250995827E+03  0.22397603120E+03  0.91285135256E+02 0.  0.
        -11    1    4    4    0    0 -0.21697843496E+02  0.62876003637E+01  0.51715690321E+02  0.56434412871E+02  0.00000000000E+00 0.  1.
         11    1    4    4    0    0  0.78709555964E+02 -0.45298717241E+02  0.14079426795E+03  0.16754161833E+03  0.00000000000E+00 0. -1.
        -13    1    3    3    0    0 -0.14812401229E+02  0.30531522919E+02 -0.52701849640E+02  0.62682262861E+02  0.00000000000E+00 0.  1.
         13    1    3    3    0    0 -0.23664669694E+02 -0.66707250178E+01  0.33725265159E+02  0.41736179437E+02  0.00000000000E+00 0. -1.
         21    1    1    2  502  501 -0.18534641545E+02  0.15150318976E+02  0.82220864117E+01  0.25311416540E+02  0.00000000000E+00 0. -1.
<scales pt_clust_5="13000.00000" pt_clust_6="13000.00000" pt_clust_7="13000.00000" pt_clust_8="13000.00000" pt_clust_9="23.93878"></scales>
<clustering>
<clus scale="   23.939">  2  9  1 -1</clus>
<clus scale="   91.285">  5  6 -1 -1</clus>
<clus scale="   92.159">  7  8 -1 -1</clus>
<clus scale="  111.621">  1  5  2 -1</clus>
<clus scale="  111.621">  1  5  2 -1</clus>
</clustering>
</event>
<event>
 9    1  0.1803370E-005  0.2403912E+03  0.7546771E-02  0.1119625E+00
          1   -1    0    0  502    0  0.00000000000E+00  0.00000000000E+00  0.10764625431E+04  0.10764625431E+04  0.00000000000E+00 0. -1.
         -1   -1    0    0    0  501 -0.00000000000E+00 -0.00000000000E+00 -0.11013626492E+03  0.11013626492E+03  0.00000000000E+00 0.  1.
         23    2    1    2    0    0  0.16901769448E+03  0.14005723864E+03  0.12024745967E+03  0.26635019130E+03  0.91104125606E+02 0.  0.
         23    2    1    2    0    0 -0.23772218850E+03 -0.69756618864E+02  0.62930135606E+03  0.68222560761E+03  0.89631234310E+02 0.  0.
        -11    1    4    4    0    0 -0.10186338188E+03 -0.29333521754E+02  0.38947754411E+03  0.40364509341E+03  0.00000000000E+00 0. -1.
         11    1    4    4    0    0 -0.13585880662E+03 -0.40423097110E+02  0.23982381194E+03  0.27858051420E+03  0.00000000000E+00 0.  1.
        -11    1    3    3    0    0  0.14580513437E+03  0.66559947503E+02  0.87480650504E+02  0.18259854335E+03  0.00000000000E+00 0.  1.
         11    1    3    3    0    0  0.23212560116E+02  0.73497291134E+02  0.32766809170E+02  0.83751647950E+02  0.00000000000E+00 0. -1.
         21    1    1    2  502  501  0.68704494016E+02 -0.70300619773E+02  0.21677746248E+03  0.23802300913E+03  0.00000000000E+00 0.  1.
<scales pt_clust_5="13000.00000" pt_clust_6="13000.00000" pt_clust_7="13000.00000" pt_clust_8="13000.00000" pt_clust_9="98.29794"></scales>
<clustering>
<clus scale="   89.631">  5  6 -1 -1</clus>
<clus scale="   91.104">  7  8 -1 -1</clus>
<clus scale="   98.298">  1  9  2 -1</clus>
<clus scale="  239.837">  1  5  2 -1</clus>
<clus scale="   98.298">  1  5  2 -1</clus>
</clustering>
</event>
<event>
 9    1  0.1803370E-005  0.1010808E+03  0.7546771E-02  0.1279286E+00
         -1   -1    0    0    0  501 -0.00000000000E+00  0.00000000000E+00  0.26981234030E+02  0.26981234030E+02  0.00000000000E+00 0.  1.
          1   -1    0    0  502    0  0.00000000000E+00 -0.00000000000E+00 -0.72177389595E+03  0.72177389595E+03  0.00000000000E+00 0. -1.
         23    2    1    2    0    0 -0.13739328777E+02  0.30731367969E+02 -0.11170626028E+03  0.14720321814E+03  0.89762535125E+02 0.  0.
         23    2    1    2    0    0  0.15888346655E+02 -0.62874812684E+02 -0.39842309832E+03  0.41409963815E+03  0.92368086578E+02 0.  0.
        -11    1    3    3    0    0  0.18997867297E+02  0.27978020602E+02 -0.33592042366E+01  0.33984891522E+02  0.00000000000E+00 0.  1.
         11    1    3    3    0    0 -0.32737196075E+02  0.27533473670E+01 -0.10834705604E+03  0.11321832662E+03  0.00000000000E+00 0. -1.
        -11    1    4    4    0    0  0.42118454295E+02 -0.17262212452E+02 -0.86260818040E+02  0.97533978181E+02  0.00000000000E+00 0.  1.
         11    1    4    4    0    0 -0.26230107640E+02 -0.45612600232E+02 -0.31216228028E+03  0.31656565997E+03  0.00000000000E+00 0. -1.
         21    1    1    2  502  501 -0.21490178780E+01  0.32143444715E+02 -0.18466330333E+03  0.18745227369E+03  0.00000000000E+00 0.  1.
<scales pt_clust_5="13000.00000" pt_clust_6="13000.00000" pt_clust_7="13000.00000" pt_clust_8="13000.00000" pt_clust_9="32.21520"></scales>
<clustering>
<clus scale="   32.215">  2  9  1 -1</clus>
<clus scale="   89.763">  5  6 -1 -1</clus>
<clus scale="   92.368">  7  8 -1 -1</clus>
<clus scale="   98.706">  1  5  2 -1</clus>
<clus scale="   32.215">  2  5  1 -1</clus>
</clustering>
</event>
<event>
 9    1  0.1803370E-005  0.1272128E+03  0.7546771E-02  0.1231791E+00
          1   -1    0    0  502    0  0.00000000000E+00  0.00000000000E+00  0.54924026141E+02  0.54924026141E+02  0.00000000000E+00 0. -1.
         -1   -1    0    0    0  501 -0.00000000000E+00 -0.00000000000E+00 -0.44899446136E+03  0.44899446136E+03  0.00000000000E+00 0.  1.
         23    2    1    2    0    0  0.79627842064E+02  0.53112530966E+01 -0.23644371305E+03  0.26630132257E+03  0.92962155310E+02 0.  0.
         23    2    1    2    0    0 -0.97233942469E+02  0.13235942826E+02 -0.16249270916E+03  0.21158543280E+03  0.93460607171E+02 0.  0.
        -11    1    3    3    0    0  0.54277674750E+01  0.31844975639E+02 -0.25615888055E+02  0.41227865020E+02  0.00000000000E+00 0.  1.
         11    1    3    3    0    0  0.74200074589E+02 -0.26533722543E+02 -0.21082782500E+03  0.22507345755E+03  0.00000000000E+00 0. -1.
        -13    1    4    4    0    0 -0.54463946519E+02  0.47205092619E+02 -0.12826706907E+03  0.14712947784E+03  0.00000000000E+00 0. -1.
         13    1    4    4    0    0 -0.42769995950E+02 -0.33969149793E+02 -0.34225640090E+02  0.64455954967E+02  0.00000000000E+00 0.  1.
         21    1    1    2  502  501  0.17606100405E+02 -0.18547195923E+02  0.48659869974E+01  0.26031732127E+02  0.00000000000E+00 0. -1.
<scales pt_clust_5="13000.00000" pt_clust_6="13000.00000" pt_clust_7="13000.00000" pt_clust_8="13000.00000" pt_clust_9="25.57290"></scales>
<clustering>
<clus scale="   25.573">  1  9  2 -1</clus>
<clus scale="   92.962">  5  6 -1 -1</clus>
<clus scale="   93.461">  7  8 -1 -1</clus>
<clus scale="  126.847">  2  5  1 -1</clus>
<clus scale="   25.573">  1  5  2 -1</clus>
</clustering>
</event>
<event>
 9    1  0.1803370E-005  0.1038920E+03  0.7546771E-02  0.1275097E+00
          3   -1    0    0  502    0  0.00000000000E+00  0.00000000000E+00  0.11024126044E+03  0.11024126044E+03  0.00000000000E+00 0. -1.
         -3   -1    0    0    0  501 -0.00000000000E+00 -0.00000000000E+00 -0.56170220628E+03  0.56170220628E+03  0.00000000000E+00 0.  1.
         23    2    1    2    0    0  0.17782284607E+02  0.40014217823E+02 -0.49899492779E+03  0.50991197042E+03  0.95377839892E+02 0.  0.
         23    2    1    2    0    0  0.13599370836E+02 -0.28090295746E+02 -0.10149321182E+02  0.95290566759E+02  0.89461029452E+02 0.  0.
        -11    1    4    4    0    0  0.77556928983E+01  0.27731098865E+02 -0.23994148469E+02  0.37481779271E+02  0.00000000000E+00 0.  1.
         11    1    4    4    0    0  0.58436779378E+01 -0.55821394611E+02  0.13844827287E+02  0.57808787488E+02  0.00000000000E+00 0. -1.
        -13    1    3    3    0    0 -0.14734793238E+02  0.62340330073E+02 -0.26619083431E+03  0.27379004941E+03  0.00000000000E+00 0. -1.
         13    1    3    3    0    0  0.32517077845E+02 -0.22326112250E+02 -0.23280409348E+03  0.23612192101E+03  0.00000000000E+00 0.  1.
         21    1    1    2  502  501 -0.31381655443E+02 -0.11923922077E+02  0.57683303132E+02  0.66740929543E+02  0.00000000000E+00 0. -1.
<scales pt_clust_5="13000.00000" pt_clust_6="13000.00000" pt_clust_7="13000.00000" pt_clust_8="13000.00000" pt_clust_9="33.57065"></scales>
<clustering>
<clus scale="   33.571">  1  9  2 -1</clus>
<clus scale="   89.461">  5  6 -1 -1</clus>
<clus scale="   95.378">  7  8 -1 -1</clus>
<clus scale="   98.488">  1  5  2 -1</clus>
<clus scale="   33.571">  1  5  2 -1</clus>
</clustering>
</event>
<event>
 9    1  0.1803370E-005  0.9782780E+02  0.7546771E-02  0.1285192E+00
         -1   -1    0    0    0  501 -0.00000000000E+00  0.00000000000E+00  0.10548795309E+03  0.10548795309E+03  0.00000000000E+00 0.  1.
          1   -1    0    0  502    0  0.00000000000E+00 -0.00000000000E+00 -0.23292226961E+03  0.23292226961E+03  0.00000000000E+00 0. -1.
         23    2    1    2    0    0  0.19922264600E+02  0.35970231566E+02  0.46500454546E+02  0.11020738409E+03  0.91063829529E+02 0.  0.
         23    2    1    2    0    0  0.18309615484E+01 -0.24634450967E+02 -0.59406049879E+02  0.11107670684E+03  0.90546935040E+02 0.  0.
        -11    1    4    4    0    0  0.21265746334E+02  0.11469019548E+02 -0.65324604041E+02  0.69649653766E+02  0.00000000000E+00 0.  1.
         11    1    4    4    0    0 -0.19434784786E+02 -0.36103470515E+02  0.59185541622E+01  0.41427053072E+02  0.00000000000E+00 0. -1.
        -13    1    3    3    0    0  0.39880843085E+02  0.19772792228E+02  0.64827471665E+02  0.78638705738E+02  0.00000000000E+00 0.  1.
         13    1    3    3    0    0 -0.19958578485E+02  0.16197439338E+02 -0.18327017119E+02  0.31568678349E+02  0.00000000000E+00 0. -1.
         21    1    1    2  502  501 -0.21753226149E+02 -0.11335780599E+02 -0.11452872118E+03  0.11712613178E+03  0.00000000000E+00 0. -1.
<scales pt_clust_5="13000.00000" pt_clust_6="13000.00000" pt_clust_7="13000.00000" pt_clust_8="13000.00000" pt_clust_9="24.52963"></scales>
<clustering>
<clus scale="   24.530">  2  9  1 -1</clus>
<clus scale="   90.547">  5  6 -1 -1</clus>
<clus scale="   91.064">  7  8 -1 -1</clus>
<clus scale="   97.347">  2  5  1 -1</clus>
<clus scale="   24.530">  2  5  1 -1</clus>
</clustering>
</event>
<event>
 9    1  0.1803370E-005  0.9753986E+02  0.7546771E-02  0.1286003E+00
          2   -1    0    0  502    0  0.00000000000E+00  0.00000000000E+00  0.59386237445E+03  0.59386237445E+03  0.00000000000E+00 0. -1.
         -2   -1    0    0    0  501 -0.00000000000E+00 -0.00000000000E+00 -0.37435123513E+02  0.37435123513E+02  0.00000000000E+00 0.  1.
         23    2    1    2    0    0 -0.19455385745E+02  0.14760589201E+02  0.97892454564E+02  0.13528593216E+03  0.90127486103E+02 0.  0.
         23    2    1    2    0    0  0.68036841934E+02  0.15746579195E+02  0.18840446016E+03  0.21985718190E+03  0.89241095955E+02 0.  0.
        -11    1    3    3    0    0 -0.83281215974E+01 -0.35492082460E+02  0.19057958754E+02  0.41136982370E+02  0.00000000000E+00 0. -1.
         11    1    3    3    0    0 -0.11127264147E+02  0.50252671661E+02  0.78834495810E+02  0.94148949788E+02  0.00000000000E+00 0.  1.
        -11    1    4    4    0    0  0.82292220031E+02 -0.36161000815E+01  0.10734727050E+03  0.13530898766E+03  0.00000000000E+00 0. -1.
         11    1    4    4    0    0 -0.14255378097E+02  0.19362679276E+02  0.81057189666E+02  0.84548194245E+02  0.00000000000E+00 0.  1.
         21    1    1    2  502  501 -0.48581456189E+02 -0.30507168396E+02  0.27013033621E+03  0.27615438391E+03  0.00000000000E+00 0. -1.
<scales pt_clust_5="13000.00000" pt_clust_6="13000.00000" pt_clust_7="13000.00000" pt_clust_8="13000.00000" pt_clust_9="57.36589"></scales>
<clustering>
<clus scale="   57.366">  1  9  2 -1</clus>
<clus scale="   89.241">  7  8 -1 -1</clus>
<clus scale="   90.127">  5  6 -1 -1</clus>
<clus scale="   96.721">  1  7  2 -1</clus>
<clus scale="   57.366">  1  5  2 -1</clus>
</clustering>
</event>
<event>
 9    1  0.1803370E-005  0.1040213E+03  0.7546771E-02  0.1272361E+00
         -2   -1    0    0    0  501 -0.00000000000E+00  0.00000000000E+00  0.30635161323E+02  0.30635161323E+02  0.00000000000E+00 0.  1.
          2   -1    0    0  502    0  0.00000000000E+00 -0.00000000000E+00 -0.91759389039E+03  0.91759389039E+03  0.00000000000E+00 0. -1.
         23    2    1    2    0    0 -0.30093786268E+02  0.53828414312E+02 -0.11419554899E+03  0.15861049094E+03  0.91178562556E+02 0.  0.
         23    2    1    2    0    0 -0.15794034221E+02 -0.25179832924E+02 -0.33852784185E+03  0.35202655644E+03  0.91859246832E+02 0.  0.
        -11    1    4    4    0    0 -0.52573850392E+02 -0.26453525296E+02 -0.23081359129E+03  0.23819889309E+03  0.00000000000E+00 0. -1.
         11    1    4    4    0    0  0.36779816171E+02  0.12736923725E+01 -0.10771425056E+03  0.11382766335E+03  0.00000000000E+00 0.  1.
        -11    1    3    3    0    0  0.17496128145E+02  0.35335318561E+02 -0.97046283852E+02  0.10475056299E+03  0.00000000000E+00 0. -1.
         11    1    3    3    0    0 -0.47589914412E+02  0.18493095751E+02 -0.17149265135E+02  0.53859927951E+02  0.00000000000E+00 0.  1.
         21    1    1    2  502  501  0.45887820488E+02 -0.28648581388E+02 -0.43423533823E+03  0.43759200433E+03  0.00000000000E+00 0. -1.
<scales pt_clust_5="13000.00000" pt_clust_6="13000.00000" pt_clust_7="13000.00000" pt_clust_8="13000.00000" pt_clust_9="54.09652"></scales>
<clustering>
<clus scale="   54.097">  2  9  1 -1</clus>
<clus scale="   91.179">  7  8 -1 -1</clus>
<clus scale="   91.859">  5  6 -1 -1</clus>
<clus scale="  103.421">  1  7  2 -1</clus>
<clus scale="   54.097">  2  5  1 -1</clus>
</clustering>
</event>
<event>
 9    1  0.1803370E-005  0.1187437E+03  0.7546771E-02  0.1252095E+00
          1   -1    0    0  502    0  0.00000000000E+00  0.00000000000E+00  0.35309766606E+03  0.35309766606E+03  0.00000000000E+00 0. -1.
         -1   -1    0    0    0  501 -0.00000000000E+00 -0.00000000000E+00 -0.47655071984E+02  0.47655071984E+02  0.00000000000E+00 0.  1.
         23    2    1    2    0    0  0.13997874855E+02  0.57201675312E+02  0.13587142361E+03  0.17410372932E+03  0.91559230286E+02 0.  0.
         23    2    1    2    0    0  0.10040932342E+02 -0.38689280488E+02  0.15375708213E+03  0.19243412302E+03  0.10859084055E+03 0.  0.
        -11    1    3    3    0    0  0.94258557502E+01  0.80794798488E+02  0.12113893455E+03  0.14591534423E+03  0.00000000000E+00 0.  1.
         11    1    3    3    0    0  0.45720191048E+01 -0.23593123176E+02  0.14732489067E+02  0.28188385090E+02  0.00000000000E+00 0. -1.
        -11    1    4    4    0    0 -0.26638670775E+02  0.27403825631E+02  0.68922886380E+02  0.78809597809E+02  0.00000000000E+00 0.  1.
         11    1    4    4    0    0  0.36679603117E+02 -0.66093106119E+02  0.84834195753E+02  0.11362452521E+03  0.00000000000E+00 0. -1.
         21    1    1    2  502  501 -0.24038807197E+02 -0.18512394824E+02  0.15814088329E+02  0.34214885697E+02  0.00000000000E+00 0.  1.
<scales pt_clust_5="13000.00000" pt_clust_6="13000.00000" pt_clust_7="13000.00000" pt_clust_8="13000.00000" pt_clust_9="30.34095"></scales>
<clustering>
<clus scale="   30.341">  2  9  1 -1</clus>
<clus scale="   91.559">  5  6 -1 -1</clus>
<clus scale="  103.398">  2  5  1 -1</clus>
<clus scale="  108.591">  7  8 -1 -1</clus>
<clus scale="  118.744">  1  5  2 -1</clus>
</clustering>
</event>
<event>
 9    1  0.1803370E-005  0.1774403E+03  0.7546771E-02  0.1170964E+00
          2   -1    0    0  502    0  0.00000000000E+00  0.00000000000E+00  0.30129823675E+03  0.30129823675E+03  0.00000000000E+00 0. -1.
         -2   -1    0    0    0  501 -0.00000000000E+00 -0.00000000000E+00 -0.23673143583E+03  0.23673143583E+03  0.00000000000E+00 0.  1.
         23    2    1    2    0    0  0.25849943506E+02  0.15121908860E+03 -0.15719032346E+03  0.23761907975E+03  0.90656477629E+02 0.  0.
         23    2    1    2    0    0  0.17908763344E+01 -0.15002674843E+03  0.17320410986E+03  0.24452828960E+03  0.85341597467E+02 0.  0.
        -11    1    4    4    0    0 -0.41292775541E+02 -0.62054004641E+02  0.79324861817E+02  0.10884955905E+03  0.00000000000E+00 0.  1.
         11    1    4    4    0    0  0.43083651875E+02 -0.87972743793E+02  0.93879248041E+02  0.13567873054E+03  0.00000000000E+00 0. -1.
        -13    1    3    3    0    0  0.54545344948E+02  0.55567353256E+02 -0.77461869656E+02  0.10983290333E+03  0.00000000000E+00 0. -1.
         13    1    3    3    0    0 -0.28695401442E+02  0.95651735347E+02 -0.79728453799E+02  0.12778617642E+03  0.00000000000E+00 0.  1.
         21    1    1    2  502  501 -0.27640819840E+02 -0.11923401686E+01  0.48553014508E+02  0.55882303231E+02  0.00000000000E+00 0.  1.
<scales pt_clust_5="13000.00000" pt_clust_6="13000.00000" pt_clust_7="13000.00000" pt_clust_8="13000.00000" pt_clust_9="27.66652"></scales>
<clustering>
<clus scale="   27.667">  1  9  2 -1</clus>
<clus scale="   85.342">  5  6 -1 -1</clus>
<clus scale="   90.656">  7  8 -1 -1</clus>
<clus scale="  174.785">  1  5  2 -1</clus>
<clus scale="   27.667">  1  5  2 -1</clus>
</clustering>
</event>
<event>
 9    1  0.1803370E-005  0.9406223E+02  0.7546771E-02  0.1294146E+00
         -1   -1    0    0    0  501 -0.00000000000E+00  0.00000000000E+00  0.19182863752E+03  0.19182863752E+03  0.00000000000E+00 0.  1.
          1   -1    0    0  502    0  0.00000000000E+00 -0.00000000000E+00 -0.80000805348E+02  0.80000805348E+02  0.00000000000E+00 0. -1.
         23    2    1    2    0    0 -0.25401299883E+02 -0.93889369207E+01  0.11897144668E+03  0.15276261394E+03  0.91917533262E+02 0.  0.
         23    2    1    2    0    0 -0.25624626828E+01  0.61075793020E+01 -0.41638955925E+01  0.90753968790E+02  0.90416127348E+02 0.  0.
        -13    1    4    4    0    0 -0.33683365686E+02  0.19170886675E+02  0.25023057625E+02  0.46132910517E+02  0.00000000000E+00 0.  1.
         13    1    4    4    0    0  0.31120903003E+02 -0.13063307373E+02 -0.29186953218E+02  0.44621058273E+02  0.00000000000E+00 0. -1.
        -13    1    3    3    0    0  0.89205231154E+01  0.35373166440E+02  0.29139334820E+02  0.46689800496E+02  0.00000000000E+00 0.  1.
         13    1    3    3    0    0 -0.34321822998E+02 -0.44762103360E+02  0.89832111856E+02  0.10607281344E+03  0.00000000000E+00 0. -1.
         21    1    1    2  502  501  0.27963762566E+02  0.32813576187E+01 -0.29797189088E+01  0.28312860142E+02  0.00000000000E+00 0.  1.
<scales pt_clust_5="13000.00000" pt_clust_6="13000.00000" pt_clust_7="13000.00000" pt_clust_8="13000.00000" pt_clust_9="28.15563"></scales>
<clustering>
<clus scale="   28.156">  2  9  1 -1</clus>
<clus scale="   90.416">  5  6 -1 -1</clus>
<clus scale="   91.918">  7  8 -1 -1</clus>
<clus scale="   92.596">  2  5  1 -1</clus>
<clus scale="   28.156">  2  5  1 -1</clus>
</clustering>
</event>
<event>
 9    1  0.1803370E-005  0.1097825E+03  0.7546771E-02  0.1261827E+00
         -1   -1    0    0    0  501 -0.00000000000E+00  0.00000000000E+00  0.83955058401E+03  0.83955058401E+03  0.00000000000E+00 0.  1.
          1   -1    0    0  502    0  0.00000000000E+00 -0.00000000000E+00 -0.71298789752E+02  0.71298789752E+02  0.00000000000E+00 0. -1.
         23    2    1    2    0    0  0.51519766086E+02  0.32813403359E+02  0.46360146397E+03  0.47673111405E+03  0.92818273907E+02 0.  0.
         23    2    1    2    0    0 -0.25828555887E+02 -0.44392914515E+02  0.35792745426E+03  0.37384741022E+03  0.94931440835E+02 0.  0.
        -13    1    4    4    0    0  0.27801669913E+02 -0.12338401319E+02  0.42330252275E+02  0.52125034818E+02  0.00000000000E+00 0.  1.
         13    1    4    4    0    0 -0.53630225800E+02 -0.32054513196E+02  0.31559720199E+03  0.32172237541E+03  0.00000000000E+00 0. -1.
        -13    1    3    3    0    0  0.56948777638E+02 -0.18210866024E+02  0.24603180760E+03  0.25319251424E+03  0.00000000000E+00 0. -1.
         13    1    3    3    0    0 -0.54290115524E+01  0.51024269384E+02  0.21756965637E+03  0.22353859981E+03  0.00000000000E+00 0.  1.
         21    1    1    2  502  501 -0.25691210199E+02  0.11579511156E+02 -0.53277123969E+02  0.60270849492E+02  0.00000000000E+00 0. -1.
<scales pt_clust_5="13000.00000" pt_clust_6="13000.00000" pt_clust_7="13000.00000" pt_clust_8="13000.00000" pt_clust_9="28.18019"></scales>
<clustering>
<clus scale="   28.180">  2  9  1 -1</clus>
<clus scale="   92.818">  7  8 -1 -1</clus>
<clus scale="   94.931">  5  6 -1 -1</clus>
<clus scale="  107.960">  1  7  2 -1</clus>
<clus scale="   28.180">  2  5  1 -1</clus>
</clustering>
</event>
<event>
 9    1  0.1803370E-005  0.1144014E+03  0.7546771E-02  0.1254854E+00
         -1   -1    0    0    0  501 -0.00000000000E+00  0.00000000000E+00  0.29249975477E+03  0.29249975477E+03  0.00000000000E+00 0.  1.
          1   -1    0    0  502    0  0.00000000000E+00 -0.00000000000E+00 -0.10936842278E+03  0.10936842278E+03  0.00000000000E+00 0. -1.
         23    2    1    2    0    0 -0.28910535725E+02 -0.59533484041E+02  0.16039014727E+03  0.19599976210E+03  0.91163877733E+02 0.  0.
         23    2    1    2    0    0  0.53528248784E+02  0.54346342607E+02  0.82641722005E+02  0.14089909500E+03  0.84876983821E+02 0.  0.
        -11    1    4    4    0    0 -0.13526490481E+02  0.39077697421E+02  0.49674828395E+02  0.64634518305E+02  0.00000000000E+00 0.  1.
         11    1    4    4    0    0  0.67054739265E+02  0.15268645186E+02  0.32966893610E+02  0.76264576692E+02  0.00000000000E+00 0. -1.
        -13    1    3    3    0    0 -0.29365629493E+02  0.11112321920E+01  0.11900160540E+03  0.12257633181E+03  0.00000000000E+00 0.  1.
         13    1    3    3    0    0  0.45509376844E+00 -0.60644716233E+02  0.41388541876E+02  0.73423430293E+02  0.00000000000E+00 0. -1.
         21    1    1    2  502  501 -0.24617713059E+02  0.51871414335E+01 -0.59900537292E+02  0.64969320455E+02  0.00000000000E+00 0. -1.
<scales pt_clust_5="13000.00000" pt_clust_6="13000.00000" pt_clust_7="13000.00000" pt_clust_8="13000.00000" pt_clust_9="25.15826"></scales>
<clustering>
<clus scale="   25.158">  2  9  1 -1</clus>
<clus scale="   84.877">  5  6 -1 -1</clus>
<clus scale="   91.164">  7  8 -1 -1</clus>
<clus scale="  109.457">  2  5  1 -1</clus>
<clus scale="   25.158">  2  5  1 -1</clus>
</clustering>
</event>
<event>
 9    1  0.1803370E-005  0.1725750E+03  0.7546771E-02  0.1175359E+00
          1   -1    0    0  502    0  0.00000000000E+00  0.00000000000E+00  0.22639377625E+03  0.22639377625E+03  0.00000000000E+00 0. -1.
         -1   -1    0    0    0  501 -0.00000000000E+00 -0.00000000000E+00 -0.16658551869E+03  0.16658551869E+03  0.00000000000E+00 0.  1.
         23    2    1    2    0    0 -0.13428845374E+03  0.77245413925E+02  0.72733221011E+01  0.18041800053E+03  0.92181944656E+02 0.  0.
         23    2    1    2    0    0  0.13255812460E+03 -0.39838987913E+02  0.28454035986E+02  0.16804023798E+03  0.90934526219E+02 0.  0.
        -13    1    3    3    0    0 -0.40763251973E+02  0.40688529870E+02 -0.39301452911E+02  0.69726633185E+02  0.00000000000E+00 0.  1.
         13    1    3    3    0    0 -0.93525201766E+02  0.36556884055E+02  0.46574775012E+02  0.11069136734E+03  0.00000000000E+00 0. -1.
        -13    1    4    4    0    0  0.20598289303E+02  0.26475090670E+02  0.16455281980E+02  0.37363033244E+02  0.00000000000E+00 0. -1.
         13    1    4    4    0    0  0.11195983530E+03 -0.66314078583E+02  0.11998754006E+02  0.13067720473E+03  0.00000000000E+00 0.  1.
         21    1    1    2  502  501  0.17303291355E+01 -0.37406426012E+02  0.24080899473E+02  0.44521056427E+02  0.00000000000E+00 0.  1.
<scales pt_clust_5="13000.00000" pt_clust_6="13000.00000" pt_clust_7="13000.00000" pt_clust_8="13000.00000" pt_clust_9="37.44643"></scales>
<clustering>
<clus scale="   37.446">  1  9  2 -1</clus>
<clus scale="   90.935">  7  8 -1 -1</clus>
<clus scale="   92.182">  5  6 -1 -1</clus>
<clus scale="  171.912">  1  7  2 -1</clus>
<clus scale="   37.446">  1  5  2 -1</clus>
</clustering>
</event>
<event>
 9    1  0.1803370E-005  0.1182822E+03  0.7546771E-02  0.1261013E+00
         -1   -1    0    0    0  501 -0.00000000000E+00  0.00000000000E+00  0.30059061204E+03  0.30059061204E+03  0.00000000000E+00 0.  1.
          1   -1    0    0  502    0  0.00000000000E+00 -0.00000000000E+00 -0.12905792906E+03  0.12905792906E+03  0.00000000000E+00 0. -1.
         23    2    1    2    0    0  0.25819546919E+02 -0.38368640553E+02  0.24982253932E+03  0.26460356393E+03  0.73925254916E+02 0.  0.
         23    2    1    2    0    0 -0.21997786682E+02  0.58227845978E+02 -0.68347092500E+02  0.14250939543E+03  0.10845837021E+03 0.  0.
        -13    1    3    3    0    0  0.47496959514E+02 -0.16317494487E+02  0.19788003332E+03  0.20415369057E+03  0.00000000000E+00 0.  1.
         13    1    3    3    0    0 -0.21677412595E+02 -0.22051146066E+02  0.51942506002E+02  0.60449873361E+02  0.00000000000E+00 0. -1.
        -13    1    4    4    0    0 -0.39104527972E+02  0.73051525053E+02 -0.14527500677E+02  0.84123348105E+02  0.00000000000E+00 0.  1.
         13    1    4    4    0    0  0.17106741289E+02 -0.14823679075E+02 -0.53819591823E+02  0.58386047330E+02  0.00000000000E+00 0. -1.
         21    1    1    2  502  501 -0.38217602367E+01 -0.19859205425E+02 -0.99427638337E+01  0.22535581733E+02  0.00000000000E+00 0. -1.
<scales pt_clust_5="13000.00000" pt_clust_6="13000.00000" pt_clust_7="13000.00000" pt_clust_8="13000.00000" pt_clust_9="20.22360"></scales>
<clustering>
<clus scale="   20.224">  2  9  1 -1</clus>
<clus scale="   73.925">  5  6 -1 -1</clus>
<clus scale="   87.706">  1  5  2 -1</clus>
<clus scale="  108.458">  7  8 -1 -1</clus>
<clus scale="   20.224">  2  5  1 -1</clus>
</clustering>
</event>
<event>
 9    1  0.1803370E-005  0.1113781E+03  0.7546771E-02  0.1258532E+00
          3   -1    0    0  502    0  0.00000000000E+00  0.00000000000E+00  0.38339693488E+02  0.38339693488E+02  0.00000000000E+00 0. -1.
         -3   -1    0    0    0  501 -0.00000000000E+00 -0.00000000000E+00 -0.51938820717E+03  0.51938820717E+03  0.00000000000E+00 0.  1.
         23    2    1    2    0    0  0.40615640550E+02  0.33207072155E+02 -0.26513674847E+03  0.28551373487E+03  0.92023135730E+02 0.  0.
         23    2    1    2    0    0 -0.55731535903E+02 -0.55777851617E+02 -0.21341574438E+03  0.24493486049E+03  0.90717325291E+02 0.  0.
        -13    1    4    4    0    0 -0.49492958210E+02  0.12503516430E+02 -0.79330657755E+02  0.94335804949E+02  0.00000000000E+00 0.  1.
         13    1    4    4    0    0 -0.62385776925E+01 -0.68281368047E+02 -0.13408508662E+03  0.15059905554E+03  0.00000000000E+00 0. -1.
        -13    1    3    3    0    0 -0.25102667833E+02  0.30344993696E+02 -0.11634888885E+03  0.12283332818E+03  0.00000000000E+00 0.  1.
         13    1    3    3    0    0  0.65718308383E+02  0.28620784587E+01 -0.14878785962E+03  0.16268040669E+03  0.00000000000E+00 0. -1.
         21    1    1    2  502  501  0.15115895353E+02  0.22570779462E+02 -0.24960208324E+01  0.27279305304E+02  0.00000000000E+00 0. -1.
<scales pt_clust_5="13000.00000" pt_clust_6="13000.00000" pt_clust_7="13000.00000" pt_clust_8="13000.00000" pt_clust_9="27.16487"></scales>
<clustering>
<clus scale="   27.165">  1  9  2 -1</clus>
<clus scale="   90.717">  5  6 -1 -1</clus>
<clus scale="   92.023">  7  8 -1 -1</clus>
<clus scale="  110.302">  1  5  2 -1</clus>
<clus scale="   27.165">  1  5  2 -1</clus>
</clustering>
</event>
<event>
 9    1  0.1803370E-005  0.3221044E+03  0.7546771E-02  0.1074721E+00
          1   -1    0    0  502    0  0.00000000000E+00  0.00000000000E+00  0.10308036218E+04  0.10308036218E+04  0.00000000000E+00 0. -1.
         -1   -1    0    0    0  501 -0.00000000000E+00 -0.00000000000E+00 -0.13192582438E+03  0.13192582438E+03  0.00000000000E+00 0.  1.
         23    2    1    2    0    0  0.60556257356E+02  0.28883881073E+03  0.33584540505E+03  0.45588956695E+03  0.89152915105E+02 0.  0.
         23    2    1    2    0    0 -0.10664962476E+03 -0.30712226835E+03  0.34244024911E+03  0.48074304818E+03  0.90279144820E+02 0.  0.
        -11    1    3    3    0    0  0.36264690044E+02  0.39112924374E+02  0.89987360521E+02  0.10460723517E+03  0.00000000000E+00 0.  1.
         11    1    3    3    0    0  0.24291567312E+02  0.24972588636E+03  0.24585804453E+03  0.35128233177E+03  0.00000000000E+00 0. -1.
        -11    1    4    4    0    0 -0.89634347863E+02 -0.14480216035E+03  0.13831866365E+03  0.21939470065E+03  0.00000000000E+00 0. -1.
         11    1    4    4    0    0 -0.17015276894E+02 -0.16232010800E+03  0.20412158546E+03  0.26134834753E+03  0.00000000000E+00 0.  1.
         21    1    1    2  502  501  0.46093367401E+02  0.18283457619E+02  0.22059214325E+03  0.22609683104E+03  0.00000000000E+00 0. -1.
<scales pt_clust_5="13000.00000" pt_clust_6="13000.00000" pt_clust_7="13000.00000" pt_clust_8="13000.00000" pt_clust_9="49.58713"></scales>
<clustering>
<clus scale="   49.587">  1  9  2 -1</clus>
<clus scale="   89.153">  5  6 -1 -1</clus>
<clus scale="   90.279">  7  8 -1 -1</clus>
<clus scale="  321.791">  2  5  1 -1</clus>
<clus scale="   49.587">  1  5  2 -1</clus>
</clustering>
</event>
<event>
 9    1  0.1803370E-005  0.1145821E+03  0.7546771E-02  0.1252646E+00
         -1   -1    0    0    0  501 -0.00000000000E+00  0.00000000000E+00  0.57332047495E+02  0.57332047495E+02  0.00000000000E+00 0.  1.
          1   -1    0    0  502    0  0.00000000000E+00 -0.00000000000E+00 -0.43330544588E+03  0.43330544588E+03  0.00000000000E+00 0. -1.
         23    2    1    2    0    0  0.75832516904E+02  0.17830756372E+01 -0.46810000156E+02  0.12798595138E+03  0.91844856451E+02 0.  0.
         23    2    1    2    0    0 -0.53647161236E+02  0.84464335365E+01 -0.16084506365E+03  0.19256951879E+03  0.90898431877E+02 0.  0.
        -11    1    4    4    0    0 -0.13160131145E+02 -0.21470804180E+02 -0.13234699831E+03  0.13472161091E+03  0.00000000000E+00 0. -1.
         11    1    4    4    0    0 -0.40487030091E+02  0.29917237716E+02 -0.28498065343E+02  0.57847907883E+02  0.00000000000E+00 0.  1.
        -13    1    3    3    0    0  0.17556956480E+01  0.23494537079E+02  0.15990296177E+02  0.28473940921E+02  0.00000000000E+00 0.  1.
         13    1    3    3    0    0  0.74076821256E+02 -0.21711461442E+02 -0.62800296333E+02  0.99512010455E+02  0.00000000000E+00 0. -1.
         21    1    1    2  502  501 -0.22185355668E+02 -0.10229509174E+02 -0.16831833457E+03  0.17008202321E+03  0.00000000000E+00 0.  1.
<scales pt_clust_5="13000.00000" pt_clust_6="13000.00000" pt_clust_7="13000.00000" pt_clust_8="13000.00000" pt_clust_9="24.43016"></scales>
<clustering>
<clus scale="   24.430">  2  9  1 -1</clus>
<clus scale="   90.898">  5  6 -1 -1</clus>
<clus scale="   91.845">  7  8 -1 -1</clus>
<clus scale="  113.825">  2  5  1 -1</clus>
<clus scale="   24.430">  2  5  1 -1</clus>
</clustering>
</event>
<event>
 9    1  0.1803370E-005  0.9903287E+02  0.7546771E-02  0.1284401E+00
          1   -1    0    0  502    0  0.00000000000E+00  0.00000000000E+00  0.28642711539E+03  0.28642711539E+03  0.00000000000E+00 0. -1.
         -1   -1    0    0    0  501 -0.00000000000E+00 -0.00000000000E+00 -0.13056823344E+03  0.13056823344E+03  0.00000000000E+00 0.  1.
         23    2    1    2    0    0 -0.68212780454E+01  0.26609278168E+02 -0.95412320991E+02  0.13728337819E+03  0.94808393144E+02 0.  0.
         23    2    1    2    0    0 -0.49153824967E+01 -0.43621555450E+02  0.22227700581E+03  0.24410536668E+03  0.90848013991E+02 0.  0.
        -13    1    3    3    0    0 -0.98485668700E+01  0.62197535140E+02 -0.62154031841E+02  0.88479666144E+02  0.00000000000E+00 0. -1.
         13    1    3    3    0    0  0.30272888246E+01 -0.35588256972E+02 -0.33258289150E+02  0.48803712042E+02  0.00000000000E+00 0.  1.
        -13    1    4    4    0    0 -0.20861386475E+02  0.19397155088E+02  0.31077012811E+02  0.42157179655E+02  0.00000000000E+00 0.  1.
         13    1    4    4    0    0  0.15946003978E+02 -0.63018710538E+02  0.19119999300E+03  0.20194818703E+03  0.00000000000E+00 0. -1.
         21    1    1    2  502  501  0.11736660542E+02  0.17012277282E+02  0.28994197125E+02  0.35606603965E+02  0.00000000000E+00 0.  1.
<scales pt_clust_5="13000.00000" pt_clust_6="13000.00000" pt_clust_7="13000.00000" pt_clust_8="13000.00000" pt_clust_9="20.66801"></scales>
<clustering>
<clus scale="   20.668">  1  9  2 -1</clus>
<clus scale="   90.848">  7  8 -1 -1</clus>
<clus scale="   94.808">  5  6 -1 -1</clus>
<clus scale="   95.248">  1  7  2 -1</clus>
<clus scale="   20.668">  1  5  2 -1</clus>
</clustering>
</event>
<event>
 9    1  0.1803370E-005  0.1492677E+03  0.7546771E-02  0.1202717E+00
          2   -1    0    0  502    0  0.00000000000E+00  0.00000000000E+00  0.74485989445E+03  0.74485989445E+03  0.00000000000E+00 0. -1.
         -2   -1    0    0    0  501 -0.00000000000E+00 -0.00000000000E+00 -0.62961606865E+02  0.62961606865E+02  0.00000000000E+00 0.  1.
         23    2    1    2    0    0 -0.11472357137E+03 -0.13377662491E+02  0.64858999405E+02  0.16382945225E+03  0.96399895956E+02 0.  0.
         23    2    1    2    0    0  0.10882183170E+03 -0.21549851389E+02  0.54972450366E+03  0.56792601215E+03  0.89645625679E+02 0.  0.
        -13    1    3    3    0    0 -0.95919268585E+02 -0.49431689670E+02  0.35215902270E+02  0.11350840410E+03  0.00000000000E+00 0.  1.
         13    1    3    3    0    0 -0.18804302781E+02  0.36054027178E+02  0.29643097135E+02  0.50321048147E+02  0.00000000000E+00 0. -1.
        -13    1    4    4    0    0  0.53642614609E+02  0.32428904652E+02  0.30269399694E+03  0.30911619133E+03  0.00000000000E+00 0. -1.
         13    1    4    4    0    0  0.55179217089E+02 -0.53978756042E+02  0.24703050672E+03  0.25880982082E+03  0.00000000000E+00 0.  1.
         21    1    1    2  502  501  0.59017396672E+01  0.34927513880E+02  0.67314784523E+02  0.76066036918E+02  0.00000000000E+00 0. -1.
<scales pt_clust_5="13000.00000" pt_clust_6="13000.00000" pt_clust_7="13000.00000" pt_clust_8="13000.00000" pt_clust_9="35.42262"></scales>
<clustering>
<clus scale="   35.423">  1  9  2 -1</clus>
<clus scale="   89.646">  7  8 -1 -1</clus>
<clus scale="   96.400">  5  6 -1 -1</clus>
<clus scale="  144.997">  1  7  2 -1</clus>
<clus scale="   35.423">  1  5  2 -1</clus>
</clustering>
</event>
<event>
 9    1  0.1803370E-005  0.2170594E+03  0.7546771E-02  0.1136175E+00
         -1   -1    0    0    0  501 -0.00000000000E+00  0.00000000000E+00  0.20413326944E+03  0.20413326944E+03  0.00000000000E+00 0.  1.
          1   -1    0    0  502    0  0.00000000000E+00 -0.00000000000E+00 -0.13212274180E+04  0.13212274180E+04  0.00000000000E+00 0. -1.
         23    2    1    2    0    0  0.32002257297E+02  0.16224697887E+03 -0.17364583164E+03  0.25646400093E+03  0.90954286880E+02 0.  0.
         23    2    1    2    0    0  0.72532787591E+02 -0.19887742996E+03 -0.10735209625E+04  0.10980509704E+04  0.91953462344E+02 0.  0.
        -13    1    4    4    0    0 -0.13416355149E+01 -0.87350359261E+02 -0.27933709696E+03  0.29267917416E+03  0.00000000000E+00 0.  1.
         13    1    4    4    0    0  0.73874423106E+02 -0.11152707070E+03 -0.79418386558E+03  0.80537179627E+03  0.00000000000E+00 0. -1.
        -13    1    3    3    0    0  0.77605787271E+01  0.14169325217E+03 -0.17419115887E+03  0.22467702179E+03  0.00000000000E+00 0.  1.
         13    1    3    3    0    0  0.24241678570E+02  0.20553726699E+02  0.54532722413E+00  0.31786979141E+02  0.00000000000E+00 0. -1.
         21    1    1    2  502  501 -0.10453504489E+03  0.36630451096E+02  0.13007264563E+03  0.17084571606E+03  0.00000000000E+00 0.  1.
<scales pt_clust_5="13000.00000" pt_clust_6="13000.00000" pt_clust_7="13000.00000" pt_clust_8="13000.00000" pt_clust_9="110.76717"></scales>
<clustering>
<clus scale="   90.954">  7  8 -1 -1</clus>
<clus scale="   91.953">  5  6 -1 -1</clus>
<clus scale="  110.767">  1  9  2 -1</clus>
<clus scale="  216.638">  1  7  2 -1</clus>
<clus scale="  217.059">  2  5  1 -1</clus>
</clustering>
</event>
<event>
 9    1  0.1803370E-005  0.1158304E+03  0.7546771E-02  0.1250646E+00
         -2   -1    0    0    0  501 -0.00000000000E+00  0.00000000000E+00  0.10429258318E+03  0.10429258318E+03  0.00000000000E+00 0.  1.
          2   -1    0    0  502    0  0.00000000000E+00 -0.00000000000E+00 -0.38133696986E+03  0.38133696986E+03  0.00000000000E+00 0. -1.
         23    2    1    2    0    0  0.39534385045E+02 -0.56701254621E+02  0.48346370152E+02  0.12392293903E+03  0.90782836670E+02 0.  0.
         23    2    1    2    0    0 -0.70163830284E+02  0.43803253505E+02 -0.27070030217E+03  0.29770999552E+03  0.92254537779E+02 0.  0.
        -11    1    3    3    0    0 -0.29116484334E+02 -0.19443606282E+02  0.22632076378E+02  0.41689739342E+02  0.00000000000E+00 0. -1.
         11    1    3    3    0    0  0.68650869379E+02 -0.37257648339E+02  0.25714293773E+02  0.82233199685E+02  0.00000000000E+00 0.  1.
        -11    1    4    4    0    0  0.20648226884E+02  0.15350369040E+02 -0.34328566957E+02  0.42900275203E+02  0.00000000000E+00 0.  1.
         11    1    4    4    0    0 -0.90812057168E+02  0.28452884465E+02 -0.23637173521E+03  0.25480972031E+03  0.00000000000E+00 0. -1.
         21    1    1    2  502  501  0.30629445239E+02  0.12898001116E+02 -0.54690454665E+02  0.63996618503E+02  0.00000000000E+00 0.  1.
<scales pt_clust_5="13000.00000" pt_clust_6="13000.00000" pt_clust_7="13000.00000" pt_clust_8="13000.00000" pt_clust_9="33.23434"></scales>
<clustering>
<clus scale="   33.234">  2  9  1 -1</clus>
<clus scale="   90.783">  5  6 -1 -1</clus>
<clus scale="   92.255">  7  8 -1 -1</clus>
<clus scale="  114.662">  1  5  2 -1</clus>
<clus scale="   33.234">  2  5  1 -1</clus>
</clustering>
</event>
<event>
 9    1  0.1803370E-005  0.1185781E+03  0.7546771E-02  0.1246527E+00
         -2   -1    0    0    0  501 -0.00000000000E+00  0.00000000000E+00  0.10705528806E+03  0.10705528806E+03  0.00000000000E+00 0.  1.
          2   -1    0    0  502    0  0.00000000000E+00 -0.00000000000E+00 -0.28740747614E+03  0.28740747614E+03  0.00000000000E+00 0. -1.
         23    2    1    2    0    0  0.74249595142E+02 -0.29446257652E+01  0.45016039895E+02  0.12817783487E+03  0.94241393796E+02 0.  0.
         23    2    1    2    0    0 -0.58987602453E+02  0.28363836946E+02 -0.18092048408E+03  0.21285584872E+03  0.91056829976E+02 0.  0.
        -13    1    4    4    0    0  0.15203119858E+02  0.27250543517E+02 -0.24306233485E+02  0.39554013217E+02  0.00000000000E+00 0.  1.
         13    1    4    4    0    0 -0.74190722311E+02  0.11132934291E+01 -0.15661425059E+03  0.17330183550E+03  0.00000000000E+00 0. -1.
        -13    1    3    3    0    0  0.96560067112E+02  0.40059699470E+01  0.36524145472E+02  0.10331460477E+03  0.00000000000E+00 0.  1.
         13    1    3    3    0    0 -0.22310471969E+02 -0.69505957122E+01  0.84918944232E+01  0.24863230103E+02  0.00000000000E+00 0. -1.
         21    1    1    2  502  501 -0.15261992690E+02 -0.25419211181E+02 -0.44447743897E+02  0.53429080616E+02  0.00000000000E+00 0. -1.
<scales pt_clust_5="13000.00000" pt_clust_6="13000.00000" pt_clust_7="13000.00000" pt_clust_8="13000.00000" pt_clust_9="29.64903"></scales>
<clustering>
<clus scale="   29.649">  2  9  1 -1</clus>
<clus scale="   91.057">  5  6 -1 -1</clus>
<clus scale="   94.241">  7  8 -1 -1</clus>
<clus scale="  116.063">  2  5  1 -1</clus>
<clus scale="   29.649">  2  5  1 -1</clus>
</clustering>
</event>
<event>
 9    1  0.1803370E-005  0.1488172E+03  0.7546771E-02  0.1203602E+00
          1   -1    0    0  502    0  0.00000000000E+00  0.00000000000E+00  0.47604495272E+03  0.47604495272E+03  0.00000000000E+00 0. -1.
         -1   -1    0    0    0  501 -0.00000000000E+00 -0.00000000000E+00 -0.67793697256E+02  0.67793697256E+02  0.00000000000E+00 0.  1.
         23    2    1    2    0    0  0.93673110653E+02 -0.50675730199E+02  0.75334460745E+02  0.16145108744E+03  0.95123558427E+02 0.  0.
         23    2    1    2    0    0 -0.11652198309E+03  0.65927397747E+02  0.26737958395E+03  0.31132554505E+03  0.86648478172E+02 0.  0.
        -11    1    3    3    0    0  0.16984378478E+02 -0.41771560037E+02  0.71020975338E+02  0.84126757207E+02  0.00000000000E+00 0. -1.
         11    1    3    3    0    0  0.76688732176E+02 -0.89041701613E+01  0.43134854075E+01  0.77324330229E+02  0.00000000000E+00 0.  1.
        -13    1    4    4    0    0 -0.75500619694E+02 -0.28447957277E+01  0.16393805627E+03  0.18051072747E+03  0.00000000000E+00 0. -1.
         13    1    4    4    0    0 -0.41021363397E+02  0.68772193474E+02  0.10344152768E+03  0.13081481758E+03  0.00000000000E+00 0.  1.
         21    1    1    2  502  501  0.22848872438E+02 -0.15251667548E+02  0.65537210771E+02  0.71062017494E+02  0.00000000000E+00 0.  1.
<scales pt_clust_5="13000.00000" pt_clust_6="13000.00000" pt_clust_7="13000.00000" pt_clust_8="13000.00000" pt_clust_9="27.47152"></scales>
<clustering>
<clus scale="   27.472">  1  9  2 -1</clus>
<clus scale="   86.648">  7  8 -1 -1</clus>
<clus scale="   95.124">  5  6 -1 -1</clus>
<clus scale="  143.548">  1  7  2 -1</clus>
<clus scale="   27.472">  1  5  2 -1</clus>
</clustering>
</event>
<event>
 9    1  0.1803370E-005  0.1134616E+03  0.7546771E-02  0.1255848E+00
          1   -1    0    0  502    0  0.00000000000E+00  0.00000000000E+00  0.61265271381E+03  0.61265271381E+03  0.00000000000E+00 0. -1.
         -1   -1    0    0    0  501 -0.00000000000E+00 -0.00000000000E+00 -0.23084312428E+03  0.23084312428E+03  0.00000000000E+00 0.  1.
         23    2    1    2    0    0 -0.25979109108E+02  0.54588747492E+02 -0.19494861874E+03  0.22534628845E+03  0.95504661189E+02 0.  0.
         23    2    1    2    0    0  0.80475537363E+02 -0.60257212394E+02  0.52668233863E+03  0.54392297147E+03  0.91381996601E+02 0.  0.
        -13    1    3    3    0    0 -0.33117591602E+02 -0.16855558041E+02 -0.40154271137E+02  0.54710604099E+02  0.00000000000E+00 0. -1.
         13    1    3    3    0    0  0.71384824936E+01  0.71444305533E+02 -0.15479434760E+03  0.17063568436E+03  0.00000000000E+00 0.  1.
        -13    1    4    4    0    0  0.70689602230E+02 -0.83097097404E+02  0.46003705763E+03  0.47279619484E+03  0.00000000000E+00 0. -1.
         13    1    4    4    0    0  0.97859351325E+01  0.22839885011E+02  0.66645281003E+02  0.71126776629E+02  0.00000000000E+00 0.  1.
         21    1    1    2  502  501 -0.54496428255E+02  0.56684649014E+01  0.50075869632E+02  0.74226578166E+02  0.00000000000E+00 0.  1.
<scales pt_clust_5="13000.00000" pt_clust_6="13000.00000" pt_clust_7="13000.00000" pt_clust_8="13000.00000" pt_clust_9="54.79044"></scales>
<clustering>
<clus scale="   54.790">  1  9  2 -1</clus>
<clus scale="   91.382">  7  8 -1 -1</clus>
<clus scale="   95.505">  5  6 -1 -1</clus>
<clus scale="  110.014">  1  7  2 -1</clus>
<clus scale="   54.790">  1  5  2 -1</clus>
</clustering>
</event>
<event>
 9    1  0.1803370E-005  0.2151823E+03  0.7546771E-02  0.1137730E+00
         -1   -1    0    0    0  501 -0.00000000000E+00  0.00000000000E+00  0.39296477116E+03  0.39296477116E+03  0.00000000000E+00 0.  1.
          1   -1    0    0  502    0  0.00000000000E+00 -0.00000000000E+00 -0.16684772055E+03  0.16684772055E+03  0.00000000000E+00 0. -1.
         23    2    1    2    0    0  0.99583811591E+02 -0.15662185671E+03  0.15458348349E+03  0.25731362557E+03  0.88695586161E+02 0.  0.
         23    2    1    2    0    0 -0.66079373542E+02  0.20387875379E+03  0.74351165172E+02  0.24450144767E+03  0.91213114702E+02 0.  0.
        -11    1    3    3    0    0  0.96582582887E+02 -0.77456680556E+02  0.11402246114E+03  0.16831177714E+03  0.00000000000E+00 0.  1.
         11    1    3    3    0    0  0.30012287034E+01 -0.79165176154E+02  0.40561022352E+02  0.89001848427E+02  0.00000000000E+00 0. -1.
        -13    1    4    4    0    0  0.14321819759E+01  0.78474501181E+02  0.64762550367E+02  0.10175699686E+03  0.00000000000E+00 0.  1.
         13    1    4    4    0    0 -0.67511555517E+02  0.12540425261E+03  0.95886148051E+01  0.14274445080E+03  0.00000000000E+00 0. -1.
         21    1    1    2  502  501 -0.33504438049E+02 -0.47256897082E+02 -0.28175980507E+01  0.57997418474E+02  0.00000000000E+00 0. -1.
<scales pt_clust_5="13000.00000" pt_clust_6="13000.00000" pt_clust_7="13000.00000" pt_clust_8="13000.00000" pt_clust_9="57.92894"></scales>
<clustering>
<clus scale="   57.929">  2  9  1 -1</clus>
<clus scale="   88.696">  5  6 -1 -1</clus>
<clus scale="   91.213">  7  8 -1 -1</clus>
<clus scale="  214.127">  1  5  2 -1</clus>
<clus scale="   57.929">  2  5  1 -1</clus>
</clustering>
</event>
<event>
 9    1  0.1803370E-005  0.9912273E+02  0.7546771E-02  0.1282501E+00
          1   -1    0    0  502    0  0.00000000000E+00  0.00000000000E+00  0.57949489620E+03  0.57949489620E+03  0.00000000000E+00 0. -1.
         -1   -1    0    0    0  501 -0.00000000000E+00 -0.00000000000E+00 -0.22774403011E+02  0.22774403011E+02  0.00000000000E+00 0.  1.
         23    2    1    2    0    0 -0.23060757736E+01  0.41299732955E+02  0.19314040035E+03  0.21779785265E+03  0.91769844958E+02 0.  0.
         23    2    1    2    0    0  0.19408723288E+02 -0.29787946214E+02  0.23936629054E+03  0.25855841917E+03  0.91061598909E+02 0.  0.
        -11    1    4    4    0    0  0.35695207182E+02  0.23016749747E+02  0.10118179015E+03  0.10973455811E+03  0.00000000000E+00 0. -1.
         11    1    4    4    0    0 -0.16286483893E+02 -0.52804695961E+02  0.13818450039E+03  0.14882386106E+03  0.00000000000E+00 0.  1.
        -13    1    3    3    0    0 -0.28414414333E+02 -0.66732732163E+01  0.13462809881E+03  0.13775571316E+03  0.00000000000E+00 0.  1.
         13    1    3    3    0    0  0.26108338559E+02  0.47973006171E+02  0.58512301538E+02  0.80042139493E+02  0.00000000000E+00 0. -1.
         21    1    1    2  502  501 -0.17102647515E+02 -0.11511786741E+02  0.12421380230E+03  0.12591302739E+03  0.00000000000E+00 0.  1.
<scales pt_clust_5="13000.00000" pt_clust_6="13000.00000" pt_clust_7="13000.00000" pt_clust_8="13000.00000" pt_clust_9="20.61606"></scales>
<clustering>
<clus scale="   20.616">  1  9  2 -1</clus>
<clus scale="   91.062">  5  6 -1 -1</clus>
<clus scale="   91.770">  7  8 -1 -1</clus>
<clus scale="   98.467">  1  5  2 -1</clus>
<clus scale="   20.616">  1  5  2 -1</clus>
</clustering>
</event>
<event>
 9    1  0.1803370E-005  0.9746532E+02  0.7546771E-02  0.1286802E+00
          1   -1    0    0  502    0  0.00000000000E+00  0.00000000000E+00  0.30954984433E+03  0.30954984433E+03  0.00000000000E+00 0. -1.
         -1   -1    0    0    0  501 -0.00000000000E+00 -0.00000000000E+00 -0.44938296512E+02  0.44938296512E+02  0.00000000000E+00 0.  1.
         23    2    1    2    0    0 -0.30562120339E+02 -0.45744329085E+00  0.78877103451E+02  0.12525249313E+03  0.92370650818E+02 0.  0.
         23    2    1    2    0    0  0.24717126975E+02 -0.31921837693E+02  0.11826746597E+03  0.15417317401E+03  0.90289722501E+02 0.  0.
        -11    1    4    4    0    0 -0.34039719747E+02 -0.17853285887E+02  0.48381656605E+02  0.61791803933E+02  0.00000000000E+00 0.  1.
         11    1    4    4    0    0  0.58756846721E+02 -0.14068551806E+02  0.69885809365E+02  0.92381370076E+02  0.00000000000E+00 0. -1.
        -13    1    3    3    0    0 -0.51995212824E+02  0.15887194881E+02  0.15737345313E+02  0.56600080877E+02  0.00000000000E+00 0.  1.
         13    1    3    3    0    0  0.21433092485E+02 -0.16344638172E+02  0.63139758138E+02  0.68652412253E+02  0.00000000000E+00 0. -1.
         21    1    1    2  502  501  0.58449933644E+01  0.32379280984E+02  0.67466978394E+02  0.75062473701E+02  0.00000000000E+00 0. -1.
<scales pt_clust_5="13000.00000" pt_clust_6="13000.00000" pt_clust_7="13000.00000" pt_clust_8="13000.00000" pt_clust_9="32.90261"></scales>
<clustering>
<clus scale="   32.903">  1  9  2 -1</clus>
<clus scale="   90.290">  5  6 -1 -1</clus>
<clus scale="   92.371">  7  8 -1 -1</clus>
<clus scale="   95.495">  1  5  2 -1</clus>
<clus scale="   32.903">  1  5  2 -1</clus>
</clustering>
</event>
<event>
 9    1  0.1803370E-005  0.1015251E+03  0.7546771E-02  0.1278444E+00
         -1   -1    0    0    0  501 -0.00000000000E+00  0.00000000000E+00  0.21967766477E+03  0.21967766477E+03  0.00000000000E+00 0.  1.
          1   -1    0    0  502    0  0.00000000000E+00 -0.00000000000E+00 -0.18678353319E+03  0.18678353319E+03  0.00000000000E+00 0. -1.
         23    2    1    2    0    0 -0.45268240898E+01  0.51454118302E+02  0.17615866238E+03  0.20342084624E+03  0.87636453182E+02 0.  0.
         23    2    1    2    0    0  0.45241475889E+01 -0.12139212930E+02 -0.55672381123E+02  0.10702969357E+03  0.90488191958E+02 0.  0.
        -11    1    3    3    0    0 -0.70069255391E+00  0.76439811057E+02  0.13333094014E+03  0.15369019254E+03  0.00000000000E+00 0.  1.
         11    1    3    3    0    0 -0.38261315359E+01 -0.24985692755E+02  0.42827722238E+02  0.49730653697E+02  0.00000000000E+00 0. -1.
        -13    1    4    4    0    0 -0.39053036590E+02  0.74660809244E+01 -0.40835683506E+02  0.56995044334E+02  0.00000000000E+00 0. -1.
         13    1    4    4    0    0  0.43577184178E+02 -0.19605293854E+02 -0.14836697617E+02  0.50034649236E+02  0.00000000000E+00 0.  1.
         21    1    1    2  502  501  0.26765009023E-02 -0.39314905372E+02 -0.87592149686E+02  0.96010658148E+02  0.00000000000E+00 0. -1.
<scales pt_clust_5="13000.00000" pt_clust_6="13000.00000" pt_clust_7="13000.00000" pt_clust_8="13000.00000" pt_clust_9="39.31491"></scales>
<clustering>
<clus scale="   39.315">  2  9  1 -1</clus>
<clus scale="   87.636">  5  6 -1 -1</clus>
<clus scale="   90.488">  7  8 -1 -1</clus>
<clus scale="   98.992">  1  5  2 -1</clus>
<clus scale="   39.315">  2  5  1 -1</clus>
</clustering>
</event>
<event>
 9    1  0.1803370E-005  0.1569227E+03  0.7546771E-02  0.1192395E+00
          1   -1    0    0  502    0  0.00000000000E+00  0.00000000000E+00  0.43159934717E+03  0.43159934717E+03  0.00000000000E+00 0. -1.
         -1   -1    0    0    0  501 -0.00000000000E+00 -0.00000000000E+00 -0.91723019917E+02  0.91723019917E+02  0.00000000000E+00 0.  1.
         23    2    1    2    0    0  0.12708094913E+03 -0.31320341623E+02  0.26492933756E+02  0.16147540108E+03  0.90784900643E+02 0.  0.
         23    2    1    2    0    0 -0.11689286959E+03  0.56910808156E+01  0.28895931384E+03  0.32500688401E+03  0.91845839536E+02 0.  0.
        -11    1    3    3    0    0  0.24212182004E+02 -0.49228482834E+02  0.82303538909E+01  0.55474426583E+02  0.00000000000E+00 0.  1.
         11    1    3    3    0    0  0.10286876712E+03  0.17908141211E+02  0.18262579865E+02  0.10600097450E+03  0.00000000000E+00 0. -1.
        -13    1    4    4    0    0 -0.10849309497E+03  0.27538653170E+02  0.16847170071E+03  0.20226676202E+03  0.00000000000E+00 0. -1.
         13    1    4    4    0    0 -0.83997746202E+01 -0.21847572355E+02  0.12048761312E+03  0.12274012200E+03  0.00000000000E+00 0.  1.
         21    1    1    2  502  501 -0.10188079532E+02  0.25629260807E+02  0.24424079662E+02  0.36840081995E+02  0.00000000000E+00 0. -1.
<scales pt_clust_5="13000.00000" pt_clust_6="13000.00000" pt_clust_7="13000.00000" pt_clust_8="13000.00000" pt_clust_9="27.57999"></scales>
<clustering>
<clus scale="   27.580">  1  9  2 -1</clus>
<clus scale="   90.785">  5  6 -1 -1</clus>
<clus scale="   91.846">  7  8 -1 -1</clus>
<clus scale="  156.304">  2  5  1 -1</clus>
<clus scale="   27.580">  1  5  2 -1</clus>
</clustering>
</event>
<event>
 9    1  0.1803370E-005  0.1026453E+03  0.7546771E-02  0.1275184E+00
          1   -1    0    0  502    0  0.00000000000E+00  0.00000000000E+00  0.15626920889E+03  0.15626920889E+03  0.00000000000E+00 0. -1.
         -1   -1    0    0    0  501 -0.00000000000E+00 -0.00000000000E+00 -0.15240054255E+03  0.15240054255E+03  0.00000000000E+00 0.  1.
         23    2    1    2    0    0  0.33945570669E+02 -0.32609288385E+02 -0.84537355152E+02  0.13260517950E+03  0.90674702967E+02 0.  0.
         23    2    1    2    0    0 -0.49034375001E+02 -0.12780405320E+01  0.92143663372E+02  0.13878196146E+03  0.91454769186E+02 0.  0.
        -11    1    3    3    0    0  0.47096239619E+02 -0.56683422965E+02 -0.52814608330E+02  0.90666692221E+02  0.00000000000E+00 0.  1.
         11    1    3    3    0    0 -0.13150668950E+02  0.24074134581E+02 -0.31722746822E+02  0.41938487283E+02  0.00000000000E+00 0. -1.
        -11    1    4    4    0    0 -0.67081540170E+01  0.42074009705E+02  0.30887020147E+02  0.52623470397E+02  0.00000000000E+00 0.  1.
         11    1    4    4    0    0 -0.42326220984E+02 -0.43352050237E+02  0.61256643225E+02  0.86158491060E+02  0.00000000000E+00 0. -1.
         21    1    1    2  502  501  0.15088804332E+02  0.33887328917E+02 -0.37376418848E+01  0.37282610479E+02  0.00000000000E+00 0. -1.
<scales pt_clust_5="13000.00000" pt_clust_6="13000.00000" pt_clust_7="13000.00000" pt_clust_8="13000.00000" pt_clust_9="37.09479"></scales>
<clustering>
<clus scale="   37.095">  2  9  1 -1</clus>
<clus scale="   90.675">  5  6 -1 -1</clus>
<clus scale="   91.455">  7  8 -1 -1</clus>
<clus scale="  101.951">  2  5  1 -1</clus>
<clus scale="  102.645">  1  5  2 -1</clus>
</clustering>
</event>
<event>
 9    1  0.1803370E-005  0.1226682E+03  0.7546771E-02  0.1248057E+00
         -1   -1    0    0    0  501 -0.00000000000E+00  0.00000000000E+00  0.25628124866E+02  0.25628124866E+02  0.00000000000E+00 0.  1.
          1   -1    0    0  502    0  0.00000000000E+00 -0.00000000000E+00 -0.61222081136E+03  0.61222081136E+03  0.00000000000E+00 0. -1.
         23    2    1    2    0    0 -0.27553545714E+02 -0.17166595864E+02 -0.22709651008E+03  0.24719110427E+03  0.92069143816E+02 0.  0.
         23    2    1    2    0    0  0.47535704738E+02  0.31242931083E+02 -0.29252714672E+03  0.31936771461E+03  0.11483832812E+03 0.  0.
        -11    1    3    3    0    0  0.20248912560E+02  0.11066552581E+02 -0.14020249954E+02  0.27001008401E+02  0.00000000000E+00 0. -1.
         11    1    3    3    0    0 -0.47802458274E+02 -0.28233148445E+02 -0.21307626013E+03  0.22019009587E+03  0.00000000000E+00 0.  1.
        -11    1    4    4    0    0  0.53487286092E+02 -0.32716144704E+02 -0.12255075818E+03  0.13765872377E+03  0.00000000000E+00 0.  1.
         11    1    4    4    0    0 -0.59515813538E+01  0.63959075787E+02 -0.16997638853E+03  0.18170899085E+03  0.00000000000E+00 0. -1.
         21    1    1    2  502  501 -0.19982159024E+02 -0.14076335219E+02 -0.66969029692E+02  0.71290117340E+02  0.00000000000E+00 0.  1.
<scales pt_clust_5="13000.00000" pt_clust_6="13000.00000" pt_clust_7="13000.00000" pt_clust_8="13000.00000" pt_clust_9="24.44238"></scales>
<clustering>
<clus scale="   24.442">  2  9  1 -1</clus>
<clus scale="   92.069">  5  6 -1 -1</clus>
<clus scale="  101.668">  1  5  2 -1</clus>
<clus scale="  114.838">  7  8 -1 -1</clus>
<clus scale="   24.442">  2  5  1 -1</clus>
</clustering>
</event>
<event>
 9    1  0.1803370E-005  0.1056890E+03  0.7546771E-02  0.1269141E+00
         -1   -1    0    0    0  501 -0.00000000000E+00  0.00000000000E+00  0.45227009051E+02  0.45227009051E+02  0.00000000000E+00 0.  1.
          1   -1    0    0  502    0  0.00000000000E+00 -0.00000000000E+00 -0.91549546313E+03  0.91549546313E+03  0.00000000000E+00 0. -1.
         23    2    1    2    0    0  0.70510478687E+02  0.20316949980E+02 -0.87965701635E+02  0.14630350390E+03  0.91006837810E+02 0.  0.
         23    2    1    2    0    0 -0.21794467470E+02  0.40127320284E+02 -0.18045616469E+03  0.20758614555E+03  0.91882423797E+02 0.  0.
        -11    1    3    3    0    0  0.90852794390E+01  0.30513082675E+02 -0.76675608678E+02  0.83022523949E+02  0.00000000000E+00 0. -1.
         11    1    3    3    0    0  0.61425199248E+02 -0.10196132695E+02 -0.11290092958E+02  0.63280979951E+02  0.00000000000E+00 0.  1.
        -13    1    4    4    0    0 -0.57549477597E+02  0.30711615442E+02 -0.10619491731E+03  0.12462947547E+03  0.00000000000E+00 0. -1.
         13    1    4    4    0    0  0.35755010127E+02  0.94157048422E+01 -0.74261247382E+02  0.82956670073E+02  0.00000000000E+00 0.  1.
         21    1    1    2  502  501 -0.48716011217E+02 -0.60444270264E+02 -0.60184658775E+03  0.60683282273E+03  0.00000000000E+00 0. -1.
<scales pt_clust_5="13000.00000" pt_clust_6="13000.00000" pt_clust_7="13000.00000" pt_clust_8="13000.00000" pt_clust_9="77.63221"></scales>
<clustering>
<clus scale="   77.632">  2  9  1 -1</clus>
<clus scale="   91.007">  5  6 -1 -1</clus>
<clus scale="   91.882">  7  8 -1 -1</clus>
<clus scale="  104.929">  1  5  2 -1</clus>
<clus scale="   77.632">  2  5  1 -1</clus>
</clustering>
</event>
<event>
 9    1  0.1803370E-005  0.1057211E+03  0.7546771E-02  0.1270532E+00
         -2   -1    0    0    0  501 -0.00000000000E+00  0.00000000000E+00  0.84545504585E+02  0.84545504585E+02  0.00000000000E+00 0.  1.
          2   -1    0    0  502    0  0.00000000000E+00 -0.00000000000E+00 -0.21689520146E+03  0.21689520146E+03  0.00000000000E+00 0. -1.
         23    2    1    2    0    0  0.41498897990E+02 -0.38473404460E+02  0.79032288970E+01  0.11061991307E+03  0.94720339719E+02 0.  0.
         23    2    1    2    0    0 -0.22757533364E+02  0.90062071941E+01 -0.11018840574E+03  0.14474010474E+03  0.90604613946E+02 0.  0.
        -11    1    3    3    0    0  0.68897596931E+02 -0.18929606908E+02 -0.10570074894E+02  0.72228355677E+02  0.00000000000E+00 0.  1.
         11    1    3    3    0    0 -0.27398698941E+02 -0.19543797551E+02  0.18473303791E+02  0.38391557397E+02  0.00000000000E+00 0. -1.
        -13    1    4    4    0    0  0.27787478649E+01  0.34650933549E+02 -0.70948687111E+01  0.35478807724E+02  0.00000000000E+00 0.  1.
         13    1    4    4    0    0 -0.25536281229E+02 -0.25644726355E+02 -0.10309353703E+03  0.10926129702E+03  0.00000000000E+00 0. -1.
         21    1    1    2  502  501 -0.18741364626E+02  0.29467197265E+02 -0.30064520028E+02  0.46080688224E+02  0.00000000000E+00 0.  1.
<scales pt_clust_5="13000.00000" pt_clust_6="13000.00000" pt_clust_7="13000.00000" pt_clust_8="13000.00000" pt_clust_9="34.92212"></scales>
<clustering>
<clus scale="   34.922">  2  9  1 -1</clus>
<clus scale="   90.605">  7  8 -1 -1</clus>
<clus scale="   94.720">  5  6 -1 -1</clus>
<clus scale="  102.050">  2  7  1 -1</clus>
<clus scale="   34.922">  2  5  1 -1</clus>
</clustering>
</event>
<event>
 9    1  0.1803370E-005  0.1824486E+03  0.7546771E-02  0.1182287E+00
          2   -1    0    0  502    0  0.00000000000E+00  0.00000000000E+00  0.99226574703E+03  0.99226574703E+03  0.00000000000E+00 0. -1.
         -2   -1    0    0    0  501 -0.00000000000E+00 -0.00000000000E+00 -0.94502272616E+02  0.94502272616E+02  0.00000000000E+00 0.  1.
         23    2    1    2    0    0  0.23533689186E+02 -0.81398607022E+02  0.15767588293E+02  0.12545916527E+03  0.91169169990E+02 0.  0.
         23    2    1    2    0    0 -0.57653127895E+02  0.21324134146E+03  0.46216354733E+03  0.51994071391E+03  0.89148464046E+02 0.  0.
        -11    1    4    4    0    0 -0.19378753491E+02  0.61501466080E+02  0.58732627068E+02  0.87220914345E+02  0.00000000000E+00 0.  1.
         11    1    4    4    0    0 -0.38274374403E+02  0.15173987538E+03  0.40343092026E+03  0.43271979957E+03  0.00000000000E+00 0. -1.
        -13    1    3    3    0    0 -0.38338347769E+01 -0.36611328989E+02 -0.36177914402E+02  0.51613265638E+02  0.00000000000E+00 0.  1.
         13    1    3    3    0    0  0.27367523962E+02 -0.44787278034E+02  0.51945502695E+02  0.73845899627E+02  0.00000000000E+00 0. -1.
         21    1    1    2  502  501  0.34119438709E+02 -0.13184273444E+03  0.41983233880E+03  0.44136814047E+03  0.00000000000E+00 0.  1.
<scales pt_clust_5="13000.00000" pt_clust_6="13000.00000" pt_clust_7="13000.00000" pt_clust_8="13000.00000" pt_clust_9="159.18555"></scales>
<clustering>
<clus scale="   89.148">  5  6 -1 -1</clus>
<clus scale="   91.169">  7  8 -1 -1</clus>
<clus scale="  124.464">  2  7  1 -1</clus>
<clus scale="  159.186">  1  9  2 -1</clus>
<clus scale="  159.186">  1  5  2 -1</clus>
</clustering>
</event>
<event>
 9    1  0.1803370E-005  0.1048457E+03  0.7546771E-02  0.1271594E+00
          1   -1    0    0  502    0  0.00000000000E+00  0.00000000000E+00  0.20596689991E+03  0.20596689991E+03  0.00000000000E+00 0. -1.
         -1   -1    0    0    0  501 -0.00000000000E+00 -0.00000000000E+00 -0.16058661340E+03  0.16058661340E+03  0.00000000000E+00 0.  1.
         23    2    1    2    0    0  0.39703450390E+02  0.12412889112E+02 -0.94164203996E+02  0.13693345531E+03  0.90296345885E+02 0.  0.
         23    2    1    2    0    0 -0.69244644794E+02 -0.37612334369E+02  0.49434233615E+02  0.13149996523E+03  0.92946161146E+02 0.  0.
        -11    1    3    3    0    0  0.22347429988E+02  0.42030417094E+02 -0.90697664636E+02  0.10243061046E+03  0.00000000000E+00 0.  1.
         11    1    3    3    0    0  0.17356020402E+02 -0.29617527981E+02 -0.34665393601E+01  0.34502844854E+02  0.00000000000E+00 0. -1.
        -13    1    4    4    0    0 -0.21714136593E+02 -0.43921693137E+02 -0.14947688680E+02  0.51225503930E+02  0.00000000000E+00 0.  1.
         13    1    4    4    0    0 -0.47530508201E+02  0.63093587680E+01  0.64381922295E+02  0.80274461295E+02  0.00000000000E+00 0. -1.
         21    1    1    2  502  501  0.29541194404E+02  0.25199445257E+02  0.90110256889E+02  0.98120092767E+02  0.00000000000E+00 0. -1.
<scales pt_clust_5="13000.00000" pt_clust_6="13000.00000" pt_clust_7="13000.00000" pt_clust_8="13000.00000" pt_clust_9="38.82904"></scales>
<clustering>
<clus scale="   38.829">  1  9  2 -1</clus>
<clus scale="   90.296">  5  6 -1 -1</clus>
<clus scale="   92.946">  7  8 -1 -1</clus>
<clus scale="  102.504">  2  5  1 -1</clus>
<clus scale="   38.829">  1  5  2 -1</clus>
</clustering>
</event>
<event>
 9    1  0.1803370E-005  0.1391894E+03  0.7546771E-02  0.1214692E+00
         -1   -1    0    0    0  501 -0.00000000000E+00  0.00000000000E+00  0.26451666424E+02  0.26451666424E+02  0.00000000000E+00 0.  1.
          1   -1    0    0  502    0  0.00000000000E+00 -0.00000000000E+00 -0.14827050085E+04  0.14827050085E+04  0.00000000000E+00 0. -1.
         23    2    1    2    0    0  0.65991985073E+02 -0.38851660297E+01 -0.46976944027E+03  0.48295556153E+03  0.90513594539E+02 0.  0.
         23    2    1    2    0    0 -0.14400105335E+03 -0.55736250347E+02 -0.54119516808E+03  0.57021626232E+03  0.91714463905E+02 0.  0.
        -13    1    3    3    0    0  0.75283323639E+02 -0.30778711805E+02 -0.30053082995E+03  0.31134175382E+03  0.00000000000E+00 0.  1.
         13    1    3    3    0    0 -0.92913385657E+01  0.26893545775E+02 -0.16923861031E+03  0.17161380771E+03  0.00000000000E+00 0. -1.
        -13    1    4    4    0    0 -0.13273100526E+03 -0.78488603751E+02 -0.46346807142E+03  0.48844716593E+03  0.00000000000E+00 0. -1.
         13    1    4    4    0    0 -0.11270048090E+02  0.22752353403E+02 -0.77727096662E+02  0.81769096393E+02  0.00000000000E+00 0.  1.
         21    1    1    2  502  501  0.78009068280E+02  0.59621416377E+02 -0.44528873376E+03  0.45598485111E+03  0.00000000000E+00 0.  1.
<scales pt_clust_5="13000.00000" pt_clust_6="13000.00000" pt_clust_7="13000.00000" pt_clust_8="13000.00000" pt_clust_9="98.18415"></scales>
<clustering>
<clus scale="   90.514">  5  6 -1 -1</clus>
<clus scale="   91.714">  7  8 -1 -1</clus>
<clus scale="   98.184">  2  9  1 -1</clus>
<clus scale="  138.401">  1  5  2 -1</clus>
<clus scale="   98.184">  2  5  1 -1</clus>
</clustering>
</event>
<event>
 9    1  0.1803370E-005  0.2032824E+03  0.7546771E-02  0.1147368E+00
         -1   -1    0    0    0  501 -0.00000000000E+00  0.00000000000E+00  0.14963307411E+03  0.14963307411E+03  0.00000000000E+00 0.  1.
          1   -1    0    0  502    0  0.00000000000E+00 -0.00000000000E+00 -0.53309973956E+03  0.53309973956E+03  0.00000000000E+00 0. -1.
         23    2    1    2    0    0  0.13501411991E+03  0.11523333393E+03  0.32106689451E+02  0.20100111616E+03  0.88673983610E+02 0.  0.
         23    2    1    2    0    0 -0.15594417166E+03 -0.11937333147E+03 -0.34186070653E+03  0.40499343341E+03  0.92641035727E+02 0.  0.
        -13    1    4    4    0    0 -0.15471848457E+03 -0.75525773750E+02 -0.25491800418E+03  0.30761199720E+03  0.00000000000E+00 0. -1.
         13    1    4    4    0    0 -0.12256870879E+01 -0.43847557724E+02 -0.86942702349E+02  0.97381436213E+02  0.00000000000E+00 0.  1.
        -13    1    3    3    0    0  0.41640358964E+02 -0.89000671433E+01  0.10390684168E+01  0.42593548256E+02  0.00000000000E+00 0. -1.
         13    1    3    3    0    0  0.93373760945E+02  0.12413340107E+03  0.31067621034E+02  0.15840756791E+03  0.00000000000E+00 0.  1.
         21    1    1    2  502  501  0.20930051748E+02  0.41399975488E+01 -0.73712648375E+02  0.76738264095E+02  0.00000000000E+00 0.  1.
<scales pt_clust_5="13000.00000" pt_clust_6="13000.00000" pt_clust_7="13000.00000" pt_clust_8="13000.00000" pt_clust_9="21.33557"></scales>
<clustering>
<clus scale="   21.336">  2  9  1 -1</clus>
<clus scale="   88.674">  7  8 -1 -1</clus>
<clus scale="   92.641">  5  6 -1 -1</clus>
<clus scale="  201.505">  1  7  2 -1</clus>
<clus scale="   21.336">  2  5  1 -1</clus>
</clustering>
</event>
<event>
 9    1  0.1803370E-005  0.1345269E+03  0.7546771E-02  0.1222447E+00
          3   -1    0    0  502    0  0.00000000000E+00  0.00000000000E+00  0.17312451273E+03  0.17312451273E+03  0.00000000000E+00 0. -1.
         -3   -1    0    0    0  501 -0.00000000000E+00 -0.00000000000E+00 -0.16539894876E+03  0.16539894876E+03  0.00000000000E+00 0.  1.
         23    2    1    2    0    0  0.63456712466E+02  0.69121345774E+02 -0.54058559639E+02  0.14129692821E+03  0.90763314463E+02 0.  0.
         23    2    1    2    0    0 -0.93163786658E+02 -0.34970990114E+02  0.30419792329E+02  0.14215859047E+03  0.96856800405E+02 0.  0.
        -13    1    3    3    0    0  0.28692880378E+02 -0.18932046837E+01  0.18327490639E+02  0.34099303827E+02  0.00000000000E+00 0.  1.
         13    1    3    3    0    0  0.34763832088E+02  0.71014550457E+02 -0.72386050278E+02  0.10719762438E+03  0.00000000000E+00 0. -1.
        -13    1    4    4    0    0 -0.10957759768E+03 -0.11796214266E+02  0.20665601420E+02  0.11213147492E+03  0.00000000000E+00 0.  1.
         13    1    4    4    0    0  0.16413811026E+02 -0.23174775848E+02  0.97541909090E+01  0.30027115551E+02  0.00000000000E+00 0. -1.
         21    1    1    2  502  501  0.29707074192E+02 -0.34150355660E+02  0.31364331282E+02  0.55067942811E+02  0.00000000000E+00 0. -1.
<scales pt_clust_5="13000.00000" pt_clust_6="13000.00000" pt_clust_7="13000.00000" pt_clust_8="13000.00000" pt_clust_9="45.26320"></scales>
<clustering>
<clus scale="   45.263">  1  9  2 -1</clus>
<clus scale="   90.763">  5  6 -1 -1</clus>
<clus scale="   96.857">  7  8 -1 -1</clus>
<clus scale="  130.208">  2  5  1 -1</clus>
<clus scale="   45.263">  1  5  2 -1</clus>
</clustering>
</event>
<event>
 9    1  0.1803370E-005  0.9196776E+02  0.7546771E-02  0.1299516E+00
          1   -1    0    0  502    0  0.00000000000E+00  0.00000000000E+00  0.39068983810E+03  0.39068983810E+03  0.00000000000E+00 0. -1.
         -1   -1    0    0    0  501 -0.00000000000E+00 -0.00000000000E+00 -0.54619989325E+02  0.54619989325E+02  0.00000000000E+00 0.  1.
         23    2    1    2    0    0 -0.20560930555E+02  0.18801962073E+02  0.50456075016E+02  0.10645081300E+03  0.89496896255E+02 0.  0.
         23    2    1    2    0    0 -0.44816393757E+02  0.22848899058E+02  0.15697771910E+03  0.18867172027E+03  0.91784706777E+02 0.  0.
        -11    1    3    3    0    0 -0.52511622759E+02  0.20970732195E+02  0.48281514903E+02  0.74352853441E+02  0.00000000000E+00 0.  1.
         11    1    3    3    0    0  0.31950692204E+02 -0.21687701219E+01  0.21745601135E+01  0.32097959559E+02  0.00000000000E+00 0. -1.
        -13    1    4    4    0    0  0.11095715338E+02  0.18405548525E+02 -0.50676826200E+00  0.21497347033E+02  0.00000000000E+00 0. -1.
         13    1    4    4    0    0 -0.55912109096E+02  0.44433505336E+01  0.15748448736E+03  0.16717437324E+03  0.00000000000E+00 0.  1.
         21    1    1    2  502  501  0.65377324312E+02 -0.41650861132E+02  0.12863605466E+03  0.15018729415E+03  0.00000000000E+00 0. -1.
<scales pt_clust_5="13000.00000" pt_clust_6="13000.00000" pt_clust_7="13000.00000" pt_clust_8="13000.00000" pt_clust_9="77.51767"></scales>
<clustering>
<clus scale="   77.518">  1  9  2 -1</clus>
<clus scale="   89.497">  5  6 -1 -1</clus>
<clus scale="   89.685">  2  5  1 -1</clus>
<clus scale="   91.785">  7  8 -1 -1</clus>
<clus scale="   77.518">  1  5  2 -1</clus>
</clustering>
</event>
<event>
 9    1  0.1803370E-005  0.1142279E+03  0.7546771E-02  0.1253583E+00
          1   -1    0    0  502    0  0.00000000000E+00  0.00000000000E+00  0.21583450309E+03  0.21583450309E+03  0.00000000000E+00 0. -1.
         -1   -1    0    0    0  501 -0.00000000000E+00 -0.00000000000E+00 -0.12032187544E+03  0.12032187544E+03  0.00000000000E+00 0.  1.
         23    2    1    2    0    0 -0.84527414299E+01  0.63080774926E+02 -0.40992449980E+02  0.12051119560E+03  0.93765315051E+02 0.  0.
         23    2    1    2    0    0 -0.35367079649E+02 -0.72195884221E+02  0.10148447420E+03  0.15881469286E+03  0.91977889422E+02 0.  0.
        -13    1    4    4    0    0 -0.64863618421E+02 -0.48854901735E+02  0.51122230164E+02  0.95956098479E+02  0.00000000000E+00 0.  1.
         13    1    4    4    0    0  0.29496538772E+02 -0.23340982486E+02  0.50362244041E+02  0.62858594383E+02  0.00000000000E+00 0. -1.
        -13    1    3    3    0    0 -0.13478719593E+02  0.22449016383E+02 -0.67049543445E+02  0.71981077337E+02  0.00000000000E+00 0.  1.
         13    1    3    3    0    0  0.50259781629E+01  0.40631758543E+02  0.26057093465E+02  0.48530118263E+02  0.00000000000E+00 0. -1.
         21    1    1    2  502  501  0.43819821079E+02  0.91151092952E+01  0.35020603431E+02  0.56830490069E+02  0.00000000000E+00 0. -1.
<scales pt_clust_5="13000.00000" pt_clust_6="13000.00000" pt_clust_7="13000.00000" pt_clust_8="13000.00000" pt_clust_9="44.75781"></scales>
<clustering>
<clus scale="   44.758">  1  9  2 -1</clus>
<clus scale="   91.978">  5  6 -1 -1</clus>
<clus scale="   93.765">  7  8 -1 -1</clus>
<clus scale="  112.765">  1  5  2 -1</clus>
<clus scale="   44.758">  1  5  2 -1</clus>
</clustering>
</event>
<event>
 9    1  0.1803370E-005  0.9465561E+02  0.7546771E-02  0.1292649E+00
          1   -1    0    0  502    0  0.00000000000E+00  0.00000000000E+00  0.43764325104E+02  0.43764325104E+02  0.00000000000E+00 0. -1.
         -1   -1    0    0    0  501 -0.00000000000E+00 -0.00000000000E+00 -0.34364835041E+03  0.34364835041E+03  0.00000000000E+00 0.  1.
         23    2    1    2    0    0  0.41955299152E+02  0.68784088779E+01 -0.15904413474E+03  0.18842472877E+03  0.91658507412E+02 0.  0.
         23    2    1    2    0    0 -0.18011353712E+01  0.16832750074E+02 -0.10852441802E+03  0.14225289855E+03  0.90397744860E+02 0.  0.
        -11    1    3    3    0    0  0.72838050896E+01 -0.21851992566E+02  0.98842437756E-01  0.23034173862E+02  0.00000000000E+00 0. -1.
         11    1    3    3    0    0  0.34671494062E+02  0.28730401444E+02 -0.15914297718E+03  0.16539055491E+03  0.00000000000E+00 0.  1.
        -11    1    4    4    0    0  0.23079338919E+02  0.47250446860E+02 -0.59048281421E+02  0.79069337623E+02  0.00000000000E+00 0.  1.
         11    1    4    4    0    0 -0.24880474291E+02 -0.30417696786E+02 -0.49476136596E+02  0.63183560925E+02  0.00000000000E+00 0. -1.
         21    1    1    2  502  501 -0.40154163780E+02 -0.23711158952E+02 -0.32315472549E+02  0.56735048196E+02  0.00000000000E+00 0. -1.
<scales pt_clust_5="13000.00000" pt_clust_6="13000.00000" pt_clust_7="13000.00000" pt_clust_8="13000.00000" pt_clust_9="46.63235"></scales>
<clustering>
<clus scale="   46.632">  1  9  2 -1</clus>
<clus scale="   90.398">  7  8 -1 -1</clus>
<clus scale="   91.659">  5  6 -1 -1</clus>
<clus scale="   93.435">  1  7  2 -1</clus>
<clus scale="   46.632">  1  5  2 -1</clus>
</clustering>
</event>
<event>
 9    1  0.1803370E-005  0.1130983E+03  0.7546771E-02  0.1255788E+00
         -1   -1    0    0    0  501 -0.00000000000E+00  0.00000000000E+00  0.25044833255E+02  0.25044833255E+02  0.00000000000E+00 0.  1.
          1   -1    0    0  502    0  0.00000000000E+00 -0.00000000000E+00 -0.70793583922E+03  0.70793583922E+03  0.00000000000E+00 0. -1.
         23    2    1    2    0    0  0.35147323730E+02 -0.44893678906E+02 -0.19111581779E+03  0.21976488167E+03  0.92306937093E+02 0.  0.
         23    2    1    2    0    0 -0.47548774212E+02  0.66286223315E+02 -0.38970029645E+03  0.40818855409E+03  0.89982361094E+02 0.  0.
        -11    1    4    4    0    0  0.26799449904E+01 -0.20022609124E+02 -0.45243168026E+02  0.49548271759E+02  0.00000000000E+00 0.  1.
         11    1    4    4    0    0 -0.50228719203E+02  0.86308832439E+02 -0.34445712843E+03  0.35864028234E+03  0.00000000000E+00 0. -1.
        -11    1    3    3    0    0 -0.21982495292E+02 -0.11290482883E+01 -0.10619095884E+03  0.10844825765E+03  0.00000000000E+00 0. -1.
         11    1    3    3    0    0  0.57129819022E+02 -0.43764630618E+02 -0.84924858952E+02  0.11131662402E+03  0.00000000000E+00 0.  1.
         21    1    1    2  502  501  0.12401450482E+02 -0.21392544409E+02 -0.10207489172E+03  0.10502723670E+03  0.00000000000E+00 0.  1.
<scales pt_clust_5="13000.00000" pt_clust_6="13000.00000" pt_clust_7="13000.00000" pt_clust_8="13000.00000" pt_clust_9="24.72725"></scales>
<clustering>
<clus scale="   24.727">  2  9  1 -1</clus>
<clus scale="   89.982">  5  6 -1 -1</clus>
<clus scale="   92.307">  7  8 -1 -1</clus>
<clus scale="  111.209">  2  5  1 -1</clus>
<clus scale="   24.727">  2  5  1 -1</clus>
</clustering>
</event>
<event>
 9    1  0.1803370E-005  0.9702535E+02  0.7546771E-02  0.1287172E+00
         -1   -1    0    0    0  501 -0.00000000000E+00  0.00000000000E+00  0.11576305544E+03  0.11576305544E+03  0.00000000000E+00 0.  1.
          1   -1    0    0  502    0  0.00000000000E+00 -0.00000000000E+00 -0.31383914440E+03  0.31383914440E+03  0.00000000000E+00 0. -1.
         23    2    1    2    0    0 -0.29240496570E+02  0.71866235722E+01  0.72372199596E+02  0.12042346086E+03  0.91418928310E+02 0.  0.
         23    2    1    2    0    0  0.53509278970E+02 -0.26259722119E+02 -0.24912813337E+03  0.27166466289E+03  0.90465718857E+02 0.  0.
        -13    1    3    3    0    0 -0.38547169464E+02 -0.27142293369E+02  0.70494262987E+02  0.84805833980E+02  0.00000000000E+00 0.  1.
         13    1    3    3    0    0  0.93066728944E+01  0.34328916941E+02  0.18779366092E+01  0.35617626881E+02  0.00000000000E+00 0. -1.
        -13    1    4    4    0    0  0.22870048499E+02  0.19171703227E+01 -0.43330623215E+01  0.23355729265E+02  0.00000000000E+00 0.  1.
         13    1    4    4    0    0  0.30639230470E+02 -0.28176892442E+02 -0.24479507105E+03  0.24830893363E+03  0.00000000000E+00 0. -1.
         21    1    1    2  502  501 -0.24268782400E+02  0.19073098547E+02 -0.21320155188E+02  0.37514076086E+02  0.00000000000E+00 0.  1.
<scales pt_clust_5="13000.00000" pt_clust_6="13000.00000" pt_clust_7="13000.00000" pt_clust_8="13000.00000" pt_clust_9="30.86676"></scales>
<clustering>
<clus scale="   30.867">  2  9  1 -1</clus>
<clus scale="   90.466">  7  8 -1 -1</clus>
<clus scale="   91.419">  5  6 -1 -1</clus>
<clus scale="   96.128">  2  7  1 -1</clus>
<clus scale="   30.867">  2  5  1 -1</clus>
</clustering>
</event>
<event>
 9    1  0.1803370E-005  0.1575278E+03  0.7546771E-02  0.1191920E+00
         -1   -1    0    0    0  501 -0.00000000000E+00  0.00000000000E+00  0.38553947896E+02  0.38553947896E+02  0.00000000000E+00 0.  1.
          1   -1    0    0  502    0  0.00000000000E+00 -0.00000000000E+00 -0.82068749847E+03  0.82068749847E+03  0.00000000000E+00 0. -1.
         23    2    1    2    0    0 -0.11568281066E+03 -0.60273810514E+02 -0.23049793655E+03  0.28044109450E+03  0.92208805499E+02 0.  0.
         23    2    1    2    0    0  0.11721585326E+03  0.39534615906E+02 -0.45635690431E+03  0.48127857514E+03  0.89804791997E+02 0.  0.
        -11    1    4    4    0    0  0.12935972009E+03  0.22977303540E+02 -0.41102878937E+03  0.43151658062E+03  0.00000000000E+00 0. -1.
         11    1    4    4    0    0 -0.12143866830E+02  0.16557312366E+02 -0.45328114935E+02  0.49761994513E+02  0.00000000000E+00 0.  1.
        -13    1    3    3    0    0 -0.75201346428E+02 -0.80035748080E+02 -0.12913783795E+03  0.16952151682E+03  0.00000000000E+00 0.  1.
         13    1    3    3    0    0 -0.40481464230E+02  0.19761937566E+02 -0.10136009860E+03  0.11091957767E+03  0.00000000000E+00 0. -1.
         21    1    1    2  502  501 -0.15330426020E+01  0.20739194609E+02 -0.95278709710E+02  0.97521776731E+02  0.00000000000E+00 0. -1.
<scales pt_clust_5="13000.00000" pt_clust_6="13000.00000" pt_clust_7="13000.00000" pt_clust_8="13000.00000" pt_clust_9="20.79578"></scales>
<clustering>
<clus scale="   20.796">  2  9  1 -1</clus>
<clus scale="   89.805">  5  6 -1 -1</clus>
<clus scale="   92.209">  7  8 -1 -1</clus>
<clus scale="  156.133">  2  5  1 -1</clus>
<clus scale="   20.796">  2  5  1 -1</clus>
</clustering>
</event>
<event>
 9    1  0.1803370E-005  0.9529138E+02  0.7546771E-02  0.1292657E+00
          2   -1    0    0  502    0  0.00000000000E+00  0.00000000000E+00  0.14707526471E+03  0.14707526471E+03  0.00000000000E+00 0. -1.
         -2   -1    0    0    0  501 -0.00000000000E+00 -0.00000000000E+00 -0.29382720325E+03  0.29382720325E+03  0.00000000000E+00 0.  1.
         23    2    1    2    0    0  0.14537662273E+02  0.17894948926E+02 -0.23341296905E+03  0.25185445161E+03  0.91746813844E+02 0.  0.
         23    2    1    2    0    0 -0.30033934784E+02 -0.54919343278E+02  0.99646819406E+02  0.14686305514E+03  0.87869772065E+02 0.  0.
        -11    1    3    3    0    0  0.33570956492E+02 -0.28308688963E+02 -0.12471816080E+03  0.13222333616E+03  0.00000000000E+00 0.  1.
         11    1    3    3    0    0 -0.19033294219E+02  0.46203637890E+02 -0.10869480825E+03  0.11963111545E+03  0.00000000000E+00 0. -1.
        -13    1    4    4    0    0 -0.59609500570E+02 -0.48932528313E+02  0.78283406306E+02  0.10989074842E+03  0.00000000000E+00 0. -1.
         13    1    4    4    0    0  0.29575565786E+02 -0.59868149649E+01  0.21363413101E+02  0.36972306721E+02  0.00000000000E+00 0.  1.
         21    1    1    2  502  501  0.15496272511E+02  0.37024394352E+02 -0.12985788895E+02  0.42184961207E+02  0.00000000000E+00 0.  1.
<scales pt_clust_5="13000.00000" pt_clust_6="13000.00000" pt_clust_7="13000.00000" pt_clust_8="13000.00000" pt_clust_9="40.13652"></scales>
<clustering>
<clus scale="   40.137">  1  9  2 -1</clus>
<clus scale="   87.870">  7  8 -1 -1</clus>
<clus scale="   91.565">  1  7  2 -1</clus>
<clus scale="   91.747">  5  6 -1 -1</clus>
<clus scale="   40.137">  1  5  2 -1</clus>
</clustering>
</event>
<event>
 9    1  0.1803370E-005  0.1107599E+03  0.7546771E-02  0.1266464E+00
          1   -1    0    0  502    0  0.00000000000E+00  0.00000000000E+00  0.78846665922E+02  0.78846665922E+02  0.00000000000E+00 0. -1.
         -1   -1    0    0    0  501 -0.00000000000E+00 -0.00000000000E+00 -0.17064217744E+03  0.17064217744E+03  0.00000000000E+00 0.  1.
         23    2    1    2    0    0 -0.38236205309E+01 -0.41423762026E+02 -0.46616309449E+02  0.11021594266E+03  0.90796065860E+02 0.  0.
         23    2    1    2    0    0 -0.31235152234E+01  0.19469331899E+02 -0.42350089010E+02  0.11607239256E+03  0.10625657177E+03 0.  0.
        -11    1    3    3    0    0 -0.33422909033E+01 -0.70556132365E+02 -0.35233645345E+02  0.78935090340E+02  0.00000000000E+00 0.  1.
         11    1    3    3    0    0 -0.48132962758E+00  0.29132370339E+02 -0.11382664104E+02  0.31280852320E+02  0.00000000000E+00 0. -1.
        -11    1    4    4    0    0  0.28915636806E+02  0.16745891880E+01 -0.66259673515E+02  0.72313640727E+02  0.00000000000E+00 0.  1.
         11    1    4    4    0    0 -0.32039152030E+02  0.17794742711E+02  0.23909584505E+02  0.43758751835E+02  0.00000000000E+00 0. -1.
         21    1    1    2  502  501  0.69471357542E+01  0.21954430127E+02 -0.28291130631E+01  0.23200508143E+02  0.00000000000E+00 0. -1.
<scales pt_clust_5="13000.00000" pt_clust_6="13000.00000" pt_clust_7="13000.00000" pt_clust_8="13000.00000" pt_clust_9="23.02737"></scales>
<clustering>
<clus scale="   23.027">  1  9  2 -1</clus>
<clus scale="   90.796">  5  6 -1 -1</clus>
<clus scale="   96.027">  2  5  1 -1</clus>
<clus scale="  106.257">  7  8 -1 -1</clus>
<clus scale="   23.027">  1  5  2 -1</clus>
</clustering>
</event>
<event>
 9    1  0.1803370E-005  0.1296242E+03  0.7546771E-02  0.1228223E+00
         -1   -1    0    0    0  501 -0.00000000000E+00  0.00000000000E+00  0.19712468246E+03  0.19712468246E+03  0.00000000000E+00 0.  1.
          1   -1    0    0  502    0  0.00000000000E+00 -0.00000000000E+00 -0.13464389099E+03  0.13464389099E+03  0.00000000000E+00 0. -1.
         23    2    1    2    0    0  0.31357241133E+02  0.86532750459E+02  0.63019374036E+02  0.14458465681E+03  0.91989608150E+02 0.  0.
         23    2    1    2    0    0 -0.50306304378E+02 -0.76826325345E+02  0.44911321449E+02  0.13699452074E+03  0.91200128241E+02 0.  0.
        -11    1    3    3    0    0  0.32385375242E+01  0.53694058653E+02 -0.14599797881E+02  0.55737726524E+02  0.00000000000E+00 0. -1.
         11    1    3    3    0    0  0.28118703608E+02  0.32838691806E+02  0.77619171917E+02  0.88846930286E+02  0.00000000000E+00 0.  1.
        -13    1    4    4    0    0 -0.61725667498E+02 -0.14634478718E+02  0.36549063179E+02  0.73212430739E+02  0.00000000000E+00 0.  1.
         13    1    4    4    0    0  0.11419363121E+02 -0.62191846628E+02  0.83622582699E+01  0.63782089997E+02  0.00000000000E+00 0. -1.
         21    1    1    2  502  501  0.18949063245E+02 -0.97064251142E+01 -0.45449904018E+02  0.50189395908E+02  0.00000000000E+00 0. -1.
<scales pt_clust_5="13000.00000" pt_clust_6="13000.00000" pt_clust_7="13000.00000" pt_clust_8="13000.00000" pt_clust_9="21.29041"></scales>
<clustering>
<clus scale="   21.290">  2  9  1 -1</clus>
<clus scale="   91.200">  7  8 -1 -1</clus>
<clus scale="   91.990">  5  6 -1 -1</clus>
<clus scale="  129.065">  2  7  1 -1</clus>
<clus scale="   21.290">  2  5  1 -1</clus>
</clustering>
</event>
<event>
 9    1  0.1803370E-005  0.9248730E+02  0.7546771E-02  0.1301028E+00
         -1   -1    0    0    0  501 -0.00000000000E+00  0.00000000000E+00  0.33032631808E+03  0.33032631808E+03  0.00000000000E+00 0.  1.
          1   -1    0    0  502    0  0.00000000000E+00 -0.00000000000E+00 -0.12675518543E+03  0.12675518543E+03  0.00000000000E+00 0. -1.
         23    2    1    2    0    0  0.18333659395E+02 -0.72670722310E+01  0.27504595110E+03  0.28808440444E+03  0.83387142058E+02 0.  0.
         23    2    1    2    0    0 -0.99363231072E+01  0.30681965930E+02 -0.27608635989E+01  0.95919194771E+02  0.90292613249E+02 0.  0.
        -11    1    4    4    0    0 -0.40399909899E+02  0.38825044449E+02 -0.20589658129E+02  0.59694813997E+02  0.00000000000E+00 0. -1.
         11    1    4    4    0    0  0.30463586792E+02 -0.81430785186E+01  0.17828794530E+02  0.36224380773E+02  0.00000000000E+00 0.  1.
        -13    1    3    3    0    0  0.35119494087E+02 -0.27035379379E+02  0.24226470011E+03  0.24628535385E+03  0.00000000000E+00 0.  1.
         13    1    3    3    0    0 -0.16785834692E+02  0.19768307148E+02  0.32781250997E+02  0.41799050596E+02  0.00000000000E+00 0. -1.
         21    1    1    2  502  501 -0.83973362880E+01 -0.23414893699E+02 -0.68713954856E+02  0.73077904292E+02  0.00000000000E+00 0. -1.
<scales pt_clust_5="13000.00000" pt_clust_6="13000.00000" pt_clust_7="13000.00000" pt_clust_8="13000.00000" pt_clust_9="24.87514"></scales>
<clustering>
<clus scale="   24.875">  2  9  1 -1</clus>
<clus scale="   83.387">  7  8 -1 -1</clus>
<clus scale="   85.759">  1  7  2 -1</clus>
<clus scale="   90.293">  5  6 -1 -1</clus>
<clus scale="   24.875">  2  5  1 -1</clus>
</clustering>
</event>
<event>
 9    1  0.1803370E-005  0.1103249E+03  0.7546771E-02  0.1260739E+00
          2   -1    0    0  502    0  0.00000000000E+00  0.00000000000E+00  0.44034271557E+03  0.44034271557E+03  0.00000000000E+00 0. -1.
         -2   -1    0    0    0  501 -0.00000000000E+00 -0.00000000000E+00 -0.66256748474E+02  0.66256748474E+02  0.00000000000E+00 0.  1.
         23    2    1    2    0    0 -0.10169404770E+02  0.66733307764E+02  0.73787946333E+01  0.11218241181E+03  0.89295552809E+02 0.  0.
         23    2    1    2    0    0  0.34168713895E+02 -0.31342190535E+02  0.25325759496E+03  0.27317636329E+03  0.91302147527E+02 0.  0.
        -13    1    3    3    0    0  0.13965720134E+01 -0.22155465457E+02  0.33790819413E+01  0.22455138783E+02  0.00000000000E+00 0. -1.
         13    1    3    3    0    0 -0.11565976783E+02  0.88888773221E+02  0.39997126921E+01  0.89727273029E+02  0.00000000000E+00 0.  1.
        -13    1    4    4    0    0  0.46683771281E+02  0.16449515199E+02  0.91333221810E+02  0.10388319622E+03  0.00000000000E+00 0.  1.
         13    1    4    4    0    0 -0.12515057386E+02 -0.47791705733E+02  0.16192437315E+03  0.16929316707E+03  0.00000000000E+00 0. -1.
         21    1    1    2  502  501 -0.23999309125E+02 -0.35391117229E+02  0.11344957750E+03  0.12124068893E+03  0.00000000000E+00 0. -1.
<scales pt_clust_5="13000.00000" pt_clust_6="13000.00000" pt_clust_7="13000.00000" pt_clust_8="13000.00000" pt_clust_9="42.76094"></scales>
<clustering>
<clus scale="   42.761">  1  9  2 -1</clus>
<clus scale="   89.296">  5  6 -1 -1</clus>
<clus scale="   91.302">  7  8 -1 -1</clus>
<clus scale="  108.670">  2  5  1 -1</clus>
<clus scale="   42.761">  1  5  2 -1</clus>
</clustering>
</event>
<event>
 9    1  0.1803370E-005  0.1145139E+03  0.7546771E-02  0.1252561E+00
         -1   -1    0    0    0  501 -0.00000000000E+00  0.00000000000E+00  0.99813238548E+02  0.99813238548E+02  0.00000000000E+00 0.  1.
          1   -1    0    0  502    0  0.00000000000E+00 -0.00000000000E+00 -0.39249199231E+03  0.39249199231E+03  0.00000000000E+00 0. -1.
         23    2    1    2    0    0 -0.63899978498E+02  0.24357466249E+02 -0.32698744160E+02  0.12101082955E+03  0.94328784494E+02 0.  0.
         23    2    1    2    0    0  0.59868087443E+02  0.33499477558E+02 -0.28505852605E+03  0.30810726592E+03  0.94685379789E+02 0.  0.
        -13    1    4    4    0    0  0.74623730793E+02  0.89972143792E+01 -0.12776826952E+03  0.14823758552E+03  0.00000000000E+00 0.  1.
         13    1    4    4    0    0 -0.14755643350E+02  0.24502263178E+02 -0.15729025653E+03  0.15986968040E+03  0.00000000000E+00 0. -1.
        -13    1    3    3    0    0 -0.59833522639E+02 -0.26441460973E+02 -0.15515565392E+02  0.67230454849E+02  0.00000000000E+00 0.  1.
         13    1    3    3    0    0 -0.40664558589E+01  0.50798927222E+02 -0.17183178768E+02  0.53780374699E+02  0.00000000000E+00 0. -1.
         21    1    1    2  502  501  0.40318910553E+01 -0.57856943807E+02  0.25078516447E+02  0.63187135395E+02  0.00000000000E+00 0.  1.
<scales pt_clust_5="13000.00000" pt_clust_6="13000.00000" pt_clust_7="13000.00000" pt_clust_8="13000.00000" pt_clust_9="57.99726"></scales>
<clustering>
<clus scale="   57.997">  1  9  2 -1</clus>
<clus scale="   94.329">  7  8 -1 -1</clus>
<clus scale="   94.685">  5  6 -1 -1</clus>
<clus scale="  114.219">  1  7  2 -1</clus>
<clus scale="  114.514">  2  5  1 -1</clus>
</clustering>
</event>
<event>
 9    1  0.1803370E-005  0.9388044E+02  0.7546771E-02  0.1298649E+00
          2   -1    0    0  502    0  0.00000000000E+00  0.00000000000E+00  0.55524496078E+03  0.55524496078E+03  0.00000000000E+00 0. -1.
         -2   -1    0    0    0  501 -0.00000000000E+00 -0.00000000000E+00 -0.36371530201E+02  0.36371530201E+02  0.00000000000E+00 0.  1.
         23    2    1    2    0    0 -0.68899498704E+01 -0.13263392554E+02  0.33365172518E+02  0.92171495817E+02  0.84610643023E+02 0.  0.
         23    2    1    2    0    0 -0.13677026890E+02  0.10739032881E+02  0.35822270269E+03  0.37048381678E+03  0.92910526208E+02 0.  0.
        -11    1    3    3    0    0  0.21719617982E+02  0.27395456576E+02  0.61608652312E+01  0.35499424033E+02  0.00000000000E+00 0.  1.
         11    1    3    3    0    0 -0.28609567852E+02 -0.40658849130E+02  0.27204307287E+02  0.56672071784E+02  0.00000000000E+00 0. -1.
        -13    1    4    4    0    0 -0.27427825795E+02 -0.36026405177E+02  0.15356914778E+03  0.16010518620E+03  0.00000000000E+00 0. -1.
         13    1    4    4    0    0  0.13750798904E+02  0.46765438059E+02  0.20465355491E+03  0.21037863058E+03  0.00000000000E+00 0.  1.
         21    1    1    2  502  501  0.20566976761E+02  0.25243596724E+01  0.12728555537E+03  0.12896117838E+03  0.00000000000E+00 0. -1.
<scales pt_clust_5="13000.00000" pt_clust_6="13000.00000" pt_clust_7="13000.00000" pt_clust_8="13000.00000" pt_clust_9="20.72132"></scales>
<clustering>
<clus scale="   20.721">  1  9  2 -1</clus>
<clus scale="   84.611">  5  6 -1 -1</clus>
<clus scale="   85.675">  2  5  1 -1</clus>
<clus scale="   92.911">  7  8 -1 -1</clus>
<clus scale="   20.721">  1  5  2 -1</clus>
</clustering>
</event>
<event>
 9    1  0.2003725E-005  0.9716781E+02  0.7546771E-02  0.1288470E+00
          2   -1    0    0  502    0  0.00000000000E+00  0.00000000000E+00  0.31609087600E+03  0.31609087600E+03  0.00000000000E+00 0. -1.
         -2   -1    0    0    0  501 -0.00000000000E+00 -0.00000000000E+00 -0.43241838723E+03  0.43241838723E+03  0.00000000000E+00 0.  1.
         23    2    1    2    0    0  0.29495307811E+02  0.22499935868E+00 -0.40221974355E+03  0.41291020068E+03  0.88566855652E+02 0.  0.
         23    2    1    2    0    0 -0.32443421781E+02  0.34045062440E+02  0.92065899745E+02  0.13874435543E+03  0.92532288286E+02 0.  0.
        -11    1    4    4    0    0 -0.49974545046E+02  0.56421211815E+02  0.66734358726E+02  0.10066917567E+03  0.00000000000E+00 0. -1.
         11    1    4    4    0    0  0.17531123265E+02 -0.22376149375E+02  0.25331541019E+02  0.38075179765E+02  0.00000000000E+00 0.  1.
        -13    1    3    3    0    0  0.61055866170E+02  0.71358821103E+00 -0.23979551697E+03  0.24744740443E+03  0.00000000000E+00 0.  1.
         13    1    3    3    0    0 -0.31560558359E+02 -0.48858885235E+00 -0.16242422658E+03  0.16546279625E+03  0.00000000000E+00 0. -1.
         21    1    1    2  502  501  0.29481139704E+01 -0.34270061799E+02  0.19382633257E+03  0.19685470711E+03  0.00000000000E+00 0. -1.
<scales pt_clust_5="13000.00000" pt_clust_6="13000.00000" pt_clust_7="13000.00000" pt_clust_8="13000.00000" pt_clust_9="34.39664"></scales>
<clustering>
<clus scale="   34.397">  1  9  2 -1</clus>
<clus scale="   88.567">  7  8 -1 -1</clus>
<clus scale="   92.532">  5  6 -1 -1</clus>
<clus scale="   93.399">  2  7  1 -1</clus>
<clus scale="   34.397">  1  5  2 -1</clus>
</clustering>
</event>
<event>
 9    1  0.1803370E-005  0.1057266E+03  0.7546771E-02  0.1269704E+00
          2   -1    0    0  502    0  0.00000000000E+00  0.00000000000E+00  0.78038698003E+03  0.78038698003E+03  0.00000000000E+00 0. -1.
         -2   -1    0    0    0  501 -0.00000000000E+00 -0.00000000000E+00 -0.38385116241E+02  0.38385116241E+02  0.00000000000E+00 0.  1.
         23    2    1    2    0    0 -0.17095029723E+01  0.52181472237E+02  0.62523065793E+02  0.12302523407E+03  0.92196778777E+02 0.  0.
         23    2    1    2    0    0 -0.37556050091E+02 -0.48225150165E+02  0.45263776952E+03  0.46549854333E+03  0.89843316061E+02 0.  0.
        -13    1    4    4    0    0 -0.66050804571E+02 -0.26262650892E+02  0.33609690630E+03  0.34353102632E+03  0.00000000000E+00 0. -1.
         13    1    4    4    0    0  0.28494754480E+02 -0.21962499274E+02  0.11654086322E+03  0.12196751702E+03  0.00000000000E+00 0.  1.
        -13    1    3    3    0    0  0.35591186412E+02  0.36912903869E+01  0.32606184615E+00  0.35783578514E+02  0.00000000000E+00 0.  1.
         13    1    3    3    0    0 -0.37300689384E+02  0.48490181850E+02  0.62197003947E+02  0.87241655557E+02  0.00000000000E+00 0. -1.
         21    1    1    2  502  501  0.39265553063E+02 -0.39563220715E+01  0.22684102847E+03  0.23024831887E+03  0.00000000000E+00 0.  1.
<scales pt_clust_5="13000.00000" pt_clust_6="13000.00000" pt_clust_7="13000.00000" pt_clust_8="13000.00000" pt_clust_9="39.46437"></scales>
<clustering>
<clus scale="   39.464">  1  9  2 -1</clus>
<clus scale="   89.843">  5  6 -1 -1</clus>
<clus scale="   92.197">  7  8 -1 -1</clus>
<clus scale="  103.681">  1  5  2 -1</clus>
<clus scale="   39.464">  1  5  2 -1</clus>
</clustering>
</event>
<event>
 9    1  0.1803370E-005  0.1062615E+03  0.7546771E-02  0.1269054E+00
         -2   -1    0    0    0  501 -0.00000000000E+00  0.00000000000E+00  0.64329831206E+03  0.64329831206E+03  0.00000000000E+00 0.  1.
          2   -1    0    0  502    0  0.00000000000E+00 -0.00000000000E+00 -0.23488200346E+02  0.23488200346E+02  0.00000000000E+00 0. -1.
         23    2    1    2    0    0  0.20136334705E+02  0.33977047986E+02  0.30652926746E+03  0.32256593662E+03  0.92350852150E+02 0.  0.
         23    2    1    2    0    0 -0.44474801802E+02 -0.36156686319E+02  0.28919037352E+03  0.30990640111E+03  0.95527961087E+02 0.  0.
        -11    1    3    3    0    0  0.46006886894E+02 -0.48855262550E+00  0.23161647794E+03  0.23614204450E+03  0.00000000000E+00 0. -1.
         11    1    3    3    0    0 -0.25870552190E+02  0.34465600611E+02  0.74912789512E+02  0.86423892117E+02  0.00000000000E+00 0.  1.
        -13    1    4    4    0    0 -0.33480182915E+02 -0.69034703709E+02  0.19709929965E+03  0.21150613912E+03  0.00000000000E+00 0.  1.
         13    1    4    4    0    0 -0.10994618887E+02  0.32878017390E+02  0.92091073867E+02  0.98400261981E+02  0.00000000000E+00 0. -1.
         21    1    1    2  502  501  0.24338467097E+02  0.21796383339E+01  0.24090470744E+02  0.34314174689E+02  0.00000000000E+00 0. -1.
<scales pt_clust_5="13000.00000" pt_clust_6="13000.00000" pt_clust_7="13000.00000" pt_clust_8="13000.00000" pt_clust_9="24.43587"></scales>
<clustering>
<clus scale="   24.436">  2  9  1 -1</clus>
<clus scale="   92.351">  5  6 -1 -1</clus>
<clus scale="   95.528">  7  8 -1 -1</clus>
<clus scale="  103.415">  1  5  2 -1</clus>
<clus scale="   24.436">  2  5  1 -1</clus>
</clustering>
</event>
<event>
 9    1  0.1803370E-005  0.1508973E+03  0.7546771E-02  0.1200351E+00
         -1   -1    0    0    0  501 -0.00000000000E+00  0.00000000000E+00  0.94000816110E+02  0.94000816110E+02  0.00000000000E+00 0.  1.
          1   -1    0    0  502    0  0.00000000000E+00 -0.00000000000E+00 -0.28332882083E+03  0.28332882083E+03  0.00000000000E+00 0. -1.
         23    2    1    2    0    0 -0.77133588241E+02 -0.75095529917E+02 -0.77552345400E+02  0.16410160833E+03  0.96571437456E+02 0.  0.
         23    2    1    2    0    0  0.76332506438E+02  0.99875820214E+02 -0.87044800509E+02  0.17820917801E+03  0.91541699951E+02 0.  0.
        -11    1    4    4    0    0  0.86287033287E+02  0.44151510867E+02 -0.41004454657E+02  0.10524340040E+03  0.00000000000E+00 0.  1.
         11    1    4    4    0    0 -0.99545268493E+01  0.55724309347E+02 -0.46040345852E+02  0.72965777616E+02  0.00000000000E+00 0. -1.
        -13    1    3    3    0    0 -0.55297980185E+02  0.78074502902E+00 -0.62975422265E+02  0.83811574289E+02  0.00000000000E+00 0. -1.
         13    1    3    3    0    0 -0.21835608057E+02 -0.75876274946E+02 -0.14576923134E+02  0.80290034045E+02  0.00000000000E+00 0.  1.
         21    1    1    2  502  501  0.80108180355E+00 -0.24780290297E+02 -0.24730858809E+02  0.35018850590E+02  0.00000000000E+00 0.  1.
<scales pt_clust_5="13000.00000" pt_clust_6="13000.00000" pt_clust_7="13000.00000" pt_clust_8="13000.00000" pt_clust_9="24.79324"></scales>
<clustering>
<clus scale="   24.793">  2  9  1 -1</clus>
<clus scale="   91.542">  5  6 -1 -1</clus>
<clus scale="   96.571">  7  8 -1 -1</clus>
<clus scale="  147.729">  2  5  1 -1</clus>
<clus scale="   24.793">  2  5  1 -1</clus>
</clustering>
</event>
<event>
 9    1  0.1803370E-005  0.1169925E+03  0.7546771E-02  0.1248754E+00
         -2   -1    0    0    0  501 -0.00000000000E+00  0.00000000000E+00  0.13239144093E+03  0.13239144093E+03  0.00000000000E+00 0.  1.
          2   -1    0    0  502    0  0.00000000000E+00 -0.00000000000E+00 -0.27129116038E+03  0.27129116038E+03  0.00000000000E+00 0. -1.
         23    2    1    2    0    0  0.70875750318E+02  0.84706448988E+01  0.78130623688E+02  0.14182270639E+03  0.94414839303E+02 0.  0.
         23    2    1    2    0    0 -0.50283263631E+02 -0.25142395459E+02 -0.20677034800E+03  0.23344748083E+03  0.92645576492E+02 0.  0.
        -11    1    4    4    0    0 -0.57747744569E+02  0.21133750593E+02 -0.11779972139E+03  0.13288420439E+03  0.00000000000E+00 0.  1.
         11    1    4    4    0    0  0.74644809381E+01 -0.46276146052E+02 -0.88970626611E+02  0.10056327644E+03  0.00000000000E+00 0. -1.
        -11    1    3    3    0    0  0.36610572094E+02  0.51323343595E+02  0.47917606381E+02  0.79186593487E+02  0.00000000000E+00 0.  1.
         11    1    3    3    0    0  0.34265178224E+02 -0.42852698696E+02  0.30213017307E+02  0.62636112899E+02  0.00000000000E+00 0. -1.
         21    1    1    2  502  501 -0.20592486687E+02  0.16671750560E+02 -0.10259995136E+02  0.28412414098E+02  0.00000000000E+00 0.  1.
<scales pt_clust_5="13000.00000" pt_clust_6="13000.00000" pt_clust_7="13000.00000" pt_clust_8="13000.00000" pt_clust_9="26.49524"></scales>
<clustering>
<clus scale="   26.495">  2  9  1 -1</clus>
<clus scale="   92.646">  5  6 -1 -1</clus>
<clus scale="   94.415">  7  8 -1 -1</clus>
<clus scale="  115.569">  2  5  1 -1</clus>
<clus scale="   26.495">  2  5  1 -1</clus>
</clustering>
</event>
<event>
 9    1  0.1803370E-005  0.1012390E+03  0.7546771E-02  0.1281889E+00
         -1   -1    0    0    0  501 -0.00000000000E+00  0.00000000000E+00  0.19190918014E+03  0.19190918014E+03  0.00000000000E+00 0.  1.
          1   -1    0    0  502    0  0.00000000000E+00 -0.00000000000E+00 -0.86403224538E+02  0.86403224538E+02  0.00000000000E+00 0. -1.
         23    2    1    2    0    0  0.52582377844E+01 -0.22416777337E+02  0.56508583061E+02  0.11078544766E+03  0.92466396502E+02 0.  0.
         23    2    1    2    0    0 -0.40802814036E+02  0.57943670279E+02  0.30792225701E+02  0.11407600385E+03  0.83921599918E+02 0.  0.
        -11    1    3    3    0    0  0.44226376208E+02  0.56419357629E+01  0.14213052478E+02  0.46795455467E+02  0.00000000000E+00 0.  1.
         11    1    3    3    0    0 -0.38968138424E+02 -0.28058713100E+02  0.42295530583E+02  0.63989992189E+02  0.00000000000E+00 0. -1.
        -13    1    4    4    0    0 -0.20730984199E+02  0.76903809209E+02  0.33344938682E+02  0.86347290128E+02  0.00000000000E+00 0. -1.
         13    1    4    4    0    0 -0.20071829838E+02 -0.18960138930E+02 -0.25527129813E+01  0.27728713725E+02  0.00000000000E+00 0.  1.
         21    1    1    2  502  501  0.35544576252E+02 -0.35526892942E+02  0.18205146837E+02  0.53450953166E+02  0.00000000000E+00 0.  1.
<scales pt_clust_5="13000.00000" pt_clust_6="13000.00000" pt_clust_7="13000.00000" pt_clust_8="13000.00000" pt_clust_9="50.25512"></scales>
<clustering>
<clus scale="   50.255">  2  9  1 -1</clus>
<clus scale="   83.922">  7  8 -1 -1</clus>
<clus scale="   92.466">  5  6 -1 -1</clus>
<clus scale="   93.499">  2  7  1 -1</clus>
<clus scale="   50.255">  2  5  1 -1</clus>
</clustering>
</event>
<event>
 9    1  0.1803370E-005  0.1067674E+03  0.7546771E-02  0.1270426E+00
          2   -1    0    0  502    0  0.00000000000E+00  0.00000000000E+00  0.13812395570E+03  0.13812395570E+03  0.00000000000E+00 0. -1.
         -2   -1    0    0    0  501 -0.00000000000E+00 -0.00000000000E+00 -0.10496940452E+03  0.10496940452E+03  0.00000000000E+00 0.  1.
         23    2    1    2    0    0 -0.31910214079E+02 -0.19356790600E+01 -0.10802668098E+02  0.97944443805E+02  0.91947853799E+02 0.  0.
         23    2    1    2    0    0  0.42348236195E+02  0.25602692515E+02  0.28998705230E+02  0.11526853867E+03  0.99985199553E+02 0.  0.
        -13    1    3    3    0    0  0.51048932175E+01 -0.41777776456E+02  0.17749642565E+01  0.42125918844E+02  0.00000000000E+00 0.  1.
         13    1    3    3    0    0 -0.37015107296E+02  0.39842097396E+02 -0.12577632354E+02  0.55818524960E+02  0.00000000000E+00 0. -1.
        -13    1    4    4    0    0 -0.80942097110E+01  0.37153927465E+02  0.47020570440E+02  0.60472015027E+02  0.00000000000E+00 0. -1.
         13    1    4    4    0    0  0.50442445906E+02 -0.11551234950E+02 -0.18021865211E+02  0.54796523644E+02  0.00000000000E+00 0.  1.
         21    1    1    2  502  501 -0.10438022116E+02 -0.23667013455E+02  0.14958514043E+02  0.29880377742E+02  0.00000000000E+00 0.  1.
<scales pt_clust_5="13000.00000" pt_clust_6="13000.00000" pt_clust_7="13000.00000" pt_clust_8="13000.00000" pt_clust_9="25.86658"></scales>
<clustering>
<clus scale="   25.867">  1  9  2 -1</clus>
<clus scale="   91.948">  5  6 -1 -1</clus>
<clus scale="   99.281">  2  5  1 -1</clus>
<clus scale="   99.985">  7  8 -1 -1</clus>
<clus scale="   25.867">  1  5  2 -1</clus>
</clustering>
</event>
<event>
 9    1  0.1803370E-005  0.1439456E+03  0.7546771E-02  0.1208450E+00
          1   -1    0    0  502    0  0.00000000000E+00  0.00000000000E+00  0.35884966175E+02  0.35884966175E+02  0.00000000000E+00 0. -1.
         -1   -1    0    0    0  501 -0.00000000000E+00 -0.00000000000E+00 -0.79181656330E+03  0.79181656330E+03  0.00000000000E+00 0.  1.
         23    2    1    2    0    0 -0.94248331279E+02 -0.41990635224E+02 -0.41996428372E+03  0.44226312678E+03  0.92632134338E+02 0.  0.
         23    2    1    2    0    0  0.11675587782E+03  0.33323547628E+02 -0.32551953639E+03  0.35915410885E+03  0.91029179372E+02 0.  0.
        -13    1    4    4    0    0  0.47243254333E+02  0.58748537997E+02 -0.13274235191E+03  0.15265597856E+03  0.00000000000E+00 0. -1.
         13    1    4    4    0    0  0.69512623486E+02 -0.25424990369E+02 -0.19277718448E+03  0.20649813029E+03  0.00000000000E+00 0.  1.
        -13    1    3    3    0    0 -0.28276649664E+02 -0.63000141865E+02 -0.22583115014E+03  0.23615311805E+03  0.00000000000E+00 0.  1.
         13    1    3    3    0    0 -0.65971681615E+02  0.21009506641E+02 -0.19413313358E+03  0.20611000873E+03  0.00000000000E+00 0. -1.
         21    1    1    2  502  501 -0.22507546541E+02  0.86670875964E+01 -0.10447777016E+02  0.26284293851E+02  0.00000000000E+00 0. -1.
<scales pt_clust_5="13000.00000" pt_clust_6="13000.00000" pt_clust_7="13000.00000" pt_clust_8="13000.00000" pt_clust_9="24.11862"></scales>
<clustering>
<clus scale="   24.119">  1  9  2 -1</clus>
<clus scale="   91.029">  5  6 -1 -1</clus>
<clus scale="   92.632">  7  8 -1 -1</clus>
<clus scale="  142.919">  1  5  2 -1</clus>
<clus scale="   24.119">  1  5  2 -1</clus>
</clustering>
</event>
<event>
 9    1  0.1803370E-005  0.1302825E+03  0.7546771E-02  0.1227898E+00
          2   -1    0    0  502    0  0.00000000000E+00  0.00000000000E+00  0.13290272650E+03  0.13290272650E+03  0.00000000000E+00 0. -1.
         -2   -1    0    0    0  501 -0.00000000000E+00 -0.00000000000E+00 -0.25125253343E+03  0.25125253343E+03  0.00000000000E+00 0.  1.
         23    2    1    2    0    0 -0.86274993779E+02  0.46064255295E+01 -0.14089940216E+03  0.19015467107E+03  0.94029589453E+02 0.  0.
         23    2    1    2    0    0  0.85144720901E+02 -0.29286318105E+02 -0.30109433568E+02  0.13583403552E+03  0.97144198438E+02 0.  0.
        -11    1    4    4    0    0  0.87121161105E+02 -0.54826468191E+02 -0.10298920030E+02  0.10345098395E+03  0.00000000000E+00 0. -1.
         11    1    4    4    0    0 -0.19764402036E+01  0.25540150086E+02 -0.19810513538E+02  0.32383051569E+02  0.00000000000E+00 0.  1.
        -13    1    3    3    0    0 -0.49851004385E+02 -0.38456731158E+02 -0.40092922055E+02  0.74642382119E+02  0.00000000000E+00 0. -1.
         13    1    3    3    0    0 -0.36423989394E+02  0.43063156688E+02 -0.10080648011E+03  0.11551228895E+03  0.00000000000E+00 0.  1.
         21    1    1    2  502  501  0.11302728780E+01  0.24679892576E+02  0.52659028797E+02  0.58166553346E+02  0.00000000000E+00 0.  1.
<scales pt_clust_5="13000.00000" pt_clust_6="13000.00000" pt_clust_7="13000.00000" pt_clust_8="13000.00000" pt_clust_9="24.70576"></scales>
<clustering>
<clus scale="   24.706">  1  9  2 -1</clus>
<clus scale="   94.030">  7  8 -1 -1</clus>
<clus scale="   97.144">  5  6 -1 -1</clus>
<clus scale="  127.977">  2  7  1 -1</clus>
<clus scale="   24.706">  1  5  2 -1</clus>
</clustering>
</event>
<event>
 9    1  0.1803370E-005  0.9300644E+02  0.7546771E-02  0.1296544E+00
         -1   -1    0    0    0  501 -0.00000000000E+00  0.00000000000E+00  0.23223535863E+02  0.23223535863E+02  0.00000000000E+00 0.  1.
          1   -1    0    0  502    0  0.00000000000E+00 -0.00000000000E+00 -0.69281665562E+03  0.69281665562E+03  0.00000000000E+00 0. -1.
         23    2    1    2    0    0  0.31717172075E+01 -0.90498530958E+01 -0.12457576966E+03  0.15476197553E+03  0.91324624572E+02 0.  0.
         23    2    1    2    0    0 -0.46640523632E+01  0.42808689312E+02 -0.42970823644E+03  0.44111966328E+03  0.89905792948E+02 0.  0.
        -11    1    4    4    0    0  0.19441591955E+02  0.63438684259E+02 -0.25128124924E+03  0.25989364821E+03  0.00000000000E+00 0. -1.
         11    1    4    4    0    0 -0.24105644318E+02 -0.20629994947E+02 -0.17842698720E+03  0.18122601508E+03  0.00000000000E+00 0.  1.
        -13    1    3    3    0    0 -0.20911853496E+02 -0.32676207268E+02 -0.17615138363E+02  0.42606727610E+02  0.00000000000E+00 0.  1.
         13    1    3    3    0    0  0.24083570704E+02  0.23626354172E+02 -0.10696063129E+03  0.11215524792E+03  0.00000000000E+00 0. -1.
         21    1    1    2  502  501  0.14923351557E+01 -0.33758836216E+02 -0.11530911366E+03  0.12015855267E+03  0.00000000000E+00 0. -1.
<scales pt_clust_5="13000.00000" pt_clust_6="13000.00000" pt_clust_7="13000.00000" pt_clust_8="13000.00000" pt_clust_9="33.79181"></scales>
<clustering>
<clus scale="   33.792">  2  9  1 -1</clus>
<clus scale="   89.906">  5  6 -1 -1</clus>
<clus scale="   91.325">  7  8 -1 -1</clus>
<clus scale="   91.614">  2  5  1 -1</clus>
<clus scale="   33.792">  2  5  1 -1</clus>
</clustering>
</event>
<event>
 9    1  0.1803370E-005  0.2408330E+03  0.7546771E-02  0.1119286E+00
          2   -1    0    0  502    0  0.00000000000E+00  0.00000000000E+00  0.63430093991E+03  0.63430093991E+03  0.00000000000E+00 0. -1.
         -2   -1    0    0    0  501 -0.00000000000E+00 -0.00000000000E+00 -0.11357437722E+03  0.11357437722E+03  0.00000000000E+00 0.  1.
         23    2    1    2    0    0  0.24634103171E+02  0.23589375604E+03  0.15261307124E+03  0.29647829264E+03  0.91410750551E+02 0.  0.
         23    2    1    2    0    0 -0.27417049272E+02 -0.21361105924E+03  0.35521827795E+03  0.42550204627E+03  0.92144382162E+02 0.  0.
        -11    1    4    4    0    0 -0.33664285584E+02 -0.87401359013E+02  0.82028816302E+02  0.12450304569E+03  0.00000000000E+00 0.  1.
         11    1    4    4    0    0  0.62472363116E+01 -0.12620970023E+03  0.27318946165E+03  0.30099900058E+03  0.00000000000E+00 0. -1.
        -13    1    3    3    0    0  0.57905179309E+02  0.17938833791E+03  0.11695455588E+03  0.22183677267E+03  0.00000000000E+00 0.  1.
         13    1    3    3    0    0 -0.33271076139E+02  0.56505418137E+02  0.35658515359E+02  0.74641519973E+02  0.00000000000E+00 0. -1.
         21    1    1    2  502  501  0.27829461015E+01 -0.22282696802E+02  0.12895213501E+02  0.25894978220E+02  0.00000000000E+00 0. -1.
<scales pt_clust_5="13000.00000" pt_clust_6="13000.00000" pt_clust_7="13000.00000" pt_clust_8="13000.00000" pt_clust_9="22.45581"></scales>
<clustering>
<clus scale="   22.456">  2  9  1 -1</clus>
<clus scale="   91.411">  7  8 -1 -1</clus>
<clus scale="   92.144">  5  6 -1 -1</clus>
<clus scale="  240.553">  2  7  1 -1</clus>
<clus scale="  240.833">  1  5  2 -1</clus>
</clustering>
</event>
<event>
 9    1  0.1803370E-005  0.1094164E+03  0.7546771E-02  0.1262264E+00
          1   -1    0    0  502    0  0.00000000000E+00  0.00000000000E+00  0.39516633376E+03  0.39516633376E+03  0.00000000000E+00 0. -1.
         -1   -1    0    0    0  501 -0.00000000000E+00 -0.00000000000E+00 -0.39902561368E+02  0.39902561368E+02  0.00000000000E+00 0.  1.
         23    2    1    2    0    0  0.25454641894E+02 -0.40641741780E+02  0.92374108479E+02  0.13817110170E+03  0.90876770734E+02 0.  0.
         23    2    1    2    0    0 -0.38971269504E+02  0.55533109736E+02  0.24698791714E+03  0.27125958732E+03  0.89308713911E+02 0.  0.
        -13    1    4    4    0    0 -0.23733384846E+02  0.78349293195E+02  0.20847919042E+03  0.22397646782E+03  0.00000000000E+00 0.  1.
         13    1    4    4    0    0 -0.15237884658E+02 -0.22816183459E+02  0.38508726717E+02  0.47283119502E+02  0.00000000000E+00 0. -1.
        -13    1    3    3    0    0  0.15470092230E+02  0.24513378474E+02  0.61400233720E+01  0.29629872845E+02  0.00000000000E+00 0.  1.
         13    1    3    3    0    0  0.99845496648E+01 -0.65155120254E+02  0.86234085107E+02  0.10854122886E+03  0.00000000000E+00 0. -1.
         21    1    1    2  502  501  0.13516627610E+02 -0.14891367956E+02  0.15901746772E+02  0.25638206098E+02  0.00000000000E+00 0. -1.
<scales pt_clust_5="13000.00000" pt_clust_6="13000.00000" pt_clust_7="13000.00000" pt_clust_8="13000.00000" pt_clust_9="20.11099"></scales>
<clustering>
<clus scale="   20.111">  2  9  1 -1</clus>
<clus scale="   89.309">  5  6 -1 -1</clus>
<clus scale="   90.877">  7  8 -1 -1</clus>
<clus scale="  108.118">  1  5  2 -1</clus>
<clus scale="  108.118">  1  5  2 -1</clus>
</clustering>
</event>
<event>
 9    1  0.1803370E-005  0.1094464E+03  0.7546771E-02  0.1262066E+00
          1   -1    0    0  502    0  0.00000000000E+00  0.00000000000E+00  0.42508824409E+03  0.42508824409E+03  0.00000000000E+00 0. -1.
         -1   -1    0    0    0  501 -0.00000000000E+00 -0.00000000000E+00 -0.69153855924E+02  0.69153855924E+02  0.00000000000E+00 0.  1.
         23    2    1    2    0    0  0.63831174607E+02 -0.51310026285E+01  0.45613433107E+01  0.11214095485E+03  0.91945863753E+02 0.  0.
         23    2    1    2    0    0 -0.35207092087E+02 -0.21725950148E+02  0.30731327767E+03  0.32309354314E+03  0.90754783586E+02 0.  0.
        -11    1    4    4    0    0 -0.63530422173E+02 -0.18592189429E+02  0.25577519669E+03  0.26420207284E+03  0.00000000000E+00 0.  1.
         11    1    4    4    0    0  0.28323330087E+02 -0.31337607189E+01  0.51538080977E+02  0.58891470301E+02  0.00000000000E+00 0. -1.
        -11    1    3    3    0    0 -0.52994373481E+01 -0.35536615160E+02 -0.39273110955E+01  0.36143586232E+02  0.00000000000E+00 0.  1.
         11    1    3    3    0    0  0.69130611955E+02  0.30405612531E+02  0.84886544063E+01  0.75997368615E+02  0.00000000000E+00 0. -1.
         21    1    1    2  502  501 -0.28624082521E+02  0.26856952776E+02  0.44059767185E+02  0.59007602027E+02  0.00000000000E+00 0. -1.
<scales pt_clust_5="13000.00000" pt_clust_6="13000.00000" pt_clust_7="13000.00000" pt_clust_8="13000.00000" pt_clust_9="39.25091"></scales>
<clustering>
<clus scale="   39.251">  1  9  2 -1</clus>
<clus scale="   90.755">  5  6 -1 -1</clus>
<clus scale="   91.946">  7  8 -1 -1</clus>
<clus scale="  108.448">  1  5  2 -1</clus>
<clus scale="   39.251">  1  5  2 -1</clus>
</clustering>
</event>
<event>
 9    1  0.1803370E-005  0.9446327E+02  0.7546771E-02  0.1294790E+00
          1   -1    0    0  502    0  0.00000000000E+00  0.00000000000E+00  0.13982938572E+03  0.13982938572E+03  0.00000000000E+00 0. -1.
         -1   -1    0    0    0  501 -0.00000000000E+00 -0.00000000000E+00 -0.13065058857E+03  0.13065058857E+03  0.00000000000E+00 0.  1.
         23    2    1    2    0    0  0.33150145679E+01  0.19663510893E+01 -0.69246952143E+02  0.11348362462E+03  0.89825034474E+02 0.  0.
         23    2    1    2    0    0 -0.26800308387E+02 -0.38370381627E+01  0.28621602995E+02  0.10190087359E+03  0.93976659275E+02 0.  0.
        -13    1    4    4    0    0 -0.54182603679E+02 -0.25278292307E+02  0.52926495754E+01  0.60022985122E+02  0.00000000000E+00 0.  1.
         13    1    4    4    0    0  0.27382295291E+02  0.21441254145E+02  0.23328953420E+02  0.41877888466E+02  0.00000000000E+00 0. -1.
        -13    1    3    3    0    0 -0.29968932601E+02 -0.30630702588E+02 -0.27420202237E+02  0.50874790938E+02  0.00000000000E+00 0.  1.
         13    1    3    3    0    0  0.33283947169E+02  0.32597053678E+02 -0.41826749906E+02  0.62608833684E+02  0.00000000000E+00 0. -1.
         21    1    1    2  502  501  0.23485293820E+02  0.18706870734E+01  0.49804146297E+02  0.55095476078E+02  0.00000000000E+00 0. -1.
<scales pt_clust_5="13000.00000" pt_clust_6="13000.00000" pt_clust_7="13000.00000" pt_clust_8="13000.00000" pt_clust_9="23.55968"></scales>
<clustering>
<clus scale="   23.560">  1  9  2 -1</clus>
<clus scale="   89.825">  7  8 -1 -1</clus>
<clus scale="   90.334">  2  7  1 -1</clus>
<clus scale="   93.977">  5  6 -1 -1</clus>
<clus scale="   23.560">  1  5  2 -1</clus>
</clustering>
</event>
<event>
 9    1  0.1803370E-005  0.1204046E+03  0.7546771E-02  0.1265623E+00
         -2   -1    0    0    0  501 -0.00000000000E+00  0.00000000000E+00  0.61472994271E+02  0.61472994271E+02  0.00000000000E+00 0.  1.
          2   -1    0    0  502    0  0.00000000000E+00 -0.00000000000E+00 -0.23144701936E+03  0.23144701936E+03  0.00000000000E+00 0. -1.
         23    2    1    2    0    0  0.14063463507E+02 -0.23986093410E+02 -0.43787518422E+02  0.82939423262E+02  0.64718525004E+02 0.  0.
         23    2    1    2    0    0 -0.40463143232E+02  0.47986052882E+02 -0.83517923808E+02  0.15436090763E+03  0.11363150521E+03 0.  0.
        -13    1    4    4    0    0 -0.32168216621E+02  0.75751369339E+02 -0.20221428671E+02  0.84746506092E+02  0.00000000000E+00 0. -1.
         13    1    4    4    0    0 -0.82949266106E+01 -0.27765316457E+02 -0.63296495137E+02  0.69614401542E+02  0.00000000000E+00 0.  1.
        -13    1    3    3    0    0 -0.19928134413E+02 -0.27425751255E+02 -0.11143271570E+02  0.35685779723E+02  0.00000000000E+00 0.  1.
         13    1    3    3    0    0  0.33991597920E+02  0.34396578450E+01 -0.32644246852E+02  0.47253643540E+02  0.00000000000E+00 0. -1.
         21    1    1    2  502  501  0.26399679725E+02 -0.23999959472E+02 -0.42668582854E+02  0.55619682730E+02  0.00000000000E+00 0.  1.
<scales pt_clust_5="13000.00000" pt_clust_6="13000.00000" pt_clust_7="13000.00000" pt_clust_8="13000.00000" pt_clust_9="35.67830"></scales>
<clustering>
<clus scale="   35.678">  2  9  1 -1</clus>
<clus scale="   64.719">  7  8 -1 -1</clus>
<clus scale="   75.984">  1  7  2 -1</clus>
<clus scale="  113.632">  5  6 -1 -1</clus>
<clus scale="   35.678">  2  5  1 -1</clus>
</clustering>
</event>
<event>
 9    1  0.1803370E-005  0.1037042E+03  0.7546771E-02  0.1274061E+00
         -2   -1    0    0    0  501 -0.00000000000E+00  0.00000000000E+00  0.53113980797E+03  0.53113980797E+03  0.00000000000E+00 0.  1.
          2   -1    0    0  502    0  0.00000000000E+00 -0.00000000000E+00 -0.73918266265E+02  0.73918266265E+02  0.00000000000E+00 0. -1.
         23    2    1    2    0    0  0.40047676205E+02 -0.32842189579E+02  0.45975338078E+03  0.47161695410E+03  0.91471058091E+02 0.  0.
         23    2    1    2    0    0 -0.33182442892E+02  0.66782634445E+01  0.21704926804E+02  0.97121658697E+02  0.88407233989E+02 0.  0.
        -11    1    3    3    0    0 -0.69140880940E+01  0.27644887802E+02  0.11882537699E+03  0.12219457701E+03  0.00000000000E+00 0.  1.
         11    1    3    3    0    0  0.46961764299E+02 -0.60487077381E+02  0.34092800380E+03  0.34942237709E+03  0.00000000000E+00 0. -1.
        -13    1    4    4    0    0 -0.61246669228E+02  0.14506913061E+02  0.40878292959E+01  0.63073888150E+02  0.00000000000E+00 0.  1.
         13    1    4    4    0    0  0.28064226335E+02 -0.78286496164E+01  0.17617097508E+02  0.34047770547E+02  0.00000000000E+00 0. -1.
         21    1    1    2  502  501 -0.68652333125E+01  0.26163926134E+02 -0.24236765878E+02  0.36319461442E+02  0.00000000000E+00 0.  1.
<scales pt_clust_5="13000.00000" pt_clust_6="13000.00000" pt_clust_7="13000.00000" pt_clust_8="13000.00000" pt_clust_9="27.04963"></scales>
<clustering>
<clus scale="   27.050">  2  9  1 -1</clus>
<clus scale="   88.407">  7  8 -1 -1</clus>
<clus scale="   91.471">  5  6 -1 -1</clus>
<clus scale="  101.012">  2  7  1 -1</clus>
<clus scale="   27.050">  2  5  1 -1</clus>
</clustering>
</event>
<event>
 9    1  0.1803370E-005  0.9882592E+02  0.7546771E-02  0.1283309E+00
          1   -1    0    0  502    0  0.00000000000E+00  0.00000000000E+00  0.29203141946E+03  0.29203141946E+03  0.00000000000E+00 0. -1.
         -1   -1    0    0    0  501 -0.00000000000E+00 -0.00000000000E+00 -0.58044398196E+02  0.58044398196E+02  0.00000000000E+00 0.  1.
         23    2    1    2    0    0  0.88460932700E+01  0.41055905358E+02  0.16768283574E+02  0.10270296452E+03  0.92211077733E+02 0.  0.
         23    2    1    2    0    0 -0.42020338256E+01 -0.16198491183E+02  0.16204384011E+03  0.18667913311E+03  0.91163832824E+02 0.  0.
        -11    1    4    4    0    0  0.28921604162E+01 -0.54063037572E+02  0.92605438394E+02  0.10727042390E+03  0.00000000000E+00 0. -1.
         11    1    4    4    0    0 -0.70941942418E+01  0.37864546389E+02  0.69438401716E+02  0.79408709208E+02  0.00000000000E+00 0.  1.
        -11    1    3    3    0    0  0.30926079992E+02 -0.16672295675E+00  0.39939529741E+02  0.50513525477E+02  0.00000000000E+00 0. -1.
         11    1    3    3    0    0 -0.22079986722E+02  0.41222628315E+02 -0.23171246167E+02  0.52189439045E+02  0.00000000000E+00 0.  1.
         21    1    1    2  502  501 -0.46440594444E+01 -0.24857414175E+02  0.55174897576E+02  0.60693720022E+02  0.00000000000E+00 0. -1.
<scales pt_clust_5="13000.00000" pt_clust_6="13000.00000" pt_clust_7="13000.00000" pt_clust_8="13000.00000" pt_clust_9="25.28751"></scales>
<clustering>
<clus scale="   25.288">  1  9  2 -1</clus>
<clus scale="   91.164">  5  6 -1 -1</clus>
<clus scale="   92.211">  7  8 -1 -1</clus>
<clus scale="   97.849">  1  5  2 -1</clus>
<clus scale="   25.288">  1  5  2 -1</clus>
</clustering>
</event>
<event>
 9    1  0.1803370E-005  0.9567758E+02  0.7546771E-02  0.1289735E+00
          1   -1    0    0  502    0  0.00000000000E+00  0.00000000000E+00  0.31135647204E+03  0.31135647204E+03  0.00000000000E+00 0. -1.
         -1   -1    0    0    0  501 -0.00000000000E+00 -0.00000000000E+00 -0.67184260628E+02  0.67184260628E+02  0.00000000000E+00 0.  1.
         23    2    1    2    0    0  0.47917267454E+01  0.18430160325E+02 -0.46061800680E+01  0.94746396156E+02  0.92698604277E+02 0.  0.
         23    2    1    2    0    0 -0.42163407446E+01 -0.39575539797E+02  0.13713993693E+03  0.17016950351E+03  0.92554290781E+02 0.  0.
        -11    1    4    4    0    0  0.26153700506E+01  0.30220556054E+02  0.35680684766E+02  0.46831970213E+02  0.00000000000E+00 0. -1.
         11    1    4    4    0    0 -0.68317107953E+01 -0.69796095851E+02  0.10145925217E+03  0.12333753329E+03  0.00000000000E+00 0.  1.
        -13    1    3    3    0    0 -0.31145419573E+02  0.32532207737E+02  0.19667094733E+02  0.49144443388E+02  0.00000000000E+00 0. -1.
         13    1    3    3    0    0  0.35937146319E+02 -0.14102047412E+02 -0.24273274801E+02  0.45601952768E+02  0.00000000000E+00 0.  1.
         21    1    1    2  502  501 -0.57538600077E+00  0.21145379471E+02  0.11163845455E+03  0.11362483301E+03  0.00000000000E+00 0. -1.
<scales pt_clust_5="13000.00000" pt_clust_6="13000.00000" pt_clust_7="13000.00000" pt_clust_8="13000.00000" pt_clust_9="21.15321"></scales>
<clustering>
<clus scale="   21.153">  1  9  2 -1</clus>
<clus scale="   92.554">  5  6 -1 -1</clus>
<clus scale="   92.699">  7  8 -1 -1</clus>
<clus scale="   95.538">  1  5  2 -1</clus>
<clus scale="   21.153">  1  5  2 -1</clus>
</clustering>
</event>
<event>
 9    1  0.1803370E-005  0.1389612E+03  0.7546771E-02  0.1214867E+00
         -1   -1    0    0    0  501 -0.00000000000E+00  0.00000000000E+00  0.71894510120E+02  0.71894510120E+02  0.00000000000E+00 0.  1.
          1   -1    0    0  502    0  0.00000000000E+00 -0.00000000000E+00 -0.38848265894E+03  0.38848265894E+03  0.00000000000E+00 0. -1.
         23    2    1    2    0    0  0.62620636979E+02  0.74425411154E+02 -0.70736255777E+02  0.15099410513E+03  0.91296855916E+02 0.  0.
         23    2    1    2    0    0 -0.94458212424E+02 -0.73424445188E+02 -0.16822634161E+03  0.22547621453E+03  0.90696848121E+02 0.  0.
        -11    1    3    3    0    0  0.47595033305E+02  0.37633163048E+01  0.29081889642E+01  0.47832074051E+02  0.00000000000E+00 0.  1.
         11    1    3    3    0    0  0.15025603674E+02  0.70662094849E+02 -0.73644444741E+02  0.10316203107E+03  0.00000000000E+00 0. -1.
        -13    1    4    4    0    0 -0.63419438730E+02 -0.74741371660E+02 -0.64848854594E+02  0.11753157784E+03  0.00000000000E+00 0.  1.
         13    1    4    4    0    0 -0.31038773694E+02  0.13169264718E+01 -0.10337748702E+03  0.10794463669E+03  0.00000000000E+00 0. -1.
         21    1    1    2  502  501  0.31837575444E+02 -0.10009659652E+01 -0.77625551430E+02  0.83906849409E+02  0.00000000000E+00 0. -1.
<scales pt_clust_5="13000.00000" pt_clust_6="13000.00000" pt_clust_7="13000.00000" pt_clust_8="13000.00000" pt_clust_9="31.85331"></scales>
<clustering>
<clus scale="   31.853">  2  9  1 -1</clus>
<clus scale="   90.697">  7  8 -1 -1</clus>
<clus scale="   91.297">  5  6 -1 -1</clus>
<clus scale="  138.568">  2  7  1 -1</clus>
<clus scale="   31.853">  2  5  1 -1</clus>
</clustering>
</event>
<event>
 9    1  0.1803370E-005  0.2235273E+03  0.7546771E-02  0.1131584E+00
         -1   -1    0    0    0  501 -0.00000000000E+00  0.00000000000E+00  0.66216272794E+02  0.66216272794E+02  0.00000000000E+00 0.  1.
          1   -1    0    0  502    0  0.00000000000E+00 -0.00000000000E+00 -0.97893985180E+03  0.97893985180E+03  0.00000000000E+00 0. -1.
         23    2    1    2    0    0 -0.30551595681E+02 -0.19488318502E+03 -0.23300621990E+03  0.31973469915E+03  0.95002755359E+02 0.  0.
         23    2    1    2    0    0  0.22043571919E+02  0.21334445699E+03 -0.63019555295E+03  0.67188999248E+03  0.91038182302E+02 0.  0.
        -11    1    3    3    0    0 -0.86720162539E+01 -0.57800443566E+02 -0.14249516735E+03  0.15401612858E+03  0.00000000000E+00 0. -1.
         11    1    3    3    0    0 -0.21879579427E+02 -0.13708274145E+03 -0.90511052550E+02  0.16571857057E+03  0.00000000000E+00 0.  1.
        -13    1    4    4    0    0  0.22831788550E+02  0.23270390162E+02 -0.38683341953E+02  0.50588561665E+02  0.00000000000E+00 0.  1.
         13    1    4    4    0    0 -0.78821663160E+00  0.19007406683E+03 -0.59151221100E+03  0.62130143081E+03  0.00000000000E+00 0. -1.
         21    1    1    2  502  501  0.85080237622E+01 -0.18461271975E+02 -0.49521806145E+02  0.53531432963E+02  0.00000000000E+00 0.  1.
<scales pt_clust_5="13000.00000" pt_clust_6="13000.00000" pt_clust_7="13000.00000" pt_clust_8="13000.00000" pt_clust_9="20.32745"></scales>
<clustering>
<clus scale="   20.327">  2  9  1 -1</clus>
<clus scale="   91.038">  7  8 -1 -1</clus>
<clus scale="   95.003">  5  6 -1 -1</clus>
<clus scale="  221.871">  2  7  1 -1</clus>
<clus scale="   20.327">  2  5  1 -1</clus>
</clustering>
</event>
<event>
 9    1  0.1803370E-005  0.1344211E+03  0.7546771E-02  0.1223824E+00
         -1   -1    0    0    0  501 -0.00000000000E+00  0.00000000000E+00  0.20072892350E+03  0.20072892350E+03  0.00000000000E+00 0.  1.
          1   -1    0    0  502    0  0.00000000000E+00 -0.00000000000E+00 -0.12352283503E+03  0.12352283503E+03  0.00000000000E+00 0. -1.
         23    2    1    2    0    0 -0.65452141184E+02  0.82776055247E+02  0.62728511057E+02  0.15226556121E+03  0.90078171186E+02 0.  0.
         23    2    1    2    0    0  0.27245866581E+02 -0.68134391561E+02  0.30369328047E+02  0.12809262748E+03  0.10050269931E+03 0.  0.
        -11    1    4    4    0    0 -0.14184695219E+02 -0.77087760454E+02  0.34229954645E+02  0.85530217966E+02  0.00000000000E+00 0. -1.
         11    1    4    4    0    0  0.41430561801E+02  0.89533688931E+01 -0.38606265980E+01  0.42562409511E+02  0.00000000000E+00 0.  1.
        -13    1    3    3    0    0 -0.30713437781E+02  0.76317154966E+02  0.23393582500E+01  0.82298821374E+02  0.00000000000E+00 0. -1.
         13    1    3    3    0    0 -0.34738703403E+02  0.64589002810E+01  0.60389152807E+02  0.69966739840E+02  0.00000000000E+00 0.  1.
         21    1    1    2  502  501  0.38206274603E+02 -0.14641663687E+02 -0.15891750636E+02  0.43893569835E+02  0.00000000000E+00 0.  1.
<scales pt_clust_5="13000.00000" pt_clust_6="13000.00000" pt_clust_7="13000.00000" pt_clust_8="13000.00000" pt_clust_9="40.91574"></scales>
<clustering>
<clus scale="   40.916">  2  9  1 -1</clus>
<clus scale="   90.078">  7  8 -1 -1</clus>
<clus scale="  100.503">  5  6 -1 -1</clus>
<clus scale="  126.816">  1  7  2 -1</clus>
<clus scale="   40.916">  2  5  1 -1</clus>
</clustering>
</event>
<event>
 9    1  0.1803370E-005  0.1255872E+03  0.7546771E-02  0.1234995E+00
         -1   -1    0    0    0  501 -0.00000000000E+00  0.00000000000E+00  0.39149330678E+03  0.39149330678E+03  0.00000000000E+00 0.  1.
          1   -1    0    0  502    0  0.00000000000E+00 -0.00000000000E+00 -0.10364642399E+03  0.10364642399E+03  0.00000000000E+00 0. -1.
         23    2    1    2    0    0  0.62460780951E+02  0.64752869040E+02  0.27669700266E+03  0.30461758943E+03  0.90201781026E+02 0.  0.
         23    2    1    2    0    0 -0.10127703394E+01 -0.72371379394E+02 -0.22478526306E+02  0.12006102137E+03  0.93116714121E+02 0.  0.
        -11    1    4    4    0    0  0.45174984069E+02 -0.24417492796E+02 -0.10408367669E+02  0.52395870616E+02  0.00000000000E+00 0.  1.
         11    1    4    4    0    0 -0.46187754409E+02 -0.47953886598E+02 -0.12070158637E+02  0.67665150755E+02  0.00000000000E+00 0. -1.
        -13    1    3    3    0    0  0.31263929045E+02  0.75881443456E+02  0.24647509506E+03  0.25977952038E+03  0.00000000000E+00 0.  1.
         13    1    3    3    0    0  0.31196851906E+02 -0.11128574416E+02  0.30221907600E+02  0.44838069053E+02  0.00000000000E+00 0. -1.
         21    1    1    2  502  501 -0.61448010611E+02  0.76185103536E+01  0.33628406427E+02  0.70461119966E+02  0.00000000000E+00 0. -1.
<scales pt_clust_5="13000.00000" pt_clust_6="13000.00000" pt_clust_7="13000.00000" pt_clust_8="13000.00000" pt_clust_9="61.91849"></scales>
<clustering>
<clus scale="   61.918">  2  9  1 -1</clus>
<clus scale="   90.202">  7  8 -1 -1</clus>
<clus scale="   93.117">  5  6 -1 -1</clus>
<clus scale="  123.441">  1  7  2 -1</clus>
<clus scale="   61.918">  2  5  1 -1</clus>
</clustering>
</event>
<event>
 9    1  0.1803370E-005  0.1003445E+03  0.7546771E-02  0.1286473E+00
         -1   -1    0    0    0  501 -0.00000000000E+00  0.00000000000E+00  0.40394717178E+03  0.40394717178E+03  0.00000000000E+00 0.  1.
          1   -1    0    0  502    0  0.00000000000E+00 -0.00000000000E+00 -0.47979748287E+02  0.47979748287E+02  0.00000000000E+00 0. -1.
         23    2    1    2    0    0  0.12341052469E+02 -0.25309229191E+02  0.27529635216E+03  0.29270833244E+03  0.95379388262E+02 0.  0.
         23    2    1    2    0    0  0.76541857467E+01  0.42252143754E+02  0.91945920915E+02  0.13068800512E+03  0.82349693969E+02 0.  0.
        -13    1    3    3    0    0  0.17039103436E+02  0.34050576108E+02  0.81207615638E+02  0.89690855815E+02  0.00000000000E+00 0.  1.
         13    1    3    3    0    0 -0.46980509669E+01 -0.59359805299E+02  0.19408873653E+03  0.20301747662E+03  0.00000000000E+00 0. -1.
        -13    1    4    4    0    0 -0.68615228692E+01  0.21846755690E+02  0.10137566632E+03  0.10392972122E+03  0.00000000000E+00 0.  1.
         13    1    4    4    0    0  0.14515708616E+02  0.20405388064E+02 -0.94297454071E+01  0.26758283897E+02  0.00000000000E+00 0. -1.
         21    1    1    2  502  501 -0.19995238215E+02 -0.16942914562E+02 -0.11274849589E+02  0.28530582511E+02  0.00000000000E+00 0. -1.
<scales pt_clust_5="13000.00000" pt_clust_6="13000.00000" pt_clust_7="13000.00000" pt_clust_8="13000.00000" pt_clust_9="26.20824"></scales>
<clustering>
<clus scale="   26.208">  2  9  1 -1</clus>
<clus scale="   82.350">  7  8 -1 -1</clus>
<clus scale="   88.053">  2  7  1 -1</clus>
<clus scale="   95.379">  5  6 -1 -1</clus>
<clus scale="   26.208">  2  5  1 -1</clus>
</clustering>
</event>
<event>
 9    1  0.1803370E-005  0.1476794E+03  0.7546771E-02  0.1203437E+00
          1   -1    0    0  502    0  0.00000000000E+00  0.00000000000E+00  0.15364447107E+03  0.15364447107E+03  0.00000000000E+00 0. -1.
         -1   -1    0    0    0  501 -0.00000000000E+00 -0.00000000000E+00 -0.36490194976E+03  0.36490194976E+03  0.00000000000E+00 0.  1.
         23    2    1    2    0    0 -0.22337814609E+02 -0.10825581803E+03 -0.26659844440E+03  0.30276329712E+03  0.91501821975E+02 0.  0.
         23    2    1    2    0    0  0.31328529052E+02  0.14010465001E+03  0.27792362526E+02  0.17272378579E+03  0.91925519184E+02 0.  0.
        -13    1    4    4    0    0 -0.59517059461E+01  0.49556542319E+02 -0.30761211474E+02  0.58630417205E+02  0.00000000000E+00 0. -1.
         13    1    4    4    0    0  0.37280234998E+02  0.90548107688E+02  0.58553574000E+02  0.11409336859E+03  0.00000000000E+00 0.  1.
        -13    1    3    3    0    0 -0.19429410049E+02 -0.66997791085E+02 -0.59837621277E+02  0.91906185347E+02  0.00000000000E+00 0. -1.
         13    1    3    3    0    0 -0.29084045602E+01 -0.41258026949E+02 -0.20676082313E+03  0.21085711177E+03  0.00000000000E+00 0.  1.
         21    1    1    2  502  501 -0.89907144426E+01 -0.31848831974E+02  0.27548603192E+02  0.43059337920E+02  0.00000000000E+00 0. -1.
<scales pt_clust_5="13000.00000" pt_clust_6="13000.00000" pt_clust_7="13000.00000" pt_clust_8="13000.00000" pt_clust_9="33.09352"></scales>
<clustering>
<clus scale="   33.094">  1  9  2 -1</clus>
<clus scale="   91.502">  7  8 -1 -1</clus>
<clus scale="   91.926">  5  6 -1 -1</clus>
<clus scale="  147.416">  2  7  1 -1</clus>
<clus scale="   33.094">  1  5  2 -1</clus>
</clustering>
</event>
<event>
 9    1  0.1803370E-005  0.1246454E+03  0.7546771E-02  0.1235760E+00
         -1   -1    0    0    0  501 -0.00000000000E+00  0.00000000000E+00  0.79994692492E+02  0.79994692492E+02  0.00000000000E+00 0.  1.
          1   -1    0    0  502    0  0.00000000000E+00 -0.00000000000E+00 -0.58545051178E+03  0.58545051178E+03  0.00000000000E+00 0. -1.
         23    2    1    2    0    0 -0.51322717671E+02  0.84985189375E+02 -0.43826569583E+02  0.14142955538E+03  0.90692045797E+02 0.  0.
         23    2    1    2    0    0  0.66815994543E+01 -0.71775025751E+02 -0.83684382782E+02  0.14321430923E+03  0.91164490637E+02 0.  0.
        -11    1    4    4    0    0  0.67685734633E+01  0.21287385843E+02 -0.23300389544E+02  0.32278081350E+02  0.00000000000E+00 0. -1.
         11    1    4    4    0    0 -0.86974008970E-01 -0.93062411594E+02 -0.60383993238E+02  0.11093622788E+03  0.00000000000E+00 0.  1.
        -13    1    3    3    0    0 -0.29633010977E+02 -0.11471972097E+02 -0.25805944645E+02  0.40934927170E+02  0.00000000000E+00 0.  1.
         13    1    3    3    0    0 -0.21689706694E+02  0.96457161472E+02 -0.18020624939E+02  0.10049462821E+03  0.00000000000E+00 0. -1.
         21    1    1    2  502  501  0.44641118217E+02 -0.13210163624E+02 -0.37794486692E+03  0.38080133967E+03  0.00000000000E+00 0. -1.
<scales pt_clust_5="13000.00000" pt_clust_6="13000.00000" pt_clust_7="13000.00000" pt_clust_8="13000.00000" pt_clust_9="46.55468"></scales>
<clustering>
<clus scale="   46.555">  2  9  1 -1</clus>
<clus scale="   90.692">  7  8 -1 -1</clus>
<clus scale="   91.164">  5  6 -1 -1</clus>
<clus scale="  124.300">  1  7  2 -1</clus>
<clus scale="   46.555">  2  5  1 -1</clus>
</clustering>
</event>
<event>
 9    1  0.1803370E-005  0.9608455E+02  0.7546771E-02  0.1290438E+00
         -2   -1    0    0    0  501 -0.00000000000E+00  0.00000000000E+00  0.26507217354E+02  0.26507217354E+02  0.00000000000E+00 0.  1.
          2   -1    0    0  502    0  0.00000000000E+00 -0.00000000000E+00 -0.52088805010E+03  0.52088805010E+03  0.00000000000E+00 0. -1.
         23    2    1    2    0    0 -0.90479520995E+01  0.21462750404E+02 -0.13850165642E+03  0.16539603587E+03  0.87353447320E+02 0.  0.
         23    2    1    2    0    0 -0.89906039695E+01 -0.49971879998E+02 -0.24443874333E+03  0.26556414202E+03  0.90531732204E+02 0.  0.
        -11    1    3    3    0    0 -0.28587372943E+02 -0.24873610346E+02 -0.41932276236E+02  0.56517697881E+02  0.00000000000E+00 0. -1.
         11    1    3    3    0    0  0.19539420844E+02  0.46336360750E+02 -0.96569380181E+02  0.10887833799E+03  0.00000000000E+00 0.  1.
        -13    1    4    4    0    0  0.35454669848E+02 -0.33195285123E+02 -0.73121819327E+02  0.87782464252E+02  0.00000000000E+00 0.  1.
         13    1    4    4    0    0 -0.44445273818E+02 -0.16776594875E+02 -0.17131692400E+03  0.17778167777E+03  0.00000000000E+00 0. -1.
         21    1    1    2  502  501  0.18038556069E+02  0.28509129594E+02 -0.11144043300E+03  0.11643508957E+03  0.00000000000E+00 0.  1.
<scales pt_clust_5="13000.00000" pt_clust_6="13000.00000" pt_clust_7="13000.00000" pt_clust_8="13000.00000" pt_clust_9="33.73663"></scales>
<clustering>
<clus scale="   33.737">  2  9  1 -1</clus>
<clus scale="   87.353">  5  6 -1 -1</clus>
<clus scale="   90.532">  7  8 -1 -1</clus>
<clus scale="   93.096">  1  5  2 -1</clus>
<clus scale="   33.737">  2  5  1 -1</clus>
</clustering>
</event>
<event>
 9    1  0.1803370E-005  0.9770300E+02  0.7546771E-02  0.1289541E+00
          1   -1    0    0  502    0  0.00000000000E+00  0.00000000000E+00  0.45253826969E+03  0.45253826969E+03  0.00000000000E+00 0. -1.
         -1   -1    0    0    0  501 -0.00000000000E+00 -0.00000000000E+00 -0.50875762277E+02  0.50875762277E+02  0.00000000000E+00 0.  1.
         23    2    1    2    0    0 -0.35238192734E+02 -0.18592871348E+02  0.19302032113E+02  0.10169889406E+03  0.91556930470E+02 0.  0.
         23    2    1    2    0    0  0.17889152920E+02 -0.10344142985E+02  0.22610629223E+03  0.24185986052E+03  0.83337348525E+02 0.  0.
        -11    1    3    3    0    0  0.71782835815E+01 -0.32686249892E+02  0.40243425124E+02  0.52339774101E+02  0.00000000000E+00 0. -1.
         11    1    3    3    0    0 -0.42416476316E+02  0.14093378544E+02 -0.20941393011E+02  0.49359119959E+02  0.00000000000E+00 0.  1.
        -11    1    4    4    0    0 -0.26123526748E+02 -0.21884121645E+02  0.14411661339E+03  0.14809102500E+03  0.00000000000E+00 0.  1.
         11    1    4    4    0    0  0.44012679668E+02  0.11539978660E+02  0.81989678834E+02  0.93768835517E+02  0.00000000000E+00 0. -1.
         21    1    1    2  502  501  0.17349039814E+02  0.28937014333E+02  0.15625418307E+03  0.15985527739E+03  0.00000000000E+00 0. -1.
<scales pt_clust_5="13000.00000" pt_clust_6="13000.00000" pt_clust_7="13000.00000" pt_clust_8="13000.00000" pt_clust_9="33.73929"></scales>
<clustering>
<clus scale="   33.739">  1  9  2 -1</clus>
<clus scale="   83.337">  7  8 -1 -1</clus>
<clus scale="   90.046">  1  7  2 -1</clus>
<clus scale="   91.557">  5  6 -1 -1</clus>
<clus scale="   33.739">  1  5  2 -1</clus>
</clustering>
</event>
<event>
 9    1  0.1803370E-005  0.9510333E+02  0.7546771E-02  0.1291860E+00
          2   -1    0    0  502    0  0.00000000000E+00  0.00000000000E+00  0.47461761883E+03  0.47461761883E+03  0.00000000000E+00 0. -1.
         -2   -1    0    0    0  501 -0.00000000000E+00 -0.00000000000E+00 -0.25252650706E+02  0.25252650706E+02  0.00000000000E+00 0.  1.
         23    2    1    2    0    0 -0.23761116250E+02 -0.14005616013E+01  0.13410563510E+03  0.16294964791E+03  0.89452301079E+02 0.  0.
         23    2    1    2    0    0  0.29313769632E+02  0.20913300853E+02  0.24765604416E+03  0.26633887032E+03  0.91138435323E+02 0.  0.
        -13    1    4    4    0    0 -0.19929312158E+02  0.40179887171E+02  0.10395070735E+03  0.11321373757E+03  0.00000000000E+00 0. -1.
         13    1    4    4    0    0  0.49243081790E+02 -0.19266586318E+02  0.14370533681E+03  0.15312513275E+03  0.00000000000E+00 0.  1.
        -13    1    3    3    0    0 -0.48911938710E+02 -0.65655239732E+01  0.12708596110E+03  0.13633167409E+03  0.00000000000E+00 0. -1.
         13    1    3    3    0    0  0.25150822460E+02  0.51649623719E+01  0.70196740065E+01  0.26617973813E+02  0.00000000000E+00 0.  1.
         21    1    1    2  502  501 -0.55526533818E+01 -0.19512739251E+02  0.67603288869E+02  0.70581751314E+02  0.00000000000E+00 0.  1.
<scales pt_clust_5="13000.00000" pt_clust_6="13000.00000" pt_clust_7="13000.00000" pt_clust_8="13000.00000" pt_clust_9="20.28741"></scales>
<clustering>
<clus scale="   20.287">  1  9  2 -1</clus>
<clus scale="   89.452">  7  8 -1 -1</clus>
<clus scale="   91.138">  5  6 -1 -1</clus>
<clus scale="   93.489">  2  7  1 -1</clus>
<clus scale="   20.287">  1  5  2 -1</clus>
</clustering>
</event>
<event>
 9    1  0.1803370E-005  0.1127418E+03  0.7546771E-02  0.1256292E+00
          2   -1    0    0  502    0  0.00000000000E+00  0.00000000000E+00  0.51984123095E+03  0.51984123095E+03  0.00000000000E+00 0. -1.
         -2   -1    0    0    0  501 -0.00000000000E+00 -0.00000000000E+00 -0.46995123140E+02  0.46995123140E+02  0.00000000000E+00 0.  1.
         23    2    1    2    0    0 -0.67216134081E+02 -0.21356343825E+02  0.11112884088E+03  0.15907896275E+03  0.89344250028E+02 0.  0.
         23    2    1    2    0    0  0.64220341003E+02 -0.41499279294E+02  0.18354397305E+03  0.21879833020E+03  0.91311975524E+02 0.  0.
        -11    1    4    4    0    0  0.59930283408E+02 -0.20195203742E+02  0.18644047589E+03  0.19687441727E+03  0.00000000000E+00 0. -1.
         11    1    4    4    0    0  0.42900575950E+01 -0.21304075552E+02 -0.28965028466E+01  0.21923912927E+02  0.00000000000E+00 0.  1.
        -13    1    3    3    0    0 -0.52165292393E+02  0.23764187138E+02  0.90737285455E+02  0.10732757937E+03  0.00000000000E+00 0.  1.
         13    1    3    3    0    0 -0.15050841688E+02 -0.45120530963E+02  0.20391555425E+02  0.51751383388E+02  0.00000000000E+00 0. -1.
         21    1    1    2  502  501  0.29957930780E+01  0.62855623120E+02  0.17817329389E+03  0.18895906114E+03  0.00000000000E+00 0.  1.
<scales pt_clust_5="13000.00000" pt_clust_6="13000.00000" pt_clust_7="13000.00000" pt_clust_8="13000.00000" pt_clust_9="62.92697"></scales>
<clustering>
<clus scale="   62.927">  1  9  2 -1</clus>
<clus scale="   89.344">  7  8 -1 -1</clus>
<clus scale="   91.312">  5  6 -1 -1</clus>
<clus scale="  111.154">  2  7  1 -1</clus>
<clus scale="   62.927">  1  5  2 -1</clus>
</clustering>
</event>
<event>
 9    1  0.1803370E-005  0.9610603E+02  0.7546771E-02  0.1289577E+00
         -1   -1    0    0    0  501 -0.00000000000E+00  0.00000000000E+00  0.18006873917E+02  0.18006873917E+02  0.00000000000E+00 0.  1.
          1   -1    0    0  502    0  0.00000000000E+00 -0.00000000000E+00 -0.79474846100E+03  0.79474846100E+03  0.00000000000E+00 0. -1.
         23    2    1    2    0    0  0.88171781893E+01 -0.16555015776E+02 -0.18280395835E+03  0.20522990333E+03  0.91379510045E+02 0.  0.
         23    2    1    2    0    0  0.10598810319E+01  0.39232096667E+02 -0.42713037703E+03  0.43889427931E+03  0.92992196823E+02 0.  0.
        -13    1    4    4    0    0 -0.29283519713E+02 -0.13718273784E+02 -0.77474346672E+02  0.83952307620E+02  0.00000000000E+00 0.  1.
         13    1    4    4    0    0  0.30343400745E+02  0.52950370451E+02 -0.34965603036E+03  0.35494197169E+03  0.00000000000E+00 0. -1.
        -13    1    3    3    0    0  0.24617753606E+02 -0.48350725361E+02 -0.81720037096E+02  0.98091747352E+02  0.00000000000E+00 0.  1.
         13    1    3    3    0    0 -0.15800575417E+02  0.31795709585E+02 -0.10108392125E+03  0.10713815598E+03  0.00000000000E+00 0. -1.
         21    1    1    2  502  501 -0.98770592213E+01 -0.22677080891E+02 -0.16680725171E+03  0.16863115228E+03  0.00000000000E+00 0. -1.
<scales pt_clust_5="13000.00000" pt_clust_6="13000.00000" pt_clust_7="13000.00000" pt_clust_8="13000.00000" pt_clust_9="24.73472"></scales>
<clustering>
<clus scale="   24.735">  2  9  1 -1</clus>
<clus scale="   91.380">  7  8 -1 -1</clus>
<clus scale="   92.992">  5  6 -1 -1</clus>
<clus scale="   94.546">  1  7  2 -1</clus>
<clus scale="   24.735">  2  5  1 -1</clus>
</clustering>
</event>
<event>
 9    1  0.1803370E-005  0.1289676E+03  0.7546771E-02  0.1229436E+00
         -1   -1    0    0    0  501 -0.00000000000E+00  0.00000000000E+00  0.69012653045E+03  0.69012653045E+03  0.00000000000E+00 0.  1.
          1   -1    0    0  502    0  0.00000000000E+00 -0.00000000000E+00 -0.41618011512E+02  0.41618011512E+02  0.00000000000E+00 0. -1.
         23    2    1    2    0    0 -0.40028860652E+02  0.69150441118E+02  0.48689534908E+03  0.50221066138E+03  0.93618236739E+02 0.  0.
         23    2    1    2    0    0  0.62095634771E+02 -0.67151473990E+02  0.99215226154E+02  0.16331876322E+03  0.92000918487E+02 0.  0.
        -11    1    4    4    0    0  0.48026849224E+02 -0.93540426885E+01  0.15374315052E+01  0.48953447852E+02  0.00000000000E+00 0.  1.
         11    1    4    4    0    0  0.14068785547E+02 -0.57797431302E+02  0.97677794649E+02  0.11436531537E+03  0.00000000000E+00 0. -1.
        -11    1    3    3    0    0 -0.22131094784E+02  0.84808227496E+02  0.44897843719E+03  0.45745366746E+03  0.00000000000E+00 0.  1.
         11    1    3    3    0    0 -0.17897765868E+02 -0.15657786377E+02  0.37916911888E+02  0.44756993917E+02  0.00000000000E+00 0. -1.
         21    1    1    2  502  501 -0.22066774118E+02 -0.19989671281E+01  0.62397943698E+02  0.66215117362E+02  0.00000000000E+00 0.  1.
<scales pt_clust_5="13000.00000" pt_clust_6="13000.00000" pt_clust_7="13000.00000" pt_clust_8="13000.00000" pt_clust_9="22.15713"></scales>
<clustering>
<clus scale="   22.157">  1  9  2 -1</clus>
<clus scale="   92.001">  5  6 -1 -1</clus>
<clus scale="   93.618">  7  8 -1 -1</clus>
<clus scale="  127.798">  2  5  1 -1</clus>
<clus scale="  127.798">  2  5  1 -1</clus>
</clustering>
</event>
<event>
 9    1  0.1803370E-005  0.1185958E+03  0.7546771E-02  0.1245485E+00
          2   -1    0    0  502    0  0.00000000000E+00  0.00000000000E+00  0.12558383414E+04  0.12558383414E+04  0.00000000000E+00 0. -1.
         -2   -1    0    0    0  501 -0.00000000000E+00 -0.00000000000E+00 -0.32297434820E+02  0.32297434820E+02  0.00000000000E+00 0.  1.
         23    2    1    2    0    0  0.47158215456E+02  0.28982945905E+02  0.17360936827E+03  0.20364018158E+03  0.90913158370E+02 0.  0.
         23    2    1    2    0    0 -0.13832953699E+03 -0.58381119565E+02  0.65873098069E+03  0.68173718223E+03  0.91080540103E+02 0.  0.
        -11    1    3    3    0    0  0.86464364759E+01  0.49044822751E+02  0.42313419325E+02  0.65349682152E+02  0.00000000000E+00 0.  1.
         11    1    3    3    0    0  0.38511778980E+02 -0.20061876846E+02  0.13129594895E+03  0.13829049943E+03  0.00000000000E+00 0. -1.
        -13    1    4    4    0    0 -0.91456728246E+02 -0.18405456498E+01  0.24462119270E+03  0.26116517507E+03  0.00000000000E+00 0.  1.
         13    1    4    4    0    0 -0.46872808743E+02 -0.56540573915E+02  0.41410978799E+03  0.42057200716E+03  0.00000000000E+00 0. -1.
         21    1    1    2  502  501  0.91171321533E+02  0.29398173660E+02  0.39120055757E+03  0.40275841236E+03  0.00000000000E+00 0. -1.
<scales pt_clust_5="13000.00000" pt_clust_6="13000.00000" pt_clust_7="13000.00000" pt_clust_8="13000.00000" pt_clust_9="95.79385"></scales>
<clustering>
<clus scale="   90.913">  5  6 -1 -1</clus>
<clus scale="   91.081">  7  8 -1 -1</clus>
<clus scale="   95.794">  1  9  2 -1</clus>
<clus scale="  118.467">  2  5  1 -1</clus>
<clus scale="   95.794">  1  5  2 -1</clus>
</clustering>
</event>
<event>
 9    1  0.1803370E-005  0.2484579E+03  0.7546771E-02  0.1114363E+00
          3   -1    0    0  502    0  0.00000000000E+00  0.00000000000E+00  0.44325743166E+03  0.44325743166E+03  0.00000000000E+00 0. -1.
         -3   -1    0    0    0  501 -0.00000000000E+00 -0.00000000000E+00 -0.20810088571E+03  0.20810088571E+03  0.00000000000E+00 0.  1.
         23    2    1    2    0    0 -0.15992649649E+03 -0.14086745955E+03  0.91889200883E+01  0.23189593890E+03  0.90945944315E+02 0.  0.
         23    2    1    2    0    0  0.21031996679E+03  0.15689245637E+03  0.12387520908E+03  0.30448775546E+03  0.92292981885E+02 0.  0.
        -11    1    3    3    0    0 -0.68636846389E+02 -0.67518680794E+01 -0.42810202902E+01  0.69100879441E+02  0.00000000000E+00 0.  1.
         11    1    3    3    0    0 -0.91289650102E+02 -0.13411559147E+03  0.13469940378E+02  0.16279505946E+03  0.00000000000E+00 0. -1.
        -13    1    4    4    0    0  0.13432704478E+03  0.15004808706E+03  0.81934189534E+02  0.21741985835E+03  0.00000000000E+00 0.  1.
         13    1    4    4    0    0  0.75992922011E+02  0.68443693074E+01  0.41941019550E+02  0.87067897114E+02  0.00000000000E+00 0. -1.
         21    1    1    2  502  501 -0.50393470296E+02 -0.16024996816E+02  0.10209241678E+03  0.11497462301E+03  0.00000000000E+00 0. -1.
<scales pt_clust_5="13000.00000" pt_clust_6="13000.00000" pt_clust_7="13000.00000" pt_clust_8="13000.00000" pt_clust_9="52.88008"></scales>
<clustering>
<clus scale="   52.880">  1  9  2 -1</clus>
<clus scale="   90.946">  5  6 -1 -1</clus>
<clus scale="   92.293">  7  8 -1 -1</clus>
<clus scale="  247.961">  2  5  1 -1</clus>
<clus scale="   52.880">  1  5  2 -1</clus>
</clustering>
</event>
<event>
 9    1  0.1803370E-005  0.1027807E+03  0.7546771E-02  0.1276110E+00
          1   -1    0    0  502    0  0.00000000000E+00  0.00000000000E+00  0.56441158050E+03  0.56441158050E+03  0.00000000000E+00 0. -1.
         -1   -1    0    0    0  501 -0.00000000000E+00 -0.00000000000E+00 -0.54518206320E+02  0.54518206320E+02  0.00000000000E+00 0.  1.
         23    2    1    2    0    0 -0.10090262596E+02 -0.50163650090E+02  0.47816623420E+02  0.11681210876E+03  0.93490288742E+02 0.  0.
         23    2    1    2    0    0  0.36535419471E+02 -0.33496745138E+02  0.26266247559E+03  0.28425427775E+03  0.96705995286E+02 0.  0.
        -11    1    4    4    0    0  0.43907252190E+02  0.16111500479E+02  0.63444264102E+02  0.78820060201E+02  0.00000000000E+00 0.  1.
         11    1    4    4    0    0 -0.73718327190E+01 -0.49608245618E+02  0.19921821149E+03  0.20543421755E+03  0.00000000000E+00 0. -1.
        -13    1    3    3    0    0 -0.47109050465E+02 -0.19004213317E+02  0.30443745936E+01  0.50889006438E+02  0.00000000000E+00 0. -1.
         13    1    3    3    0    0  0.37018787870E+02 -0.31159436774E+02  0.44772248826E+02  0.65923102326E+02  0.00000000000E+00 0.  1.
         21    1    1    2  502  501 -0.26445156875E+02  0.83660395229E+02  0.19941427517E+03  0.21786340031E+03  0.00000000000E+00 0. -1.
<scales pt_clust_5="13000.00000" pt_clust_6="13000.00000" pt_clust_7="13000.00000" pt_clust_8="13000.00000" pt_clust_9="87.74057"></scales>
<clustering>
<clus scale="   87.741">  1  9  2 -1</clus>
<clus scale="   93.490">  7  8 -1 -1</clus>
<clus scale="   96.706">  5  6 -1 -1</clus>
<clus scale="   99.761">  2  7  1 -1</clus>
<clus scale="   87.741">  1  5  2 -1</clus>
</clustering>
</event>
<event>
 9    1  0.1803370E-005  0.1059418E+03  0.7546771E-02  0.1270676E+00
          2   -1    0    0  502    0  0.00000000000E+00  0.00000000000E+00  0.44092382802E+03  0.44092382802E+03  0.00000000000E+00 0. -1.
         -2   -1    0    0    0  501 -0.00000000000E+00 -0.00000000000E+00 -0.88987435238E+02  0.88987435238E+02  0.00000000000E+00 0.  1.
         23    2    1    2    0    0 -0.51833675029E+02  0.16321751799E+02 -0.31559149724E+02  0.11014961329E+03  0.90464511975E+02 0.  0.
         23    2    1    2    0    0  0.98188870064E+01  0.28881345237E+02  0.16985587067E+03  0.19738702962E+03  0.95812734102E+02 0.  0.
        -11    1    3    3    0    0  0.11895423610E+02  0.30138473212E+02  0.86549844628E+01  0.33537105219E+02  0.00000000000E+00 0. -1.
         11    1    3    3    0    0 -0.63729098639E+02 -0.13816721413E+02 -0.40214134187E+02  0.76612508067E+02  0.00000000000E+00 0.  1.
        -11    1    4    4    0    0 -0.32292378248E+02  0.36489057066E+02  0.13029988215E+03  0.13911257408E+03  0.00000000000E+00 0.  1.
         11    1    4    4    0    0  0.42111265254E+02 -0.76077118288E+01  0.39555988511E+02  0.58274455533E+02  0.00000000000E+00 0. -1.
         21    1    1    2  502  501  0.42014788023E+02 -0.45203097036E+02  0.21363967184E+03  0.22237462036E+03  0.00000000000E+00 0. -1.
<scales pt_clust_5="13000.00000" pt_clust_6="13000.00000" pt_clust_7="13000.00000" pt_clust_8="13000.00000" pt_clust_9="61.71355"></scales>
<clustering>
<clus scale="   61.714">  1  9  2 -1</clus>
<clus scale="   90.465">  5  6 -1 -1</clus>
<clus scale="   95.813">  7  8 -1 -1</clus>
<clus scale="  101.131">  2  5  1 -1</clus>
<clus scale="   61.714">  1  5  2 -1</clus>
</clustering>
</event>
<event>
 9    1  0.1803370E-005  0.9512037E+02  0.7546771E-02  0.1291813E+00
          1   -1    0    0  502    0  0.00000000000E+00  0.00000000000E+00  0.24524411449E+03  0.24524411449E+03  0.00000000000E+00 0. -1.
         -1   -1    0    0    0  501 -0.00000000000E+00 -0.00000000000E+00 -0.49562633863E+02  0.49562633863E+02  0.00000000000E+00 0.  1.
         23    2    1    2    0    0  0.13719980634E+01 -0.22844177021E+02  0.92469246315E+02  0.13256055013E+03  0.92184592716E+02 0.  0.
         23    2    1    2    0    0 -0.21441352067E+02  0.17820235910E+02  0.10507753192E+03  0.14147366132E+03  0.90532959446E+02 0.  0.
        -11    1    4    4    0    0  0.18833821145E+02  0.28246864914E+02  0.66227700002E+01  0.34589872490E+02  0.00000000000E+00 0.  1.
         11    1    4    4    0    0 -0.40275173212E+02 -0.10426629005E+02  0.98454761917E+02  0.10688378883E+03  0.00000000000E+00 0. -1.
        -11    1    3    3    0    0 -0.38133955822E+02  0.78309474180E+01  0.64273222542E+02  0.75143658814E+02  0.00000000000E+00 0.  1.
         11    1    3    3    0    0  0.39505953885E+02 -0.30675124439E+02  0.28196023773E+02  0.57416891315E+02  0.00000000000E+00 0. -1.
         21    1    1    2  502  501  0.20069354004E+02  0.50239411112E+01 -0.18652976054E+01  0.20772536907E+02  0.00000000000E+00 0.  1.
<scales pt_clust_5="13000.00000" pt_clust_6="13000.00000" pt_clust_7="13000.00000" pt_clust_8="13000.00000" pt_clust_9="20.68862"></scales>
<clustering>
<clus scale="   20.689">  2  9  1 -1</clus>
<clus scale="   90.533">  5  6 -1 -1</clus>
<clus scale="   92.185">  7  8 -1 -1</clus>
<clus scale="   93.521">  1  5  2 -1</clus>
<clus scale="   93.521">  1  5  2 -1</clus>
</clustering>
</event>
<event>
 9    1  0.1803370E-005  0.1222232E+03  0.7546771E-02  0.1243003E+00
         -1   -1    0    0    0  501 -0.00000000000E+00  0.00000000000E+00  0.12868147189E+03  0.12868147189E+03  0.00000000000E+00 0.  1.
          1   -1    0    0  502    0  0.00000000000E+00 -0.00000000000E+00 -0.23623504359E+03  0.23623504359E+03  0.00000000000E+00 0. -1.
         23    2    1    2    0    0 -0.67634751623E+02  0.31341079274E+02  0.62222717166E+02  0.13858120675E+03  0.98875484605E+02 0.  0.
         23    2    1    2    0    0  0.68692176544E+02  0.63245865464E+01 -0.12715404583E+03  0.16944527330E+03  0.88232271644E+02 0.  0.
        -13    1    4    4    0    0  0.67345253766E+02  0.38333345428E+02 -0.72637906860E+02  0.10621249498E+03  0.00000000000E+00 0. -1.
         13    1    4    4    0    0  0.13469227779E+01 -0.32008758882E+02 -0.54516138971E+02  0.63232778323E+02  0.00000000000E+00 0.  1.
        -13    1    3    3    0    0 -0.66040327830E+02  0.62161962747E+02  0.34304374048E+02  0.96965068923E+02  0.00000000000E+00 0. -1.
         13    1    3    3    0    0 -0.15944237933E+01 -0.30820883473E+02  0.27918343118E+02  0.41616137828E+02  0.00000000000E+00 0.  1.
         21    1    1    2  502  501 -0.10574249202E+01 -0.37665665821E+02 -0.42622243033E+02  0.56890035422E+02  0.00000000000E+00 0. -1.
<scales pt_clust_5="13000.00000" pt_clust_6="13000.00000" pt_clust_7="13000.00000" pt_clust_8="13000.00000" pt_clust_9="37.68051"></scales>
<clustering>
<clus scale="   37.681">  2  9  1 -1</clus>
<clus scale="   88.232">  5  6 -1 -1</clus>
<clus scale="   98.875">  7  8 -1 -1</clus>
<clus scale="  113.785">  2  5  1 -1</clus>
<clus scale="   37.681">  2  5  1 -1</clus>
</clustering>
</event>
<event>
 9    1  0.1803370E-005  0.9468993E+02  0.7546771E-02  0.1292631E+00
         -1   -1    0    0    0  501 -0.00000000000E+00  0.00000000000E+00  0.29183481761E+03  0.29183481761E+03  0.00000000000E+00 0.  1.
          1   -1    0    0  502    0  0.00000000000E+00 -0.00000000000E+00 -0.94752280284E+02  0.94752280284E+02  0.00000000000E+00 0. -1.
         23    2    1    2    0    0  0.17192886601E+02  0.27305567020E+02  0.17830961624E+03  0.20231576561E+03  0.89978666544E+02 0.  0.
         23    2    1    2    0    0 -0.17527502036E+02 -0.76881310752E+00  0.76692670367E+02  0.12056098279E+03  0.91353054042E+02 0.  0.
        -11    1    3    3    0    0 -0.33000864927E+02  0.23950451105E+01  0.33695150296E+02  0.47224532612E+02  0.00000000000E+00 0. -1.
         11    1    3    3    0    0  0.50193751527E+02  0.24910521910E+02  0.14461446594E+03  0.15509123300E+03  0.00000000000E+00 0.  1.
        -11    1    4    4    0    0  0.11374733787E+02 -0.32928796200E+02  0.68075184960E+02  0.76471700617E+02  0.00000000000E+00 0. -1.
         11    1    4    4    0    0 -0.28902235823E+02  0.32159983093E+02  0.86174854076E+01  0.44089282177E+02  0.00000000000E+00 0.  1.
         21    1    1    2  502  501  0.33461543594E+00 -0.26536753913E+02 -0.57919749277E+02  0.63710349489E+02  0.00000000000E+00 0. -1.
<scales pt_clust_5="13000.00000" pt_clust_6="13000.00000" pt_clust_7="13000.00000" pt_clust_8="13000.00000" pt_clust_9="26.53886"></scales>
<clustering>
<clus scale="   26.539">  2  9  1 -1</clus>
<clus scale="   89.979">  5  6 -1 -1</clus>
<clus scale="   91.353">  7  8 -1 -1</clus>
<clus scale="   93.365">  1  5  2 -1</clus>
<clus scale="   26.539">  2  5  1 -1</clus>
</clustering>
</event>
<event>
 9    1  0.1803370E-005  0.1412017E+03  0.7546771E-02  0.1229415E+00
          2   -1    0    0  502    0  0.00000000000E+00  0.00000000000E+00  0.52194450582E+03  0.52194450582E+03  0.00000000000E+00 0. -1.
         -2   -1    0    0    0  501 -0.00000000000E+00 -0.00000000000E+00 -0.97785266852E+02  0.97785266852E+02  0.00000000000E+00 0.  1.
         23    2    1    2    0    0  0.11310984560E+02  0.35493757850E+02 -0.30431682172E+02  0.10206102730E+03  0.90014558796E+02 0.  0.
         23    2    1    2    0    0  0.76629400056E+02 -0.80638686914E+02  0.25259407177E+03  0.29278143354E+03  0.97685925060E+02 0.  0.
        -11    1    4    4    0    0  0.55293831499E+02 -0.51516862421E+02  0.59073161053E+02  0.95922016619E+02  0.00000000000E+00 0. -1.
         11    1    4    4    0    0  0.21335568557E+02 -0.29121824493E+02  0.19352091072E+03  0.19685941692E+03  0.00000000000E+00 0.  1.
        -13    1    3    3    0    0  0.47048915225E+02  0.34860727613E+02 -0.31116997627E+02  0.66310921385E+02  0.00000000000E+00 0.  1.
         13    1    3    3    0    0 -0.35737930665E+02  0.63303023704E+00  0.68531545530E+00  0.35750105913E+02  0.00000000000E+00 0. -1.
         21    1    1    2  502  501 -0.87940384616E+02  0.45144929064E+02  0.20199684937E+03  0.22488731183E+03  0.00000000000E+00 0.  1.
<scales pt_clust_5="13000.00000" pt_clust_6="13000.00000" pt_clust_7="13000.00000" pt_clust_8="13000.00000" pt_clust_9="101.95768"></scales>
<clustering>
<clus scale="   90.015">  7  8 -1 -1</clus>
<clus scale="   97.419">  2  7  1 -1</clus>
<clus scale="   97.686">  5  6 -1 -1</clus>
<clus scale="  101.958">  1  9  2 -1</clus>
<clus scale="  101.958">  1  5  2 -1</clus>
</clustering>
</event>
<event>
 9    1  0.1803370E-005  0.9702080E+02  0.7546771E-02  0.1288339E+00
         -2   -1    0    0    0  501 -0.00000000000E+00  0.00000000000E+00  0.39440483072E+02  0.39440483072E+02  0.00000000000E+00 0.  1.
          2   -1    0    0  502    0  0.00000000000E+00 -0.00000000000E+00 -0.44831012453E+03  0.44831012453E+03  0.00000000000E+00 0. -1.
         23    2    1    2    0    0  0.28155356124E+01  0.10684867018E+02 -0.49055041904E+02  0.10272245363E+03  0.89573498976E+02 0.  0.
         23    2    1    2    0    0  0.26724386803E+02 -0.23223240170E+02 -0.31239016617E+03  0.32776652023E+03  0.92680980409E+02 0.  0.
        -13    1    4    4    0    0  0.48120775545E+02 -0.66654306195E+00 -0.27481313342E+03  0.27899518207E+03  0.00000000000E+00 0. -1.
         13    1    4    4    0    0 -0.21396388741E+02 -0.22556697108E+02 -0.37577032756E+02  0.48771338164E+02  0.00000000000E+00 0.  1.
        -13    1    3    3    0    0 -0.33604169468E+02  0.24423918216E+02 -0.19119835225E+01  0.41586339917E+02  0.00000000000E+00 0.  1.
         13    1    3    3    0    0  0.36419705080E+02 -0.13739051198E+02 -0.47143058382E+02  0.61136113710E+02  0.00000000000E+00 0. -1.
         21    1    1    2  502  501 -0.29539922416E+02  0.12538373151E+02 -0.47424433384E+02  0.57261633747E+02  0.00000000000E+00 0.  1.
<scales pt_clust_5="13000.00000" pt_clust_6="13000.00000" pt_clust_7="13000.00000" pt_clust_8="13000.00000" pt_clust_9="32.09077"></scales>
<clustering>
<clus scale="   32.091">  1  9  2 -1</clus>
<clus scale="   89.573">  7  8 -1 -1</clus>
<clus scale="   92.681">  5  6 -1 -1</clus>
<clus scale="   94.057">  1  7  2 -1</clus>
<clus scale="   97.021">  2  5  1 -1</clus>
</clustering>
</event>
<event>
 9    1  0.1803370E-005  0.1228701E+03  0.7546771E-02  0.1248048E+00
         -2   -1    0    0    0  501 -0.00000000000E+00  0.00000000000E+00  0.49324897678E+02  0.49324897678E+02  0.00000000000E+00 0.  1.
          2   -1    0    0  502    0  0.00000000000E+00 -0.00000000000E+00 -0.59582149826E+03  0.59582149826E+03  0.00000000000E+00 0. -1.
         23    2    1    2    0    0  0.27825345116E+02 -0.36606608181E+02 -0.30192645692E+02  0.10443181629E+03  0.88770010735E+02 0.  0.
         23    2    1    2    0    0 -0.21302384367E+02  0.63209620094E+02 -0.38904548724E+03  0.41054166831E+03  0.11286639278E+03 0.  0.
        -11    1    4    4    0    0 -0.49019984422E+02 -0.38544141335E+01 -0.87321435993E+02  0.10021401382E+03  0.00000000000E+00 0.  1.
         11    1    4    4    0    0  0.27717600056E+02  0.67064034228E+02 -0.30172405125E+03  0.31032765449E+03  0.00000000000E+00 0. -1.
        -13    1    3    3    0    0  0.55181020055E+02 -0.45152973171E+02 -0.20799603935E+02  0.74272198596E+02  0.00000000000E+00 0.  1.
         13    1    3    3    0    0 -0.27355674938E+02  0.85463649892E+01 -0.93930417568E+01  0.30159617692E+02  0.00000000000E+00 0. -1.
         21    1    1    2  502  501 -0.65229607493E+01 -0.26603011913E+02 -0.12725846765E+03  0.13017291134E+03  0.00000000000E+00 0.  1.
<scales pt_clust_5="13000.00000" pt_clust_6="13000.00000" pt_clust_7="13000.00000" pt_clust_8="13000.00000" pt_clust_9="27.39104"></scales>
<clustering>
<clus scale="   27.391">  2  9  1 -1</clus>
<clus scale="   88.770">  7  8 -1 -1</clus>
<clus scale="  101.185">  1  7  2 -1</clus>
<clus scale="  112.866">  5  6 -1 -1</clus>
<clus scale="   27.391">  2  5  1 -1</clus>
</clustering>
</event>
<event>
 9    1  0.1803370E-005  0.1211886E+03  0.7546771E-02  0.1242602E+00
         -1   -1    0    0    0  501 -0.00000000000E+00  0.00000000000E+00  0.36366519478E+03  0.36366519478E+03  0.00000000000E+00 0.  1.
          1   -1    0    0  502    0  0.00000000000E+00 -0.00000000000E+00 -0.11829349231E+03  0.11829349231E+03  0.00000000000E+00 0. -1.
         23    2    1    2    0    0 -0.71110637771E+02 -0.31971585170E+02  0.30057656560E+03  0.32384349180E+03  0.91920782883E+02 0.  0.
         23    2    1    2    0    0  0.71612837654E+02  0.53146797502E+02 -0.56382112914E+02  0.13690133805E+03  0.87235618310E+02 0.  0.
        -13    1    3    3    0    0 -0.28246117267E+02  0.29370250532E+02  0.15358763524E+03  0.15890127896E+03  0.00000000000E+00 0. -1.
         13    1    3    3    0    0 -0.42864520504E+02 -0.61341835702E+02  0.14698893037E+03  0.16494221284E+03  0.00000000000E+00 0.  1.
        -13    1    4    4    0    0  0.33909104316E+02  0.55845431656E+02  0.42271784876E+01  0.65470670001E+02  0.00000000000E+00 0. -1.
         13    1    4    4    0    0  0.37703733337E+02 -0.26986341540E+01 -0.60609291402E+02  0.71430668050E+02  0.00000000000E+00 0.  1.
         21    1    1    2  502  501 -0.50219988262E+00 -0.21175212332E+02  0.11772497754E+01  0.21213857241E+02  0.00000000000E+00 0. -1.
<scales pt_clust_5="13000.00000" pt_clust_6="13000.00000" pt_clust_7="13000.00000" pt_clust_8="13000.00000" pt_clust_9="21.18117"></scales>
<clustering>
<clus scale="   21.181">  2  9  1 -1</clus>
<clus scale="   87.236">  7  8 -1 -1</clus>
<clus scale="   91.921">  5  6 -1 -1</clus>
<clus scale="  117.675">  2  7  1 -1</clus>
<clus scale="   21.181">  2  5  1 -1</clus>
</clustering>
</event>
<event>
 9    1  0.1803370E-005  0.9738665E+02  0.7546771E-02  0.1289394E+00
         -1   -1    0    0    0  501 -0.00000000000E+00  0.00000000000E+00  0.25345747077E+02  0.25345747077E+02  0.00000000000E+00 0.  1.
          1   -1    0    0  502    0  0.00000000000E+00 -0.00000000000E+00 -0.66078852112E+03  0.66078852112E+03  0.00000000000E+00 0. -1.
         23    2    1    2    0    0 -0.58537075695E+01  0.15118800357E+02 -0.10991951284E+03  0.14318043864E+03  0.90307777573E+02 0.  0.
         23    2    1    2    0    0 -0.24733481389E+02 -0.33514361363E+01 -0.44448882189E+03  0.45554314746E+03  0.96572610969E+02 0.  0.
        -13    1    4    4    0    0 -0.51983866698E+02  0.21976119919E+02 -0.33946654365E+03  0.34412614911E+03  0.00000000000E+00 0.  1.
         13    1    4    4    0    0  0.27250385309E+02 -0.25327556055E+02 -0.10502227823E+03  0.11141699835E+03  0.00000000000E+00 0. -1.
        -13    1    3    3    0    0  0.94553152507E+01 -0.34241348937E+02 -0.67675818264E+02  0.76432253278E+02  0.00000000000E+00 0. -1.
         13    1    3    3    0    0 -0.15309022820E+02  0.49360149293E+02 -0.42243694577E+02  0.66748185365E+02  0.00000000000E+00 0.  1.
         21    1    1    2  502  501  0.30587188958E+02 -0.11767364220E+02 -0.81034439320E+02  0.87410682099E+02  0.00000000000E+00 0. -1.
<scales pt_clust_5="13000.00000" pt_clust_6="13000.00000" pt_clust_7="13000.00000" pt_clust_8="13000.00000" pt_clust_9="32.77266"></scales>
<clustering>
<clus scale="   32.773">  2  9  1 -1</clus>
<clus scale="   90.308">  7  8 -1 -1</clus>
<clus scale="   91.178">  1  7  2 -1</clus>
<clus scale="   96.573">  5  6 -1 -1</clus>
<clus scale="   32.773">  2  5  1 -1</clus>
</clustering>
</event>
<event>
 9    1  0.1803370E-005  0.3892872E+03  0.7546771E-02  0.1047558E+00
         -2   -1    0    0    0  501 -0.00000000000E+00  0.00000000000E+00  0.18824397872E+03  0.18824397872E+03  0.00000000000E+00 0.  1.
          2   -1    0    0  502    0  0.00000000000E+00 -0.00000000000E+00 -0.97136899262E+03  0.97136899262E+03  0.00000000000E+00 0. -1.
         23    2    1    2    0    0  0.36769096951E+03  0.15195609427E+03 -0.23471069927E+03  0.47071354694E+03  0.90525285310E+02 0.  0.
         23    2    1    2    0    0 -0.31594854056E+03 -0.15243574808E+03 -0.45037649156E+03  0.57804400606E+03  0.90751039781E+02 0.  0.
        -11    1    4    4    0    0 -0.25334269670E+03 -0.15940866254E+03 -0.37499461827E+03  0.47980684384E+03  0.00000000000E+00 0.  1.
         11    1    4    4    0    0 -0.62605843861E+02  0.69729144533E+01 -0.75381873287E+02  0.98237162223E+02  0.00000000000E+00 0. -1.
        -11    1    3    3    0    0  0.11866433759E+03  0.57609289958E+02 -0.31187438459E+02  0.13554597605E+03  0.00000000000E+00 0. -1.
         11    1    3    3    0    0  0.24902663192E+03  0.94346804307E+02 -0.20352326081E+03  0.33516757089E+03  0.00000000000E+00 0.  1.
         21    1    1    2  502  501 -0.51742428951E+02  0.47965381851E+00 -0.98037823071E+02  0.11085541833E+03  0.00000000000E+00 0. -1.
<scales pt_clust_5="13000.00000" pt_clust_6="13000.00000" pt_clust_7="13000.00000" pt_clust_8="13000.00000" pt_clust_9="51.74465"></scales>
<clustering>
<clus scale="   51.745">  2  9  1 -1</clus>
<clus scale="   90.525">  7  8 -1 -1</clus>
<clus scale="   90.751">  5  6 -1 -1</clus>
<clus scale="  389.235">  1  7  2 -1</clus>
<clus scale="   51.745">  2  5  1 -1</clus>
</clustering>
</event>
<event>
 9    1  0.1803370E-005  0.1515373E+03  0.7546771E-02  0.1198991E+00
          4   -1    0    0  502    0  0.00000000000E+00  0.00000000000E+00  0.17753709306E+03  0.17753709306E+03  0.00000000000E+00 0. -1.
         -4   -1    0    0    0  501 -0.00000000000E+00 -0.00000000000E+00 -0.27174777559E+03  0.27174777559E+03  0.00000000000E+00 0.  1.
         23    2    1    2    0    0  0.80779525070E+02  0.83984722360E+02 -0.17749396645E+03  0.23076231063E+03  0.90379038610E+02 0.  0.
         23    2    1    2    0    0 -0.11446694729E+03 -0.79352192690E+02  0.76371377296E+02  0.18382274246E+03  0.92513571265E+02 0.  0.
        -11    1    3    3    0    0  0.73064434722E+02  0.14091594655E+02 -0.11329662603E+03  0.13554744605E+03  0.00000000000E+00 0.  1.
         11    1    3    3    0    0  0.77150903482E+01  0.69893127706E+02 -0.64197340418E+02  0.95214864577E+02  0.00000000000E+00 0. -1.
        -13    1    4    4    0    0 -0.10108886420E+03 -0.99748699817E+02  0.58545714088E+02  0.15361107453E+03  0.00000000000E+00 0. -1.
         13    1    4    4    0    0 -0.13378083085E+02  0.20396507126E+02  0.17825663209E+02  0.30211667925E+02  0.00000000000E+00 0.  1.
         21    1    1    2  502  501  0.33687422219E+02 -0.46325296699E+01  0.69119066326E+01  0.34699815564E+02  0.00000000000E+00 0.  1.
<scales pt_clust_5="13000.00000" pt_clust_6="13000.00000" pt_clust_7="13000.00000" pt_clust_8="13000.00000" pt_clust_9="34.00445"></scales>
<clustering>
<clus scale="   34.004">  1  9  2 -1</clus>
<clus scale="   90.379">  5  6 -1 -1</clus>
<clus scale="   92.514">  7  8 -1 -1</clus>
<clus scale="  150.244">  2  5  1 -1</clus>
<clus scale="   34.004">  1  5  2 -1</clus>
</clustering>
</event>
<event>
 9    1  0.1803370E-005  0.1009387E+03  0.7546771E-02  0.1278381E+00
          2   -1    0    0  502    0  0.00000000000E+00  0.00000000000E+00  0.56325211824E+03  0.56325211824E+03  0.00000000000E+00 0. -1.
         -2   -1    0    0    0  501 -0.00000000000E+00 -0.00000000000E+00 -0.11271638638E+03  0.11271638638E+03  0.00000000000E+00 0.  1.
         23    2    1    2    0    0 -0.31982798824E+02 -0.57942655204E+02 -0.32387378236E+02  0.11935115131E+03  0.93890917224E+02 0.  0.
         23    2    1    2    0    0 -0.51970457592E+01 -0.47163723289E+01  0.31260148163E+02  0.99115521888E+02  0.93794649973E+02 0.  0.
        -11    1    3    3    0    0  0.18833366218E+01 -0.74430990054E+02 -0.33554123505E+02  0.81666385015E+02  0.00000000000E+00 0.  1.
         11    1    3    3    0    0 -0.33866135445E+02  0.16488334850E+02  0.11667452688E+01  0.37684766294E+02  0.00000000000E+00 0. -1.
        -11    1    4    4    0    0  0.34467374546E+02  0.22736078439E+02  0.29681070267E+02  0.50851697150E+02  0.00000000000E+00 0. -1.
         11    1    4    4    0    0 -0.39664420306E+02 -0.27452450768E+02  0.15790778959E+01  0.48263824738E+02  0.00000000000E+00 0.  1.
         21    1    1    2  502  501  0.37179844583E+02  0.62659027533E+02  0.45166296194E+03  0.45750183143E+03  0.00000000000E+00 0. -1.
<scales pt_clust_5="13000.00000" pt_clust_6="13000.00000" pt_clust_7="13000.00000" pt_clust_8="13000.00000" pt_clust_9="72.85942"></scales>
<clustering>
<clus scale="   72.859">  1  9  2 -1</clus>
<clus scale="   93.795">  7  8 -1 -1</clus>
<clus scale="   93.891">  5  6 -1 -1</clus>
<clus scale="  100.849">  1  7  2 -1</clus>
<clus scale="   72.859">  1  5  2 -1</clus>
</clustering>
</event>
<event>
 9    1  0.2063333E-005  0.1023798E+03  0.7546771E-02  0.1277098E+00
          1   -1    0    0  502    0  0.00000000000E+00  0.00000000000E+00  0.45583970452E+03  0.45583970452E+03  0.00000000000E+00 0. -1.
         -1   -1    0    0    0  501 -0.00000000000E+00 -0.00000000000E+00 -0.50230178285E+02  0.50230178285E+02  0.00000000000E+00 0.  1.
         23    2    1    2    0    0  0.17154229376E+02 -0.18045881878E+02  0.20827291245E+02  0.10106044542E+03  0.95705361029E+02 0.  0.
         23    2    1    2    0    0 -0.46068486696E+01  0.34042929865E+02  0.34009178790E+03  0.35591179622E+03  0.99149575708E+02 0.  0.
        -11    1    3    3    0    0  0.45257752529E+01 -0.52913682045E+02 -0.84978760326E+01  0.53782471924E+02  0.00000000000E+00 0.  1.
         11    1    3    3    0    0  0.12628454123E+02  0.34867800167E+02  0.29325167278E+02  0.47277973496E+02  0.00000000000E+00 0. -1.
        -11    1    4    4    0    0 -0.34067223777E+02 -0.21829803591E+02  0.16105157558E+03  0.16605639420E+03  0.00000000000E+00 0.  1.
         11    1    4    4    0    0  0.29460375108E+02  0.55872733456E+02  0.17904021232E+03  0.18985540201E+03  0.00000000000E+00 0. -1.
         21    1    1    2  502  501 -0.12547380707E+02 -0.15997047987E+02  0.44690447095E+02  0.49097641170E+02  0.00000000000E+00 0. -1.
<scales pt_clust_5="13000.00000" pt_clust_6="13000.00000" pt_clust_7="13000.00000" pt_clust_8="13000.00000" pt_clust_9="20.33082"></scales>
<clustering>
<clus scale="   20.331">  1  9  2 -1</clus>
<clus scale="   95.705">  5  6 -1 -1</clus>
<clus scale="   99.048">  2  5  1 -1</clus>
<clus scale="   99.150">  7  8 -1 -1</clus>
<clus scale="   20.331">  1  5  2 -1</clus>
</clustering>
</event>
<event>
 9    1  0.1803370E-005  0.9938465E+02  0.7546771E-02  0.1282327E+00
          1   -1    0    0  502    0  0.00000000000E+00  0.00000000000E+00  0.41103336606E+03  0.41103336606E+03  0.00000000000E+00 0. -1.
         -1   -1    0    0    0  501 -0.00000000000E+00 -0.00000000000E+00 -0.22838366894E+03  0.22838366894E+03  0.00000000000E+00 0.  1.
         23    2    1    2    0    0 -0.30449205726E+02 -0.13472927387E+02 -0.19903039140E+03  0.22170351373E+03  0.91818720303E+02 0.  0.
         23    2    1    2    0    0  0.31223768058E+02  0.62286214344E+02  0.22117078693E+03  0.24994411753E+03  0.93279412025E+02 0.  0.
        -13    1    3    3    0    0 -0.61754388264E+02  0.38707083309E+01 -0.12723100543E+03  0.14147902882E+03  0.00000000000E+00 0.  1.
         13    1    3    3    0    0  0.31305182538E+02 -0.17343635718E+02 -0.71799385970E+02  0.80224484911E+02  0.00000000000E+00 0. -1.
        -13    1    4    4    0    0 -0.16303541396E+02 -0.13471615575E+02  0.80660742883E+02  0.83387321163E+02  0.00000000000E+00 0.  1.
         13    1    4    4    0    0  0.47527309454E+02  0.75757829919E+02  0.14051004404E+03  0.16655679636E+03  0.00000000000E+00 0. -1.
         21    1    1    2  502  501 -0.77456233124E+00 -0.48813286957E+02  0.16050930160E+03  0.16776940374E+03  0.00000000000E+00 0.  1.
<scales pt_clust_5="13000.00000" pt_clust_6="13000.00000" pt_clust_7="13000.00000" pt_clust_8="13000.00000" pt_clust_9="48.81943"></scales>
<clustering>
<clus scale="   48.819">  1  9  2 -1</clus>
<clus scale="   91.819">  5  6 -1 -1</clus>
<clus scale="   93.279">  7  8 -1 -1</clus>
<clus scale="   98.015">  2  5  1 -1</clus>
<clus scale="   48.819">  1  5  2 -1</clus>
</clustering>
</event>
<event>
 9    1  0.1803370E-005  0.1791881E+03  0.7546771E-02  0.1170595E+00
          1   -1    0    0  502    0  0.00000000000E+00  0.00000000000E+00  0.47261503577E+03  0.47261503577E+03  0.00000000000E+00 0. -1.
         -1   -1    0    0    0  501 -0.00000000000E+00 -0.00000000000E+00 -0.12065776670E+03  0.12065776670E+03  0.00000000000E+00 0.  1.
         23    2    1    2    0    0  0.17262151102E+01 -0.13965740108E+03  0.90665370197E+02  0.19405815923E+03  0.99655357684E+02 0.  0.
         23    2    1    2    0    0 -0.10107179045E+03  0.12119537295E+03  0.13008106078E+03  0.23360463794E+03  0.11289915519E+03 0.  0.
        -11    1    3    3    0    0  0.18765779821E+02  0.96468638545E+01  0.14345477828E+02  0.25514882101E+02  0.00000000000E+00 0. -1.
         11    1    3    3    0    0 -0.17039564711E+02 -0.14930426494E+03  0.76319892369E+02  0.16854327713E+03  0.00000000000E+00 0.  1.
        -11    1    4    4    0    0 -0.48637193878E+02  0.75852622630E+02  0.45696313901E+01  0.90222383693E+02  0.00000000000E+00 0.  1.
         11    1    4    4    0    0 -0.52434596571E+02  0.45342750323E+02  0.12551142939E+03  0.14338225424E+03  0.00000000000E+00 0. -1.
         21    1    1    2  502  501  0.99345575339E+02  0.18462028132E+02  0.13121083810E+03  0.16561000530E+03  0.00000000000E+00 0. -1.
<scales pt_clust_5="13000.00000" pt_clust_6="13000.00000" pt_clust_7="13000.00000" pt_clust_8="13000.00000" pt_clust_9="101.04647"></scales>
<clustering>
<clus scale="   99.655">  5  6 -1 -1</clus>
<clus scale="  101.046">  1  9  2 -1</clus>
<clus scale="  112.899">  7  8 -1 -1</clus>
<clus scale="  171.153">  2  5  1 -1</clus>
<clus scale="  101.046">  1  5  2 -1</clus>
</clustering>
</event>
<event>
 9    1  0.1803370E-005  0.9362394E+02  0.7546771E-02  0.1295412E+00
         -1   -1    0    0    0  501 -0.00000000000E+00  0.00000000000E+00  0.10325759278E+03  0.10325759278E+03  0.00000000000E+00 0.  1.
          1   -1    0    0  502    0  0.00000000000E+00 -0.00000000000E+00 -0.76579946455E+03  0.76579946455E+03  0.00000000000E+00 0. -1.
         23    2    1    2    0    0  0.17804915612E+02  0.97341728695E+01  0.71371754231E+02  0.11746847360E+03  0.91066710971E+02 0.  0.
         23    2    1    2    0    0 -0.64754610889E+02  0.11011545715E+02 -0.49760789030E+03  0.50977241501E+03  0.89106053940E+02 0.  0.
        -13    1    4    4    0    0  0.11726039587E+02  0.29433474569E+02 -0.12525240207E+03  0.12919749863E+03  0.00000000000E+00 0.  1.
         13    1    4    4    0    0 -0.76480650476E+02 -0.18421928854E+02 -0.37235548823E+03  0.38057491638E+03  0.00000000000E+00 0. -1.
        -13    1    3    3    0    0 -0.34575005811E+02 -0.10353184006E+02  0.19306167663E+02  0.40931009709E+02  0.00000000000E+00 0. -1.
         13    1    3    3    0    0  0.52379921424E+02  0.20087356876E+02  0.52065586568E+02  0.76537463894E+02  0.00000000000E+00 0.  1.
         21    1    1    2  502  501  0.46949695277E+02 -0.20745718585E+02 -0.23630573570E+03  0.24181616871E+03  0.00000000000E+00 0. -1.
<scales pt_clust_5="13000.00000" pt_clust_6="13000.00000" pt_clust_7="13000.00000" pt_clust_8="13000.00000" pt_clust_9="51.32893"></scales>
<clustering>
<clus scale="   51.329">  2  9  1 -1</clus>
<clus scale="   89.106">  5  6 -1 -1</clus>
<clus scale="   91.067">  7  8 -1 -1</clus>
<clus scale="   91.718">  2  5  1 -1</clus>
<clus scale="   51.329">  2  5  1 -1</clus>
</clustering>
</event>
<event>
 9    1  0.1803370E-005  0.2030242E+03  0.7546771E-02  0.1171210E+00
         -1   -1    0    0    0  501 -0.00000000000E+00  0.00000000000E+00  0.89184519952E+02  0.89184519952E+02  0.00000000000E+00 0.  1.
          1   -1    0    0  502    0  0.00000000000E+00 -0.00000000000E+00 -0.14768604412E+04  0.14768604412E+04  0.00000000000E+00 0. -1.
         23    2    1    2    0    0  0.73359779287E+02  0.11559243290E+02  0.71566766231E+01  0.11625164497E+03  0.89151296211E+02 0.  0.
         23    2    1    2    0    0  0.10041005875E+03  0.10212589165E+03 -0.42105584042E+03  0.45412196484E+03  0.91797933316E+02 0.  0.
        -11    1    4    4    0    0  0.54708035306E+02  0.89024206453E+02 -0.36950378715E+03  0.38399391555E+03  0.00000000000E+00 0.  1.
         11    1    4    4    0    0  0.45702023442E+02  0.13101685195E+02 -0.51552053270E+02  0.70128049295E+02  0.00000000000E+00 0. -1.
        -13    1    3    3    0    0  0.70275051465E+02  0.36834413974E+02 -0.17010285482E+02  0.81146205847E+02  0.00000000000E+00 0.  1.
         13    1    3    3    0    0  0.30847278221E+01 -0.25275170684E+02  0.24166962105E+02  0.35105439126E+02  0.00000000000E+00 0. -1.
         21    1    1    2  502  501 -0.17376983804E+03 -0.11368513494E+03 -0.97377675747E+03  0.99567135135E+03  0.00000000000E+00 0. -1.
<scales pt_clust_5="13000.00000" pt_clust_6="13000.00000" pt_clust_7="13000.00000" pt_clust_8="13000.00000" pt_clust_9="181.08549"></scales>
<clustering>
<clus scale="   89.151">  7  8 -1 -1</clus>
<clus scale="   91.798">  5  6 -1 -1</clus>
<clus scale="  116.031">  1  7  2 -1</clus>
<clus scale="  181.085">  2  9  1 -1</clus>
<clus scale="  181.085">  2  5  1 -1</clus>
</clustering>
</event>
<event>
 9    1  0.1803370E-005  0.3534769E+03  0.7546771E-02  0.1061209E+00
          2   -1    0    0  502    0  0.00000000000E+00  0.00000000000E+00  0.23154080755E+04  0.23154080755E+04  0.00000000000E+00 0. -1.
         -2   -1    0    0    0  501 -0.00000000000E+00 -0.00000000000E+00 -0.74318816909E+02  0.74318816909E+02  0.00000000000E+00 0.  1.
         23    2    1    2    0    0  0.20599521192E+03  0.30575723458E+03  0.72263609301E+03  0.81640083537E+03  0.91574490056E+02 0.  0.
         23    2    1    2    0    0 -0.21380090846E+03 -0.21789455088E+03  0.10797133850E+04  0.11258069232E+04  0.92040050138E+02 0.  0.
        -11    1    4    4    0    0 -0.55289595950E+02 -0.81966981042E+01  0.19916700984E+03  0.20686136200E+03  0.00000000000E+00 0.  1.
         11    1    4    4    0    0 -0.15851131251E+03 -0.20969785277E+03  0.88054637515E+03  0.91894556120E+03  0.00000000000E+00 0. -1.
        -11    1    3    3    0    0  0.14404273536E+03  0.21488315899E+03  0.58913302356E+03  0.64342894019E+03  0.00000000000E+00 0. -1.
         11    1    3    3    0    0  0.61952476564E+02  0.90874075592E+02  0.13350306945E+03  0.17297189517E+03  0.00000000000E+00 0.  1.
         21    1    1    2  502  501  0.78056965386E+01 -0.87862683708E+02  0.43873978059E+03  0.44751913385E+03  0.00000000000E+00 0. -1.
<scales pt_clust_5="13000.00000" pt_clust_6="13000.00000" pt_clust_7="13000.00000" pt_clust_8="13000.00000" pt_clust_9="88.20873"></scales>
<clustering>
<clus scale="   88.209">  1  9  2 -1</clus>
<clus scale="   91.574">  7  8 -1 -1</clus>
<clus scale="   92.040">  5  6 -1 -1</clus>
<clus scale="  353.356">  2  7  1 -1</clus>
<clus scale="   88.209">  1  5  2 -1</clus>
</clustering>
</event>
<event>
 9    1  0.1803370E-005  0.9588312E+02  0.7546771E-02  0.1289433E+00
         -2   -1    0    0    0  501 -0.00000000000E+00  0.00000000000E+00  0.33954306855E+02  0.33954306855E+02  0.00000000000E+00 0. -1.
          2   -1    0    0  502    0  0.00000000000E+00 -0.00000000000E+00 -0.48971308740E+03  0.48971308740E+03  0.00000000000E+00 0.  1.
         23    2    1    2    0    0  0.13381943396E+00 -0.36595848320E+02 -0.76462143871E+02  0.12318742798E+03  0.89383493698E+02 0.  0.
         23    2    1    2    0    0  0.27056301201E+02  0.21266865377E+02 -0.30738558117E+03  0.32208685253E+03  0.89831631768E+02 0.  0.
        -11    1    3    3    0    0  0.28876318235E+02 -0.33597652520E+01  0.60598592298E+01  0.29695987461E+02  0.00000000000E+00 0. -1.
         11    1    3    3    0    0 -0.28742498802E+02 -0.33236083068E+02 -0.82522003100E+02  0.93491440521E+02  0.00000000000E+00 0.  1.
        -11    1    4    4    0    0  0.85830416482E+01 -0.31203692194E+02 -0.56535614313E+02  0.65143032599E+02  0.00000000000E+00 0. -1.
         11    1    4    4    0    0  0.18473259553E+02  0.52470557571E+02 -0.25084996685E+03  0.25694381993E+03  0.00000000000E+00 0.  1.
         21    1    1    2  502  501 -0.27190120635E+02  0.15328982943E+02 -0.71911055508E+02  0.78393113744E+02  0.00000000000E+00 0. -1.
<scales pt_clust_5="13000.00000" pt_clust_6="13000.00000" pt_clust_7="13000.00000" pt_clust_8="13000.00000" pt_clust_9="31.21346"></scales>
<clustering>
<clus scale="   31.213">  2  9  1 -1</clus>
<clus scale="   89.383">  5  6 -1 -1</clus>
<clus scale="   89.832">  7  8 -1 -1</clus>
<clus scale="   95.463">  1  5  2 -1</clus>
<clus scale="   31.213">  2  5  1 -1</clus>
</clustering>
</event>
<event>
 9    1  0.1803370E-005  0.1240161E+03  0.7546771E-02  0.1245797E+00
          2   -1    0    0  502    0  0.00000000000E+00  0.00000000000E+00  0.72194547510E+03  0.72194547510E+03  0.00000000000E+00 0. -1.
         -2   -1    0    0    0  501 -0.00000000000E+00 -0.00000000000E+00 -0.22137137088E+02  0.22137137088E+02  0.00000000000E+00 0.  1.
         23    2    1    2    0    0 -0.64910416195E+01 -0.46343510070E+02  0.32238702140E+03  0.34549796134E+03  0.11508950940E+03 0.  0.
         23    2    1    2    0    0 -0.16112360758E+02  0.45222673711E+02  0.33191994859E+03  0.34776590859E+03  0.92008567638E+02 0.  0.
        -11    1    4    4    0    0 -0.20136137578E+02 -0.24754742068E+02  0.13573547340E+03  0.13943593522E+03  0.00000000000E+00 0.  1.
         11    1    4    4    0    0  0.40237768203E+01  0.69977415779E+02  0.19618447519E+03  0.20832997337E+03  0.00000000000E+00 0. -1.
        -13    1    3    3    0    0  0.50739053944E+02 -0.32823686425E+02  0.21174471693E+03  0.22019916243E+03  0.00000000000E+00 0. -1.
         13    1    3    3    0    0 -0.57230095564E+02 -0.13519823645E+02  0.11064230447E+03  0.12529879891E+03  0.00000000000E+00 0.  1.
         21    1    1    2  502  501  0.22603402377E+02  0.11208363591E+01  0.45501368021E+02  0.50818742261E+02  0.00000000000E+00 0. -1.
<scales pt_clust_5="13000.00000" pt_clust_6="13000.00000" pt_clust_7="13000.00000" pt_clust_8="13000.00000" pt_clust_9="22.63117"></scales>
<clustering>
<clus scale="   22.631">  2  9  1 -1</clus>
<clus scale="   92.009">  5  6 -1 -1</clus>
<clus scale="  102.956">  1  5  2 -1</clus>
<clus scale="  115.090">  7  8 -1 -1</clus>
<clus scale="  102.956">  1  5  2 -1</clus>
</clustering>
</event>
<event>
 9    1  0.1803370E-005  0.1427419E+03  0.7546771E-02  0.1209779E+00
          1   -1    0    0  502    0  0.00000000000E+00  0.00000000000E+00  0.29690919209E+03  0.29690919209E+03  0.00000000000E+00 0. -1.
         -1   -1    0    0    0  501 -0.00000000000E+00 -0.00000000000E+00 -0.10076319416E+03  0.10076319416E+03  0.00000000000E+00 0.  1.
         23    2    1    2    0    0 -0.11362986912E+02  0.11878013033E+03  0.16156373836E+02  0.15093757998E+03  0.91012569470E+02 0.  0.
         23    2    1    2    0    0 -0.15604685519E+02 -0.91737690000E+02  0.13559225233E+03  0.18817137439E+03  0.91454345278E+02 0.  0.
        -11    1    4    4    0    0 -0.53061900303E+02 -0.39543777003E+02  0.66112079302E+02  0.93541876147E+02  0.00000000000E+00 0. -1.
         11    1    4    4    0    0  0.37457214783E+02 -0.52193912997E+02  0.69480173031E+02  0.94629498243E+02  0.00000000000E+00 0.  1.
        -13    1    3    3    0    0  0.76518326367E+01  0.49894670926E+02 -0.36397604808E+02  0.62231940073E+02  0.00000000000E+00 0.  1.
         13    1    3    3    0    0 -0.19014819549E+02  0.68885459401E+02  0.52553978644E+02  0.88705639903E+02  0.00000000000E+00 0. -1.
         21    1    1    2  502  501  0.26967672432E+02 -0.27042440327E+02  0.44397371755E+02  0.58563431883E+02  0.00000000000E+00 0. -1.
<scales pt_clust_5="13000.00000" pt_clust_6="13000.00000" pt_clust_7="13000.00000" pt_clust_8="13000.00000" pt_clust_9="38.19095"></scales>
<clustering>
<clus scale="   38.191">  1  9  2 -1</clus>
<clus scale="   91.013">  7  8 -1 -1</clus>
<clus scale="   91.454">  5  6 -1 -1</clus>
<clus scale="  142.459">  2  7  1 -1</clus>
<clus scale="   38.191">  1  5  2 -1</clus>
</clustering>
</event>
<event>
 9    1  0.1803370E-005  0.1135387E+03  0.7546771E-02  0.1254817E+00
          1   -1    0    0  502    0  0.00000000000E+00  0.00000000000E+00  0.16041173716E+03  0.16041173716E+03  0.00000000000E+00 0. -1.
         -1   -1    0    0    0  501 -0.00000000000E+00 -0.00000000000E+00 -0.13135573568E+03  0.13135573568E+03  0.00000000000E+00 0.  1.
         23    2    1    2    0    0  0.58697051598E+02  0.35205394836E+02 -0.61155852172E+02  0.13175027250E+03  0.94516307356E+02 0.  0.
         23    2    1    2    0    0 -0.34300218237E+02 -0.31053341456E+02  0.86511555637E+02  0.13499446606E+03  0.92727782365E+02 0.  0.
        -13    1    3    3    0    0  0.14279330802E+02  0.52119368794E+02 -0.64449153271E+02  0.84107200934E+02  0.00000000000E+00 0.  1.
         13    1    3    3    0    0  0.44417720796E+02 -0.16913973958E+02  0.32933010994E+01  0.47643071562E+02  0.00000000000E+00 0. -1.
        -13    1    4    4    0    0  0.17002856696E+02  0.22110395407E+02  0.13003165713E+02  0.30774161880E+02  0.00000000000E+00 0.  1.
         13    1    4    4    0    0 -0.51303074933E+02 -0.53163736863E+02  0.73508389924E+02  0.10422030418E+03  0.00000000000E+00 0. -1.
         21    1    1    2  502  501 -0.24396833361E+02 -0.41520533797E+01  0.37002980107E+01  0.25022734277E+02  0.00000000000E+00 0. -1.
<scales pt_clust_5="13000.00000" pt_clust_6="13000.00000" pt_clust_7="13000.00000" pt_clust_8="13000.00000" pt_clust_9="24.74763"></scales>
<clustering>
<clus scale="   24.748">  1  9  2 -1</clus>
<clus scale="   92.728">  7  8 -1 -1</clus>
<clus scale="   94.516">  5  6 -1 -1</clus>
<clus scale="  112.054">  1  7  2 -1</clus>
<clus scale="   24.748">  1  5  2 -1</clus>
</clustering>
</event>
<event>
 9    1  0.1803370E-005  0.9349829E+02  0.7546771E-02  0.1295018E+00
         -2   -1    0    0    0  501 -0.00000000000E+00  0.00000000000E+00  0.89363694788E+02  0.89363694788E+02  0.00000000000E+00 0.  1.
          2   -1    0    0  502    0  0.00000000000E+00 -0.00000000000E+00 -0.17974110692E+03  0.17974110692E+03  0.00000000000E+00 0. -1.
         23    2    1    2    0    0 -0.60330074330E+01  0.36273690088E+01  0.20561527185E+02  0.94866281268E+02  0.92343272288E+02 0.  0.
         23    2    1    2    0    0  0.34568538684E+02  0.43803231890E+01 -0.58872826130E+02  0.11432792187E+03  0.91600725791E+02 0.  0.
        -11    1    3    3    0    0  0.33901875432E+01  0.47165561600E+02  0.44510534592E+01  0.47496267743E+02  0.00000000000E+00 0.  1.
         11    1    3    3    0    0 -0.94231949762E+01 -0.43538192591E+02  0.16110473726E+02  0.47370013525E+02  0.00000000000E+00 0. -1.
        -11    1    4    4    0    0 -0.16927282337E+02 -0.30913688607E+02 -0.16796447502E+02  0.39042408728E+02  0.00000000000E+00 0. -1.
         11    1    4    4    0    0  0.51495821020E+02  0.35294011796E+02 -0.42076378628E+02  0.75285513146E+02  0.00000000000E+00 0.  1.
         21    1    1    2  502  501 -0.28535531251E+02 -0.80076921978E+01 -0.52066113184E+02  0.59910598563E+02  0.00000000000E+00 0. -1.
<scales pt_clust_5="13000.00000" pt_clust_6="13000.00000" pt_clust_7="13000.00000" pt_clust_8="13000.00000" pt_clust_9="29.63781"></scales>
<clustering>
<clus scale="   29.638">  2  9  1 -1</clus>
<clus scale="   91.601">  7  8 -1 -1</clus>
<clus scale="   92.343">  5  6 -1 -1</clus>
<clus scale="   92.765">  2  7  1 -1</clus>
<clus scale="   29.638">  2  5  1 -1</clus>
</clustering>
</event>
<event>
 9    1  0.1803370E-005  0.9515501E+02  0.7546771E-02  0.1293348E+00
         -3   -1    0    0    0  501 -0.00000000000E+00  0.00000000000E+00  0.36939162736E+02  0.36939162736E+02  0.00000000000E+00 0.  1.
          3   -1    0    0  502    0  0.00000000000E+00 -0.00000000000E+00 -0.53844239550E+03  0.53844239550E+03  0.00000000000E+00 0. -1.
         23    2    1    2    0    0  0.13349082889E+02 -0.35652532932E+02 -0.80649746708E+02  0.12781233904E+03  0.91554962987E+02 0.  0.
         23    2    1    2    0    0 -0.16571145293E+02 -0.64805337918E+00 -0.14939331222E+03  0.17367372775E+03  0.87001029579E+02 0.  0.
        -11    1    4    4    0    0  0.25236825531E+02  0.14216487505E+02 -0.15993105233E+02  0.33087539873E+02  0.00000000000E+00 0.  1.
         11    1    4    4    0    0 -0.41807970823E+02 -0.14864540885E+02 -0.13340020698E+03  0.14058618788E+03  0.00000000000E+00 0. -1.
        -13    1    3    3    0    0 -0.21252338851E+01  0.30307408789E+02 -0.33760454440E+02  0.45418321530E+02  0.00000000000E+00 0. -1.
         13    1    3    3    0    0  0.15474316774E+02 -0.65959941722E+02 -0.46889292269E+02  0.82394017507E+02  0.00000000000E+00 0.  1.
         21    1    1    2  502  501  0.32220624038E+01  0.36300586311E+02 -0.27146017384E+03  0.27389549144E+03  0.00000000000E+00 0. -1.
<scales pt_clust_5="13000.00000" pt_clust_6="13000.00000" pt_clust_7="13000.00000" pt_clust_8="13000.00000" pt_clust_9="36.44330"></scales>
<clustering>
<clus scale="   36.443">  2  9  1 -1</clus>
<clus scale="   87.001">  5  6 -1 -1</clus>
<clus scale="   90.782">  2  5  1 -1</clus>
<clus scale="   91.555">  7  8 -1 -1</clus>
<clus scale="   36.443">  2  5  1 -1</clus>
</clustering>
</event>
<event>
 9    1  0.1803370E-005  0.1535592E+03  0.7546771E-02  0.1200711E+00
         -2   -1    0    0    0  501 -0.00000000000E+00  0.00000000000E+00  0.35507595167E+03  0.35507595167E+03  0.00000000000E+00 0.  1.
          2   -1    0    0  502    0  0.00000000000E+00 -0.00000000000E+00 -0.14172316854E+03  0.14172316854E+03  0.00000000000E+00 0. -1.
         23    2    1    2    0    0 -0.10338325121E+03 -0.21408681117E+02  0.26537339606E+03  0.30529349554E+03  0.10786403861E+03 0.  0.
         23    2    1    2    0    0  0.12123620737E+03  0.33815222532E+02 -0.21393591753E+02  0.15394680759E+03  0.86024685683E+02 0.  0.
        -11    1    3    3    0    0 -0.11449263860E+03  0.12385037745E+02  0.20924309699E+03  0.23884017059E+03  0.00000000000E+00 0. -1.
         11    1    3    3    0    0  0.11109387385E+02 -0.33793718862E+02  0.56130299072E+02  0.66453324947E+02  0.00000000000E+00 0.  1.
        -11    1    4    4    0    0  0.96036864818E+02 -0.96322493795E+01  0.60568638246E+01  0.96708558213E+02  0.00000000000E+00 0.  1.
         11    1    4    4    0    0  0.25199342554E+02  0.43447471911E+02 -0.27450455577E+02  0.57238249380E+02  0.00000000000E+00 0. -1.
         21    1    1    2  502  501 -0.17852956158E+02 -0.12406541415E+02 -0.30627021176E+02  0.37558817068E+02  0.00000000000E+00 0. -1.
<scales pt_clust_5="13000.00000" pt_clust_6="13000.00000" pt_clust_7="13000.00000" pt_clust_8="13000.00000" pt_clust_9="21.74052"></scales>
<clustering>
<clus scale="   21.741">  2  9  1 -1</clus>
<clus scale="   86.025">  7  8 -1 -1</clus>
<clus scale="  107.864">  5  6 -1 -1</clus>
<clus scale="  139.090">  2  7  1 -1</clus>
<clus scale="   21.741">  2  5  1 -1</clus>
</clustering>
</event>
<event>
 9    1  0.1803370E-005  0.9345026E+02  0.7546771E-02  0.1295049E+00
          1   -1    0    0  502    0  0.00000000000E+00  0.00000000000E+00  0.31667519208E+03  0.31667519208E+03  0.00000000000E+00 0. -1.
         -1   -1    0    0    0  501 -0.00000000000E+00 -0.00000000000E+00 -0.45422026902E+02  0.45422026902E+02  0.00000000000E+00 0.  1.
         23    2    1    2    0    0 -0.19488838276E+02  0.19388866611E+02  0.48893768783E+02  0.10695159084E+03  0.91062062303E+02 0.  0.
         23    2    1    2    0    0  0.58358082384E+01  0.91368414692E+01  0.14924466696E+03  0.17548456545E+03  0.91669643628E+02 0.  0.
        -11    1    4    4    0    0  0.11929569983E+02 -0.39724544893E+02  0.84620206259E+02  0.94238704439E+02  0.00000000000E+00 0.  1.
         11    1    4    4    0    0 -0.60937617443E+01  0.48861386362E+02  0.64624460704E+02  0.81245861007E+02  0.00000000000E+00 0. -1.
        -11    1    3    3    0    0 -0.45809742446E+02 -0.17547697121E+02  0.18872762024E+02  0.52560777426E+02  0.00000000000E+00 0.  1.
         11    1    3    3    0    0  0.26320904170E+02  0.36936563733E+02  0.30021006759E+02  0.54390813411E+02  0.00000000000E+00 0. -1.
         21    1    1    2  502  501  0.13653030038E+02 -0.28525708081E+02  0.73114729434E+02  0.79661062702E+02  0.00000000000E+00 0.  1.
<scales pt_clust_5="13000.00000" pt_clust_6="13000.00000" pt_clust_7="13000.00000" pt_clust_8="13000.00000" pt_clust_9="31.62469"></scales>
<clustering>
<clus scale="   31.625">  1  9  2 -1</clus>
<clus scale="   91.062">  7  8 -1 -1</clus>
<clus scale="   91.670">  5  6 -1 -1</clus>
<clus scale="   92.854">  2  7  1 -1</clus>
<clus scale="   31.625">  1  5  2 -1</clus>
</clustering>
</event>
<event>
 9    1  0.1803370E-005  0.9641456E+02  0.7546771E-02  0.1289101E+00
          2   -1    0    0  502    0  0.00000000000E+00  0.00000000000E+00  0.35142170139E+03  0.35142170139E+03  0.00000000000E+00 0. -1.
         -2   -1    0    0    0  501 -0.00000000000E+00 -0.00000000000E+00 -0.56346877535E+02  0.56346877535E+02  0.00000000000E+00 0.  1.
         23    2    1    2    0    0  0.12259230129E+02  0.22259918597E+02  0.31907903399E+02  0.97924883957E+02  0.89024580310E+02 0.  0.
         23    2    1    2    0    0 -0.61392813467E+02 -0.18038361981E+02  0.20754807292E+03  0.23551074969E+03  0.91074972412E+02 0.  0.
        -13    1    4    4    0    0 -0.32995728629E+02  0.28510321618E+02  0.15009829297E+03  0.15630436366E+03  0.00000000000E+00 0.  1.
         13    1    4    4    0    0 -0.28397084838E+02 -0.46548683600E+02  0.57449779950E+02  0.79206386033E+02  0.00000000000E+00 0. -1.
        -13    1    3    3    0    0 -0.36391502882E+02 -0.49159898734E+01  0.10123450139E+02  0.38091897841E+02  0.00000000000E+00 0. -1.
         13    1    3    3    0    0  0.48650733011E+02  0.27175908470E+02  0.21784453260E+02  0.59832986116E+02  0.00000000000E+00 0.  1.
         21    1    1    2  502  501  0.49133583338E+02 -0.42215566154E+01  0.55618847532E+02  0.74332945271E+02  0.00000000000E+00 0.  1.
<scales pt_clust_5="13000.00000" pt_clust_6="13000.00000" pt_clust_7="13000.00000" pt_clust_8="13000.00000" pt_clust_9="49.31461"></scales>
<clustering>
<clus scale="   49.315">  1  9  2 -1</clus>
<clus scale="   89.025">  7  8 -1 -1</clus>
<clus scale="   91.075">  5  6 -1 -1</clus>
<clus scale="   94.480">  2  7  1 -1</clus>
<clus scale="   49.315">  1  5  2 -1</clus>
</clustering>
</event>
<event>
 9    1  0.1803370E-005  0.1014692E+03  0.7546771E-02  0.1279706E+00
         -1   -1    0    0    0  501 -0.00000000000E+00  0.00000000000E+00  0.91842186942E+02  0.91842186942E+02  0.00000000000E+00 0.  1.
          1   -1    0    0  502    0  0.00000000000E+00 -0.00000000000E+00 -0.22521697393E+03  0.22521697393E+03  0.00000000000E+00 0. -1.
         23    2    1    2    0    0  0.21969769038E+02 -0.83604029384E+00  0.91449513277E+00  0.98823091207E+02  0.96342084986E+02 0.  0.
         23    2    1    2    0    0 -0.44074947252E+02  0.82491621159E+01 -0.22803692473E+02  0.10433861588E+03  0.91410550393E+02 0.  0.
        -11    1    3    3    0    0 -0.36639477139E+02 -0.11577588417E+02 -0.58004316514E+01  0.38860479229E+02  0.00000000000E+00 0.  1.
         11    1    3    3    0    0  0.58609246177E+02  0.10741548124E+02  0.67149267842E+01  0.59962611978E+02  0.00000000000E+00 0. -1.
        -11    1    4    4    0    0 -0.29237404114E+02 -0.16971597945E+02 -0.52631973019E+02  0.62553860952E+02  0.00000000000E+00 0. -1.
         11    1    4    4    0    0 -0.14837543137E+02  0.25220760061E+02  0.29828280546E+02  0.41784754932E+02  0.00000000000E+00 0.  1.
         21    1    1    2  502  501  0.22105178214E+02 -0.74131218220E+01 -0.11148558965E+03  0.11389745378E+03  0.00000000000E+00 0. -1.
<scales pt_clust_5="13000.00000" pt_clust_6="13000.00000" pt_clust_7="13000.00000" pt_clust_8="13000.00000" pt_clust_9="23.31509"></scales>
<clustering>
<clus scale="   23.315">  2  9  1 -1</clus>
<clus scale="   91.411">  7  8 -1 -1</clus>
<clus scale="   96.342">  5  6 -1 -1</clus>
<clus scale="   96.799">  2  7  1 -1</clus>
<clus scale="   23.315">  2  5  1 -1</clus>
</clustering>
</event>
<event>
 9    1  0.1803370E-005  0.1215708E+03  0.7546771E-02  0.1241045E+00
          2   -1    0    0  502    0  0.00000000000E+00  0.00000000000E+00  0.85892986789E+03  0.85892986789E+03  0.00000000000E+00 0. -1.
         -2   -1    0    0    0  501 -0.00000000000E+00 -0.00000000000E+00 -0.42229002464E+02  0.42229002464E+02  0.00000000000E+00 0.  1.
         23    2    1    2    0    0  0.53345740643E+02 -0.12062451934E+02  0.18319747286E+03  0.21199968659E+03  0.91603942395E+02 0.  0.
         23    2    1    2    0    0 -0.70681955738E+02  0.87177505588E+02  0.19297336249E+03  0.24193494131E+03  0.93262751657E+02 0.  0.
        -11    1    3    3    0    0  0.16666105785E+02 -0.49696239912E+02  0.11044567727E+03  0.12225270128E+03  0.00000000000E+00 0. -1.
         11    1    3    3    0    0  0.36679634858E+02  0.37633787977E+02  0.72751795588E+02  0.89746985310E+02  0.00000000000E+00 0.  1.
        -11    1    4    4    0    0  0.59521395707E+01  0.58241678900E+02  0.11398153552E+03  0.12813786156E+03  0.00000000000E+00 0.  1.
         11    1    4    4    0    0 -0.76634095309E+02  0.28935826688E+02  0.78991826972E+02  0.11379707974E+03  0.00000000000E+00 0. -1.
         21    1    1    2  502  501  0.17336215095E+02 -0.75115053654E+02  0.44053003008E+03  0.44722424246E+03  0.00000000000E+00 0. -1.
<scales pt_clust_5="13000.00000" pt_clust_6="13000.00000" pt_clust_7="13000.00000" pt_clust_8="13000.00000" pt_clust_9="77.08966"></scales>
<clustering>
<clus scale="   77.090">  1  9  2 -1</clus>
<clus scale="   91.604">  5  6 -1 -1</clus>
<clus scale="   93.263">  7  8 -1 -1</clus>
<clus scale="  120.303">  2  5  1 -1</clus>
<clus scale="   77.090">  1  5  2 -1</clus>
</clustering>
</event>
<event>
 9    1  0.1803370E-005  0.9933270E+02  0.7546771E-02  0.1282986E+00
         -2   -1    0    0    0  501 -0.00000000000E+00  0.00000000000E+00  0.72504442952E+02  0.72504442952E+02  0.00000000000E+00 0.  1.
          2   -1    0    0  502    0  0.00000000000E+00 -0.00000000000E+00 -0.29860552563E+03  0.29860552563E+03  0.00000000000E+00 0. -1.
         23    2    1    2    0    0 -0.12150646897E+02 -0.19391719687E+02 -0.23817298788E+02  0.97538002456E+02  0.91775384440E+02 0.  0.
         23    2    1    2    0    0 -0.82926877173E+01  0.70842425159E+02 -0.80288988571E+02  0.13960243560E+03  0.89191369922E+02 0.  0.
        -13    1    4    4    0    0  0.35506640436E+02  0.67511652375E+01 -0.31276886406E+02  0.47796897079E+02  0.00000000000E+00 0.  1.
         13    1    4    4    0    0 -0.43799328154E+02  0.64091259921E+02 -0.49012102165E+02  0.91805538524E+02  0.00000000000E+00 0. -1.
        -13    1    3    3    0    0  0.30944624144E+02 -0.13468823467E+02  0.17085970461E+02  0.37827362525E+02  0.00000000000E+00 0.  1.
         13    1    3    3    0    0 -0.43095271041E+02 -0.59228962200E+01 -0.40903269249E+02  0.59710639931E+02  0.00000000000E+00 0. -1.
         21    1    1    2  502  501  0.20443334614E+02 -0.51450705472E+02 -0.12199479532E+03  0.13396953053E+03  0.00000000000E+00 0.  1.
<scales pt_clust_5="13000.00000" pt_clust_6="13000.00000" pt_clust_7="13000.00000" pt_clust_8="13000.00000" pt_clust_9="55.36339"></scales>
<clustering>
<clus scale="   55.363">  2  9  1 -1</clus>
<clus scale="   89.191">  5  6 -1 -1</clus>
<clus scale="   91.775">  7  8 -1 -1</clus>
<clus scale="   96.950">  2  5  1 -1</clus>
<clus scale="   55.363">  2  5  1 -1</clus>
</clustering>
</event>
<event>
 9    1  0.1803370E-005  0.1475173E+03  0.7546771E-02  0.1204186E+00
          1   -1    0    0  502    0  0.00000000000E+00  0.00000000000E+00  0.19118019542E+03  0.19118019542E+03  0.00000000000E+00 0. -1.
         -1   -1    0    0    0  501 -0.00000000000E+00 -0.00000000000E+00 -0.62919380173E+03  0.62919380173E+03  0.00000000000E+00 0.  1.
         23    2    1    2    0    0 -0.95217670494E+02 -0.59981521531E+02 -0.48918985699E+03  0.50959240868E+03  0.87826642316E+02 0.  0.
         23    2    1    2    0    0  0.10188095776E+03  0.88825331724E+02 -0.76263134669E+02  0.17994901715E+03  0.91081907936E+02 0.  0.
        -11    1    3    3    0    0 -0.45438881306E+02 -0.72643246292E+02 -0.23184416794E+03  0.24717089508E+03  0.00000000000E+00 0.  1.
         11    1    3    3    0    0 -0.49778789188E+02  0.12661724761E+02 -0.25734568905E+03  0.26242151360E+03  0.00000000000E+00 0. -1.
        -13    1    4    4    0    0 -0.26800189117E+00  0.32091392309E+02 -0.51228252906E+02  0.60450501910E+02  0.00000000000E+00 0.  1.
         13    1    4    4    0    0  0.10214895965E+03  0.56733939415E+02 -0.25034881763E+02  0.11949851524E+03  0.00000000000E+00 0. -1.
         21    1    1    2  502  501 -0.66632872654E+01 -0.28843810193E+02  0.12743938534E+03  0.13083257132E+03  0.00000000000E+00 0. -1.
<scales pt_clust_5="13000.00000" pt_clust_6="13000.00000" pt_clust_7="13000.00000" pt_clust_8="13000.00000" pt_clust_9="29.60346"></scales>
<clustering>
<clus scale="   29.603">  1  9  2 -1</clus>
<clus scale="   87.827">  5  6 -1 -1</clus>
<clus scale="   91.082">  7  8 -1 -1</clus>
<clus scale="  145.530">  2  5  1 -1</clus>
<clus scale="   29.603">  1  5  2 -1</clus>
</clustering>
</event>
<event>
 9    1  0.1803370E-005  0.1631264E+03  0.7546771E-02  0.1185556E+00
         -1   -1    0    0    0  501 -0.00000000000E+00  0.00000000000E+00  0.19529706926E+03  0.19529706926E+03  0.00000000000E+00 0.  1.
          1   -1    0    0  502    0  0.00000000000E+00 -0.00000000000E+00 -0.26105802734E+03  0.26105802734E+03  0.00000000000E+00 0. -1.
         23    2    1    2    0    0  0.14661966470E+03  0.10267216437E+02  0.43976840288E+02  0.17770719816E+03  0.89683577009E+02 0.  0.
         23    2    1    2    0    0 -0.12146232292E+03 -0.11172916555E+02  0.13068298713E+02  0.15328821744E+03  0.91916087943E+02 0.  0.
        -11    1    3    3    0    0  0.53107872499E+02 -0.28795660451E+02 -0.12497252154E+02  0.61691308088E+02  0.00000000000E+00 0. -1.
         11    1    3    3    0    0  0.93511792201E+02  0.39062876888E+02  0.56474092442E+02  0.11601589007E+03  0.00000000000E+00 0.  1.
        -13    1    4    4    0    0 -0.56545285259E+02 -0.47031322959E+02 -0.12979520044E+02  0.74684553723E+02  0.00000000000E+00 0. -1.
         13    1    4    4    0    0 -0.64917037660E+02  0.35858406403E+02  0.26047818758E+02  0.78603663721E+02  0.00000000000E+00 0.  1.
         21    1    1    2  502  501 -0.25157341781E+02  0.90570011823E+00 -0.12280609708E+03  0.12535968100E+03  0.00000000000E+00 0. -1.
<scales pt_clust_5="13000.00000" pt_clust_6="13000.00000" pt_clust_7="13000.00000" pt_clust_8="13000.00000" pt_clust_9="25.17364"></scales>
<clustering>
<clus scale="   25.174">  2  9  1 -1</clus>
<clus scale="   89.684">  5  6 -1 -1</clus>
<clus scale="   91.916">  7  8 -1 -1</clus>
<clus scale="  161.879">  1  5  2 -1</clus>
<clus scale="   25.174">  2  5  1 -1</clus>
</clustering>
</event>
<event>
 9    1  0.1803370E-005  0.1025468E+03  0.7546771E-02  0.1275156E+00
         -1   -1    0    0    0  501 -0.00000000000E+00  0.00000000000E+00  0.93751756280E+02  0.93751756280E+02  0.00000000000E+00 0.  1.
          1   -1    0    0  502    0  0.00000000000E+00 -0.00000000000E+00 -0.17403340182E+03  0.17403340182E+03  0.00000000000E+00 0. -1.
         23    2    1    2    0    0  0.40020895460E+01  0.29695303123E+02 -0.18635042857E+02  0.97465779722E+02  0.90854199937E+02 0.  0.
         23    2    1    2    0    0  0.68886906768E+00 -0.72030626199E+02 -0.44152410784E+02  0.12427232176E+03  0.91133357927E+02 0.  0.
        -11    1    3    3    0    0 -0.15686358665E+01 -0.25869210099E+02 -0.30861190132E+02  0.40299996352E+02  0.00000000000E+00 0.  1.
         11    1    3    3    0    0  0.55707254125E+01  0.55564513221E+02  0.12226147275E+02  0.57165783370E+02  0.00000000000E+00 0. -1.
        -11    1    4    4    0    0 -0.25020818409E+02 -0.83983686286E+02 -0.36300542031E+02  0.94852676651E+02  0.00000000000E+00 0.  1.
         11    1    4    4    0    0  0.25709687477E+02  0.11953060087E+02 -0.78518687534E+01  0.29419645112E+02  0.00000000000E+00 0. -1.
         21    1    1    2  502  501 -0.46909586137E+01  0.42335323076E+02 -0.17494191899E+02  0.46047056615E+02  0.00000000000E+00 0.  1.
<scales pt_clust_5="13000.00000" pt_clust_6="13000.00000" pt_clust_7="13000.00000" pt_clust_8="13000.00000" pt_clust_9="42.59442"></scales>
<clustering>
<clus scale="   42.594">  2  9  1 -1</clus>
<clus scale="   90.854">  5  6 -1 -1</clus>
<clus scale="   91.133">  7  8 -1 -1</clus>
<clus scale="  102.299">  1  5  2 -1</clus>
<clus scale="   42.594">  2  5  1 -1</clus>
</clustering>
</event>
<event>
 9    1  0.1803370E-005  0.1188527E+03  0.7546771E-02  0.1246162E+00
          3   -1    0    0  502    0  0.00000000000E+00  0.00000000000E+00  0.14686827412E+03  0.14686827412E+03  0.00000000000E+00 0. -1.
         -3   -1    0    0    0  501 -0.00000000000E+00 -0.00000000000E+00 -0.13878622530E+03  0.13878622530E+03  0.00000000000E+00 0.  1.
         23    2    1    2    0    0 -0.19545393543E+02 -0.69085599852E+02 -0.50409512960E+02  0.12543480561E+03  0.89654497632E+02 0.  0.
         23    2    1    2    0    0 -0.13273337836E+01  0.80467530289E+02  0.38053974219E+02  0.12886823337E+03  0.93177955393E+02 0.  0.
        -11    1    3    3    0    0  0.33198178572E+02 -0.42903246885E+02 -0.13374840842E+02  0.55872122041E+02  0.00000000000E+00 0.  1.
         11    1    3    3    0    0 -0.52743572115E+02 -0.26182352966E+02 -0.37034672117E+02  0.69562683568E+02  0.00000000000E+00 0. -1.
        -11    1    4    4    0    0  0.45298521554E+02  0.29587403493E+02  0.17214850889E+02  0.56777826584E+02  0.00000000000E+00 0.  1.
         11    1    4    4    0    0 -0.46625855338E+02  0.50880126796E+02  0.20839123329E+02  0.72090406781E+02  0.00000000000E+00 0. -1.
         21    1    1    2  502  501  0.20872727326E+02 -0.11381930437E+02  0.20437587565E+02  0.31351460444E+02  0.00000000000E+00 0.  1.
<scales pt_clust_5="13000.00000" pt_clust_6="13000.00000" pt_clust_7="13000.00000" pt_clust_8="13000.00000" pt_clust_9="23.77434"></scales>
<clustering>
<clus scale="   23.774">  1  9  2 -1</clus>
<clus scale="   89.654">  5  6 -1 -1</clus>
<clus scale="   93.178">  7  8 -1 -1</clus>
<clus scale="  116.111">  2  5  1 -1</clus>
<clus scale="   23.774">  1  5  2 -1</clus>
</clustering>
</event>
<event>
 9    1  0.1803370E-005  0.1091988E+03  0.7546771E-02  0.1268872E+00
         -3   -1    0    0    0  501 -0.00000000000E+00  0.00000000000E+00  0.56496369316E+02  0.56496369316E+02  0.00000000000E+00 0.  1.
          3   -1    0    0  502    0  0.00000000000E+00 -0.00000000000E+00 -0.24583803679E+03  0.24583803679E+03  0.00000000000E+00 0. -1.
         23    2    1    2    0    0  0.11739856529E+02  0.11507254016E+02 -0.45238306850E+02  0.10303645867E+03  0.91103053088E+02 0.  0.
         23    2    1    2    0    0 -0.24021646740E+02 -0.29275832058E+02 -0.13631142110E+03  0.17633538970E+03  0.10525802717E+03 0.  0.
        -11    1    3    3    0    0  0.48128753409E+02  0.14470182995E+02 -0.80058445821E+01  0.50890634188E+02  0.00000000000E+00 0.  1.
         11    1    3    3    0    0 -0.36388896880E+02 -0.29629289786E+01 -0.37232462268E+02  0.52145824481E+02  0.00000000000E+00 0. -1.
        -13    1    4    4    0    0 -0.32642862747E+02 -0.61255225421E+02 -0.12176926892E+03  0.14016245569E+03  0.00000000000E+00 0. -1.
         13    1    4    4    0    0  0.86212160072E+01  0.31979393363E+02 -0.14542152180E+02  0.36172934016E+02  0.00000000000E+00 0.  1.
         21    1    1    2  502  501  0.12281790211E+02  0.17768578042E+02 -0.77919395241E+01  0.22962557740E+02  0.00000000000E+00 0.  1.
<scales pt_clust_5="13000.00000" pt_clust_6="13000.00000" pt_clust_7="13000.00000" pt_clust_8="13000.00000" pt_clust_9="21.60011"></scales>
<clustering>
<clus scale="   21.600">  1  9  2 -1</clus>
<clus scale="   91.103">  5  6 -1 -1</clus>
<clus scale="   95.629">  1  5  2 -1</clus>
<clus scale="  105.258">  7  8 -1 -1</clus>
<clus scale="  109.199">  2  5  1 -1</clus>
</clustering>
</event>
<event>
 9    1  0.1803370E-005  0.1011212E+03  0.7546771E-02  0.1280666E+00
          1   -1    0    0  502    0  0.00000000000E+00  0.00000000000E+00  0.78868028355E+02  0.78868028355E+02  0.00000000000E+00 0. -1.
         -1   -1    0    0    0  501 -0.00000000000E+00 -0.00000000000E+00 -0.21433108492E+03  0.21433108492E+03  0.00000000000E+00 0.  1.
         23    2    1    2    0    0 -0.46139110907E+02 -0.26636016958E+02 -0.13633507834E+03  0.16867341070E+03  0.83816292796E+02 0.  0.
         23    2    1    2    0    0  0.27925170233E+02  0.13732709186E+02 -0.16453983614E+02  0.96269137857E+02  0.89602516108E+02 0.  0.
        -11    1    4    4    0    0 -0.19406929480E+02 -0.21372072171E+02 -0.23090688527E+02  0.36967205431E+02  0.00000000000E+00 0. -1.
         11    1    4    4    0    0  0.47332099713E+02  0.35104781357E+02  0.66367049133E+01  0.59301932427E+02  0.00000000000E+00 0.  1.
        -13    1    3    3    0    0 -0.56441821578E+02  0.22080941582E+01 -0.44630661953E+02  0.71989241482E+02  0.00000000000E+00 0.  1.
         13    1    3    3    0    0  0.10302710671E+02 -0.28844111116E+02 -0.91704416388E+02  0.96684169223E+02  0.00000000000E+00 0. -1.
         21    1    1    2  502  501  0.18213940674E+02  0.12903307772E+02  0.17326005393E+02  0.28256564710E+02  0.00000000000E+00 0.  1.
<scales pt_clust_5="13000.00000" pt_clust_6="13000.00000" pt_clust_7="13000.00000" pt_clust_8="13000.00000" pt_clust_9="22.32136"></scales>
<clustering>
<clus scale="   22.321">  1  9  2 -1</clus>
<clus scale="   83.816">  7  8 -1 -1</clus>
<clus scale="   89.603">  5  6 -1 -1</clus>
<clus scale="   96.032">  2  7  1 -1</clus>
<clus scale="   22.321">  1  5  2 -1</clus>
</clustering>
</event>
<event>
 9    1  0.4625779E-005  0.9560133E+02  0.7546771E-02  0.1292350E+00
         -1   -1    0    0    0  501 -0.00000000000E+00  0.00000000000E+00  0.79465892575E+02  0.79465892575E+02  0.00000000000E+00 0.  1.
          1   -1    0    0  502    0  0.00000000000E+00 -0.00000000000E+00 -0.55706611559E+03  0.55706611559E+03  0.00000000000E+00 0. -1.
         23    2    1    2    0    0 -0.15176356115E+02 -0.21766868446E+02  0.39920995436E+02  0.10325532646E+03  0.91454131773E+02 0.  0.
         23    2    1    2    0    0  0.41455880658E+02  0.27188980061E+02 -0.44075767744E+03  0.45195845538E+03  0.86840569370E+02 0.  0.
        -11    1    4    4    0    0 -0.20360659113E+02 -0.99471162329E+01 -0.54443369748E+02  0.58971027381E+02  0.00000000000E+00 0.  1.
         11    1    4    4    0    0  0.61816539770E+02  0.37136096294E+02 -0.38631430769E+03  0.39298742800E+03  0.00000000000E+00 0. -1.
        -13    1    3    3    0    0 -0.43902856418E+02  0.12634422083E+02  0.36190172633E+02  0.58282227293E+02  0.00000000000E+00 0.  1.
         13    1    3    3    0    0  0.28726500303E+02 -0.34401290528E+02  0.37308228032E+01  0.44973099165E+02  0.00000000000E+00 0. -1.
         21    1    1    2  502  501 -0.26279524543E+02 -0.54221116151E+01 -0.76763541009E+02  0.81318226326E+02  0.00000000000E+00 0.  1.
<scales pt_clust_5="13000.00000" pt_clust_6="13000.00000" pt_clust_7="13000.00000" pt_clust_8="13000.00000" pt_clust_9="26.83305"></scales>
<clustering>
<clus scale="   26.833">  2  9  1 -1</clus>
<clus scale="   86.841">  5  6 -1 -1</clus>
<clus scale="   91.198">  2  5  1 -1</clus>
<clus scale="   91.454">  7  8 -1 -1</clus>
<clus scale="   26.833">  2  5  1 -1</clus>
</clustering>
</event>
<event>
 9    1  0.1803370E-005  0.1011388E+03  0.7546771E-02  0.1278924E+00
          1   -1    0    0  502    0  0.00000000000E+00  0.00000000000E+00  0.18019699862E+03  0.18019699862E+03  0.00000000000E+00 0. -1.
         -1   -1    0    0    0  501 -0.00000000000E+00 -0.00000000000E+00 -0.12022018570E+03  0.12022018570E+03  0.00000000000E+00 0.  1.
         23    2    1    2    0    0 -0.47944332959E+00 -0.35597867826E+02  0.19102689452E+01  0.10019225956E+03  0.93634404404E+02 0.  0.
         23    2    1    2    0    0  0.58132567737E+02 -0.22968295486E+01  0.30946434386E+01  0.11201040957E+03  0.95666525888E+02 0.  0.
        -11    1    3    3    0    0  0.15112924405E+02 -0.63732813073E+02  0.11768090351E+02  0.66548928592E+02  0.00000000000E+00 0.  1.
         11    1    3    3    0    0 -0.15592367735E+02  0.28134945246E+02 -0.98578214054E+01  0.33643330965E+02  0.00000000000E+00 0. -1.
        -11    1    4    4    0    0 -0.15093367285E+02 -0.28912842788E+02 -0.72561242495E+01  0.33412775299E+02  0.00000000000E+00 0.  1.
         11    1    4    4    0    0  0.73225935022E+02  0.26616013239E+02  0.10350767688E+02  0.78597634267E+02  0.00000000000E+00 0. -1.
         21    1    1    2  502  501 -0.57653124407E+02  0.37894697375E+02  0.54971900535E+02  0.88214515197E+02  0.00000000000E+00 0. -1.
<scales pt_clust_5="13000.00000" pt_clust_6="13000.00000" pt_clust_7="13000.00000" pt_clust_8="13000.00000" pt_clust_9="68.99196"></scales>
<clustering>
<clus scale="   68.992">  1  9  2 -1</clus>
<clus scale="   93.634">  5  6 -1 -1</clus>
<clus scale="   95.667">  7  8 -1 -1</clus>
<clus scale="   99.219">  2  5  1 -1</clus>
<clus scale="   68.992">  1  5  2 -1</clus>
</clustering>
</event>
<event>
 9    1  0.1803370E-005  0.1160565E+03  0.7546771E-02  0.1250739E+00
          1   -1    0    0  502    0  0.00000000000E+00  0.00000000000E+00  0.80391477657E+03  0.80391477657E+03  0.00000000000E+00 0. -1.
         -1   -1    0    0    0  501 -0.00000000000E+00 -0.00000000000E+00 -0.22464339753E+02  0.22464339753E+02  0.00000000000E+00 0.  1.
         23    2    1    2    0    0 -0.71494091142E+02 -0.14257602687E+02  0.22781885732E+03  0.25639649953E+03  0.92320360259E+02 0.  0.
         23    2    1    2    0    0  0.51311276294E+02  0.23742676808E+02  0.41164904098E+03  0.42625943185E+03  0.95108404063E+02 0.  0.
        -11    1    4    4    0    0 -0.25762338531E+02  0.17338629706E+02  0.16032885178E+03  0.16330850217E+03  0.00000000000E+00 0.  1.
         11    1    4    4    0    0  0.77073614825E+02  0.64040471022E+01  0.25132018920E+03  0.26295092968E+03  0.00000000000E+00 0. -1.
        -13    1    3    3    0    0  0.20264338595E+02  0.10127189106E+02  0.41407490229E+02  0.47199402802E+02  0.00000000000E+00 0. -1.
         13    1    3    3    0    0 -0.91758429737E+02 -0.24384791793E+02  0.18641136709E+03  0.20919709672E+03  0.00000000000E+00 0.  1.
         21    1    1    2  502  501  0.20182814848E+02 -0.94850741214E+01  0.14198253852E+03  0.14372318495E+03  0.00000000000E+00 0. -1.
<scales pt_clust_5="13000.00000" pt_clust_6="13000.00000" pt_clust_7="13000.00000" pt_clust_8="13000.00000" pt_clust_9="22.30051"></scales>
<clustering>
<clus scale="   22.301">  1  9  2 -1</clus>
<clus scale="   92.320">  7  8 -1 -1</clus>
<clus scale="   95.108">  5  6 -1 -1</clus>
<clus scale="  113.783">  2  7  1 -1</clus>
<clus scale="   22.301">  1  5  2 -1</clus>
</clustering>
</event>
<event>
 9    1  0.1803370E-005  0.1238268E+03  0.7546771E-02  0.1237370E+00
         -1   -1    0    0    0  501 -0.00000000000E+00  0.00000000000E+00  0.35547789851E+02  0.35547789851E+02  0.00000000000E+00 0.  1.
          1   -1    0    0  502    0  0.00000000000E+00 -0.00000000000E+00 -0.72804097673E+03  0.72804097673E+03  0.00000000000E+00 0. -1.
         23    2    1    2    0    0 -0.28485987298E+02  0.71228429398E+02 -0.14105290061E+03  0.18460585216E+03  0.91095879460E+02 0.  0.
         23    2    1    2    0    0  0.62515860072E+02 -0.74960269088E+02 -0.35635178082E+03  0.38091352297E+03  0.92635012767E+02 0.  0.
        -11    1    4    4    0    0  0.46330008016E+02 -0.93498863695E+02 -0.23551724871E+03  0.25759829502E+03  0.00000000000E+00 0. -1.
         11    1    4    4    0    0  0.16185852056E+02  0.18538594607E+02 -0.12083453211E+03  0.12331522796E+03  0.00000000000E+00 0.  1.
        -13    1    3    3    0    0  0.14617617161E+02 -0.15652495155E+02 -0.18357224166E+02  0.28207499271E+02  0.00000000000E+00 0. -1.
         13    1    3    3    0    0 -0.43103604458E+02  0.86880924553E+02 -0.12269567645E+03  0.15639835289E+03  0.00000000000E+00 0.  1.
         21    1    1    2  502  501 -0.34029872774E+02  0.37318396898E+01 -0.19508850545E+03  0.19806939145E+03  0.00000000000E+00 0. -1.
<scales pt_clust_5="13000.00000" pt_clust_6="13000.00000" pt_clust_7="13000.00000" pt_clust_8="13000.00000" pt_clust_9="34.23388"></scales>
<clustering>
<clus scale="   34.234">  2  9  1 -1</clus>
<clus scale="   91.096">  7  8 -1 -1</clus>
<clus scale="   92.635">  5  6 -1 -1</clus>
<clus scale="  122.680">  1  7  2 -1</clus>
<clus scale="   34.234">  2  5  1 -1</clus>
</clustering>
</event>
<event>
 9    1  0.1803370E-005  0.1300235E+03  0.7546771E-02  0.1228416E+00
          2   -1    0    0  502    0  0.00000000000E+00  0.00000000000E+00  0.72538094021E+02  0.72538094021E+02  0.00000000000E+00 0. -1.
         -2   -1    0    0    0  501 -0.00000000000E+00 -0.00000000000E+00 -0.33810047670E+03  0.33810047670E+03  0.00000000000E+00 0.  1.
         23    2    1    2    0    0 -0.14268658260E+02  0.98000707396E+02 -0.22862873294E+03  0.26549759673E+03  0.91706832258E+02 0.  0.
         23    2    1    2    0    0  0.13636062880E+02 -0.75169402114E+02 -0.37321366912E+02  0.12229761604E+03  0.87905865770E+02 0.  0.
        -11    1    4    4    0    0  0.16029351939E+02 -0.33038492490E+02 -0.62984707163E+02  0.72907855859E+02  0.00000000000E+00 0.  1.
         11    1    4    4    0    0 -0.23932890593E+01 -0.42130909625E+02  0.25663340251E+02  0.49389760185E+02  0.00000000000E+00 0. -1.
        -11    1    3    3    0    0 -0.43112043552E+02  0.12765826680E+02 -0.78756458685E+02  0.90687344292E+02  0.00000000000E+00 0. -1.
         11    1    3    3    0    0  0.28843385292E+02  0.85234880716E+02 -0.14987227425E+03  0.17481025243E+03  0.00000000000E+00 0.  1.
         21    1    1    2  502  501  0.63259538029E+00 -0.22831305282E+02  0.38771717459E+00  0.22843357949E+02  0.00000000000E+00 0. -1.
<scales pt_clust_5="13000.00000" pt_clust_6="13000.00000" pt_clust_7="13000.00000" pt_clust_8="13000.00000" pt_clust_9="22.84007"></scales>
<clustering>
<clus scale="   22.840">  1  9  2 -1</clus>
<clus scale="   87.906">  5  6 -1 -1</clus>
<clus scale="   91.707">  7  8 -1 -1</clus>
<clus scale="  127.371">  1  5  2 -1</clus>
<clus scale="   22.840">  1  5  2 -1</clus>
</clustering>
</event>
<event>
 9    1  0.1803370E-005  0.1287812E+03  0.7546771E-02  0.1247896E+00
          1   -1    0    0  502    0  0.00000000000E+00  0.00000000000E+00  0.23434837899E+03  0.23434837899E+03  0.00000000000E+00 0. -1.
         -1   -1    0    0    0  501 -0.00000000000E+00 -0.00000000000E+00 -0.14302736639E+03  0.14302736639E+03  0.00000000000E+00 0.  1.
         23    2    1    2    0    0 -0.24121745188E+02 -0.77364553412E+01 -0.50199406396E+02  0.10144126627E+03  0.84431266533E+02 0.  0.
         23    2    1    2    0    0 -0.40923827456E+02  0.78082124448E+02  0.29665556711E+02  0.12865600174E+03  0.88886127802E+02 0.  0.
        -11    1    3    3    0    0 -0.35767255987E+02 -0.40101206133E+02 -0.31629004394E+02  0.62352203274E+02  0.00000000000E+00 0. -1.
         11    1    3    3    0    0  0.11645510799E+02  0.32364750792E+02 -0.18570402002E+02  0.39089062999E+02  0.00000000000E+00 0.  1.
        -13    1    4    4    0    0 -0.68271293721E+02  0.67054971237E+02  0.22052641126E+02  0.98202126732E+02  0.00000000000E+00 0.  1.
         13    1    4    4    0    0  0.27347466265E+02  0.11027153211E+02  0.76129155851E+01  0.30453875004E+02  0.00000000000E+00 0. -1.
         21    1    1    2  502  501  0.65045572645E+02 -0.70345669107E+02  0.11185486228E+03  0.14727847738E+03  0.00000000000E+00 0. -1.
<scales pt_clust_5="13000.00000" pt_clust_6="13000.00000" pt_clust_7="13000.00000" pt_clust_8="13000.00000" pt_clust_9="93.18724"></scales>
<clustering>
<clus scale="   84.431">  5  6 -1 -1</clus>
<clus scale="   88.150">  2  5  1 -1</clus>
<clus scale="   88.886">  7  8 -1 -1</clus>
<clus scale="   93.187">  1  9  2 -1</clus>
<clus scale="   93.187">  1  5  2 -1</clus>
</clustering>
</event>
<event>
 9    1  0.1803370E-005  0.1234765E+03  0.7546771E-02  0.1237749E+00
         -1   -1    0    0    0  501 -0.00000000000E+00  0.00000000000E+00  0.20877227514E+03  0.20877227514E+03  0.00000000000E+00 0.  1.
          1   -1    0    0  502    0  0.00000000000E+00 -0.00000000000E+00 -0.23158571706E+03  0.23158571706E+03  0.00000000000E+00 0. -1.
         23    2    1    2    0    0 -0.67805151260E+02  0.52948241112E+02  0.16238627525E+03  0.20499630312E+03  0.90846723263E+02 0.  0.
         23    2    1    2    0    0  0.44500868133E+02 -0.29474271669E+02 -0.16617553194E+03  0.19720364304E+03  0.91792752763E+02 0.  0.
        -13    1    4    4    0    0 -0.20858985342E+02 -0.26623587644E+02 -0.93450032824E+02  0.99382198222E+02  0.00000000000E+00 0.  1.
         13    1    4    4    0    0  0.65359853476E+02 -0.28506840250E+01 -0.72725499115E+02  0.97821444823E+02  0.00000000000E+00 0. -1.
        -13    1    3    3    0    0 -0.13917758812E+02 -0.26015960348E+02  0.39546913556E+02  0.49340577368E+02  0.00000000000E+00 0. -1.
         13    1    3    3    0    0 -0.53887392448E+02  0.78964201460E+02  0.12283936170E+03  0.15565572575E+03  0.00000000000E+00 0.  1.
         21    1    1    2  502  501  0.23304283126E+02 -0.23473969443E+02 -0.19024185230E+02  0.38158046034E+02  0.00000000000E+00 0. -1.
<scales pt_clust_5="13000.00000" pt_clust_6="13000.00000" pt_clust_7="13000.00000" pt_clust_8="13000.00000" pt_clust_9="33.07744"></scales>
<clustering>
<clus scale="   33.077">  2  9  1 -1</clus>
<clus scale="   90.847">  7  8 -1 -1</clus>
<clus scale="   91.793">  5  6 -1 -1</clus>
<clus scale="  122.775">  1  7  2 -1</clus>
<clus scale="   33.077">  2  5  1 -1</clus>
</clustering>
</event>
<event>
 9    1  0.1803370E-005  0.1293771E+03  0.7546771E-02  0.1232324E+00
         -1   -1    0    0    0  501 -0.00000000000E+00  0.00000000000E+00  0.22697929949E+03  0.22697929949E+03  0.00000000000E+00 0.  1.
          1   -1    0    0  502    0  0.00000000000E+00 -0.00000000000E+00 -0.25089269085E+03  0.25089269085E+03  0.00000000000E+00 0. -1.
         23    2    1    2    0    0  0.33826252844E+02 -0.96340767472E+02  0.11328628764E+03  0.16984412701E+03  0.74749485975E+02 0.  0.
         23    2    1    2    0    0 -0.40541730592E+01  0.80884566988E+02  0.40131676967E+02  0.12755160263E+03  0.90000613004E+02 0.  0.
        -11    1    3    3    0    0 -0.13264633145E+02 -0.72605086865E+02  0.65598685309E+02  0.98745312017E+02  0.00000000000E+00 0.  1.
         11    1    3    3    0    0  0.47090885989E+02 -0.23735680608E+02  0.47687602334E+02  0.71098814994E+02  0.00000000000E+00 0. -1.
        -11    1    4    4    0    0 -0.15218625880E+02  0.33006025039E+02  0.63462602419E+02  0.73133481856E+02  0.00000000000E+00 0.  1.
         11    1    4    4    0    0  0.11164452821E+02  0.47878541950E+02 -0.23330925453E+02  0.54418120773E+02  0.00000000000E+00 0. -1.
         21    1    1    2  502  501 -0.29772079784E+02  0.15456200484E+02 -0.17733135596E+03  0.18047626070E+03  0.00000000000E+00 0. -1.
<scales pt_clust_5="13000.00000" pt_clust_6="13000.00000" pt_clust_7="13000.00000" pt_clust_8="13000.00000" pt_clust_9="33.54506"></scales>
<clustering>
<clus scale="   33.545">  2  9  1 -1</clus>
<clus scale="   74.749">  5  6 -1 -1</clus>
<clus scale="   90.001">  7  8 -1 -1</clus>
<clus scale="  119.272">  1  5  2 -1</clus>
<clus scale="   33.545">  2  5  1 -1</clus>
</clustering>
</event>
<event>
 9    1  0.1803370E-005  0.1127670E+03  0.7546771E-02  0.1256640E+00
          1   -1    0    0  502    0  0.00000000000E+00  0.00000000000E+00  0.58342781492E+03  0.58342781492E+03  0.00000000000E+00 0. -1.
         -1   -1    0    0    0  501 -0.00000000000E+00 -0.00000000000E+00 -0.39933873875E+02  0.39933873875E+02  0.00000000000E+00 0.  1.
         23    2    1    2    0    0  0.22674088813E+02  0.52467766016E+02  0.99675002740E+02  0.14713284256E+03  0.91902047938E+02 0.  0.
         23    2    1    2    0    0 -0.52610320627E+02 -0.49124748620E+02  0.21781889720E+03  0.24823022273E+03  0.94826603517E+02 0.  0.
        -11    1    4    4    0    0 -0.43639066710E+01 -0.23080855161E+02 -0.13087651696E+00  0.23490140167E+02  0.00000000000E+00 0.  1.
         11    1    4    4    0    0 -0.48246413956E+02 -0.26043893459E+02  0.21794977372E+03  0.22474008256E+03  0.00000000000E+00 0. -1.
        -13    1    3    3    0    0  0.58146535750E+02  0.36204913038E+02  0.71398612995E+02  0.98942292704E+02  0.00000000000E+00 0.  1.
         13    1    3    3    0    0 -0.35472446937E+02  0.16262852978E+02  0.28276389744E+02  0.48190549858E+02  0.00000000000E+00 0. -1.
         21    1    1    2  502  501  0.29936231814E+02 -0.33430173962E+01  0.22600004111E+03  0.22799862350E+03  0.00000000000E+00 0. -1.
<scales pt_clust_5="13000.00000" pt_clust_6="13000.00000" pt_clust_7="13000.00000" pt_clust_8="13000.00000" pt_clust_9="30.12231"></scales>
<clustering>
<clus scale="   30.122">  1  9  2 -1</clus>
<clus scale="   91.902">  7  8 -1 -1</clus>
<clus scale="   94.827">  5  6 -1 -1</clus>
<clus scale="  110.319">  2  7  1 -1</clus>
<clus scale="   30.122">  1  5  2 -1</clus>
</clustering>
</event>
<event>
 9    1  0.1803370E-005  0.9608671E+02  0.7546771E-02  0.1288911E+00
         -2   -1    0    0    0  501 -0.00000000000E+00  0.00000000000E+00  0.17708359436E+03  0.17708359436E+03  0.00000000000E+00 0.  1.
          2   -1    0    0  502    0  0.00000000000E+00 -0.00000000000E+00 -0.84409072183E+02  0.84409072183E+02  0.00000000000E+00 0. -1.
         23    2    1    2    0    0 -0.30326515736E+02 -0.21685875404E+01  0.95136401671E+02  0.13514221216E+03  0.91038905184E+02 0.  0.
         23    2    1    2    0    0  0.26735162767E+02 -0.23989529908E+02  0.67430113680E+01  0.98388427623E+02  0.91348497604E+02 0.  0.
        -11    1    3    3    0    0  0.18297299709E+02 -0.30544404002E+02  0.56777918143E+02  0.67018533117E+02  0.00000000000E+00 0.  1.
         11    1    3    3    0    0 -0.48623815446E+02  0.28375816461E+02  0.38358483529E+02  0.68123679048E+02  0.00000000000E+00 0. -1.
        -11    1    4    4    0    0 -0.20626657735E+02 -0.36747557102E+02 -0.15005990658E+02  0.44732781245E+02  0.00000000000E+00 0.  1.
         11    1    4    4    0    0  0.47361820502E+02  0.12758027195E+02  0.21749002026E+02  0.53655646378E+02  0.00000000000E+00 0. -1.
         21    1    1    2  502  501  0.35913529695E+01  0.26158117448E+02 -0.92048908604E+01  0.27962026756E+02  0.00000000000E+00 0. -1.
<scales pt_clust_5="13000.00000" pt_clust_6="13000.00000" pt_clust_7="13000.00000" pt_clust_8="13000.00000" pt_clust_9="26.40350"></scales>
<clustering>
<clus scale="   26.404">  2  9  1 -1</clus>
<clus scale="   91.039">  5  6 -1 -1</clus>
<clus scale="   91.348">  7  8 -1 -1</clus>
<clus scale="   95.792">  1  5  2 -1</clus>
<clus scale="   26.404">  2  5  1 -1</clus>
</clustering>
</event>
<event>
 9    1  0.1803370E-005  0.1932398E+03  0.7546771E-02  0.1155597E+00
         -1   -1    0    0    0  501 -0.00000000000E+00  0.00000000000E+00  0.29066016591E+03  0.29066016591E+03  0.00000000000E+00 0.  1.
          1   -1    0    0  502    0  0.00000000000E+00 -0.00000000000E+00 -0.17217423226E+03  0.17217423226E+03  0.00000000000E+00 0. -1.
         23    2    1    2    0    0 -0.12820207395E+03  0.10440057385E+03  0.79299830273E+02  0.20525881922E+03  0.92235937687E+02 0.  0.
         23    2    1    2    0    0  0.15041180104E+03 -0.90016930679E+02  0.75980794641E+02  0.21225438662E+03  0.92477487981E+02 0.  0.
        -11    1    4    4    0    0  0.13864658817E+03 -0.40281685099E+02  0.40217920397E+02  0.14987652147E+03  0.00000000000E+00 0.  1.
         11    1    4    4    0    0  0.11765212871E+02 -0.49735245580E+02  0.35762874244E+02  0.62377865152E+02  0.00000000000E+00 0. -1.
        -13    1    3    3    0    0 -0.10807106993E+03  0.83955467914E+02  0.10032717202E+03  0.16968623455E+03  0.00000000000E+00 0.  1.
         13    1    3    3    0    0 -0.20131004019E+02  0.20445105940E+02 -0.21027341746E+02  0.35572584677E+02  0.00000000000E+00 0. -1.
         21    1    1    2  502  501 -0.22209727093E+02 -0.14383643175E+02 -0.36794691261E+02  0.45321192322E+02  0.00000000000E+00 0. -1.
<scales pt_clust_5="13000.00000" pt_clust_6="13000.00000" pt_clust_7="13000.00000" pt_clust_8="13000.00000" pt_clust_9="26.46056"></scales>
<clustering>
<clus scale="   26.461">  2  9  1 -1</clus>
<clus scale="   92.236">  7  8 -1 -1</clus>
<clus scale="   92.477">  5  6 -1 -1</clus>
<clus scale="  193.124">  1  7  2 -1</clus>
<clus scale="   26.461">  2  5  1 -1</clus>
</clustering>
</event>
<event>
 9    1  0.1803370E-005  0.1817894E+03  0.7546771E-02  0.1192830E+00
         -2   -1    0    0    0  501 -0.00000000000E+00  0.00000000000E+00  0.12600493517E+03  0.12600493517E+03  0.00000000000E+00 0.  1.
          2   -1    0    0  502    0  0.00000000000E+00 -0.00000000000E+00 -0.45233404566E+03  0.45233404566E+03  0.00000000000E+00 0. -1.
         23    2    1    2    0    0  0.48175030804E+01  0.38925238267E+02  0.87129129446E+01  0.99958531305E+02  0.91528195757E+02 0.  0.
         23    2    1    2    0    0 -0.11346429366E+03 -0.13253025504E+03 -0.19112076015E+03  0.27520723698E+03  0.93666770480E+02 0.  0.
        -11    1    4    4    0    0 -0.36882933200E+02 -0.83231326152E+02 -0.41509708425E+02  0.10005428680E+03  0.00000000000E+00 0.  1.
         11    1    4    4    0    0 -0.76581360455E+02 -0.49298928893E+02 -0.14961105172E+03  0.17515295018E+03  0.00000000000E+00 0. -1.
        -13    1    3    3    0    0 -0.41115487871E+02  0.33861594213E+02  0.69258004727E+01  0.53712732362E+02  0.00000000000E+00 0. -1.
         13    1    3    3    0    0  0.45932990952E+02  0.50636440538E+01  0.17871124719E+01  0.46245798943E+02  0.00000000000E+00 0.  1.
         21    1    1    2  502  501  0.10864679058E+03  0.93605016778E+02 -0.14392126329E+03  0.20317321254E+03  0.00000000000E+00 0.  1.
<scales pt_clust_5="13000.00000" pt_clust_6="13000.00000" pt_clust_7="13000.00000" pt_clust_8="13000.00000" pt_clust_9="155.80094"></scales>
<clustering>
<clus scale="   91.528">  7  8 -1 -1</clus>
<clus scale="   93.667">  5  6 -1 -1</clus>
<clus scale="   99.578">  1  7  2 -1</clus>
<clus scale="  155.801">  2  9  1 -1</clus>
<clus scale="  155.801">  2  5  1 -1</clus>
</clustering>
</event>
<event>
 9    1  0.1803370E-005  0.1134148E+03  0.7546771E-02  0.1254952E+00
          2   -1    0    0  502    0  0.00000000000E+00  0.00000000000E+00  0.16814153634E+03  0.16814153634E+03  0.00000000000E+00 0. -1.
         -2   -1    0    0    0  501 -0.00000000000E+00 -0.00000000000E+00 -0.13376399299E+03  0.13376399299E+03  0.00000000000E+00 0.  1.
         23    2    1    2    0    0 -0.16099169781E+02  0.95461641758E+02 -0.29481396999E+02  0.13637224030E+03  0.91411852852E+02 0.  0.
         23    2    1    2    0    0  0.16949397861E+02 -0.54030291263E+02  0.64245274327E+02  0.12409141472E+03  0.89803504788E+02 0.  0.
        -11    1    4    4    0    0  0.17177057562E+02 -0.30712516065E+02 -0.17346499209E+02  0.39232779463E+02  0.00000000000E+00 0.  1.
         11    1    4    4    0    0 -0.22765970044E+00 -0.23317775197E+02  0.81591773537E+02  0.84858635258E+02  0.00000000000E+00 0. -1.
        -13    1    3    3    0    0 -0.43293005159E+02  0.43602663546E+02  0.14506756526E+02  0.63134163088E+02  0.00000000000E+00 0. -1.
         13    1    3    3    0    0  0.27193835377E+02  0.51858978212E+02 -0.43988153525E+02  0.73238077216E+02  0.00000000000E+00 0.  1.
         21    1    1    2  502  501 -0.85022808028E+00 -0.41431350495E+02 -0.38633397306E+00  0.41441874301E+02  0.00000000000E+00 0. -1.
<scales pt_clust_5="13000.00000" pt_clust_6="13000.00000" pt_clust_7="13000.00000" pt_clust_8="13000.00000" pt_clust_9="41.44007"></scales>
<clustering>
<clus scale="   41.440">  2  9  1 -1</clus>
<clus scale="   89.804">  5  6 -1 -1</clus>
<clus scale="   91.412">  7  8 -1 -1</clus>
<clus scale="  112.123">  1  5  2 -1</clus>
<clus scale="  112.123">  1  5  2 -1</clus>
</clustering>
</event>
<event>
 9    1  0.1803370E-005  0.1054856E+03  0.7546771E-02  0.1269893E+00
         -1   -1    0    0    0  501 -0.00000000000E+00  0.00000000000E+00  0.72767528649E+02  0.72767528649E+02  0.00000000000E+00 0.  1.
          1   -1    0    0  502    0  0.00000000000E+00 -0.00000000000E+00 -0.40675104459E+03  0.40675104459E+03  0.00000000000E+00 0. -1.
         23    2    1    2    0    0  0.43692349734E+02 -0.30310658816E+02  0.14002150116E+02  0.10598922598E+03  0.90608489413E+02 0.  0.
         23    2    1    2    0    0 -0.35612203633E+02  0.50246243559E+02 -0.23737517364E+03  0.26084661862E+03  0.88887970758E+02 0.  0.
        -11    1    3    3    0    0 -0.16460283517E+02 -0.40301516070E+02  0.50342669624E+00  0.43536267289E+02  0.00000000000E+00 0. -1.
         11    1    3    3    0    0  0.60152633252E+02  0.99908572547E+01  0.13498723419E+02  0.62452958695E+02  0.00000000000E+00 0.  1.
        -11    1    4    4    0    0 -0.64768314332E+02  0.41750418592E+02 -0.15612320620E+03  0.17410481759E+03  0.00000000000E+00 0. -1.
         11    1    4    4    0    0  0.29156110699E+02  0.84958249670E+01 -0.81251967436E+02  0.86741801026E+02  0.00000000000E+00 0.  1.
         21    1    1    2  502  501 -0.80801461012E+01 -0.19935584744E+02 -0.11061049242E+03  0.11268272864E+03  0.00000000000E+00 0. -1.
<scales pt_clust_5="13000.00000" pt_clust_6="13000.00000" pt_clust_7="13000.00000" pt_clust_8="13000.00000" pt_clust_9="21.51084"></scales>
<clustering>
<clus scale="   21.511">  2  9  1 -1</clus>
<clus scale="   88.888">  7  8 -1 -1</clus>
<clus scale="   90.608">  5  6 -1 -1</clus>
<clus scale="  104.011">  2  7  1 -1</clus>
<clus scale="   21.511">  2  5  1 -1</clus>
</clustering>
</event>
<event>
 9    1  0.1803370E-005  0.3896173E+03  0.7546771E-02  0.1047478E+00
         -2   -1    0    0    0  501 -0.00000000000E+00  0.00000000000E+00  0.75553545022E+03  0.75553545022E+03  0.00000000000E+00 0.  1.
          2   -1    0    0  502    0  0.00000000000E+00 -0.00000000000E+00 -0.46601299455E+03  0.46601299455E+03  0.00000000000E+00 0. -1.
         23    2    1    2    0    0  0.36135782376E+03 -0.86027153070E+02  0.53738449311E+03  0.65964823561E+03  0.91507122394E+02 0.  0.
         23    2    1    2    0    0 -0.41336852046E+03  0.55334864155E+02 -0.16058749358E+03  0.45576833282E+03  0.89448025183E+02 0.  0.
        -11    1    4    4    0    0 -0.39518443187E+03  0.41724054261E+02 -0.16861985035E+03  0.43167613534E+03  0.00000000000E+00 0. -1.
         11    1    4    4    0    0 -0.18184088594E+02  0.13610809894E+02  0.80323567700E+01  0.24092197477E+02  0.00000000000E+00 0.  1.
        -11    1    3    3    0    0  0.16767719745E+03  0.58414492879E+01  0.25132412940E+03  0.30218137450E+03  0.00000000000E+00 0. -1.
         11    1    3    3    0    0  0.19368062631E+03 -0.91868602357E+02  0.28606036372E+03  0.35746686111E+03  0.00000000000E+00 0.  1.
         21    1    1    2  502  501  0.52010696700E+02  0.30692288914E+02 -0.87274543861E+02  0.10613187634E+03  0.00000000000E+00 0. -1.
<scales pt_clust_5="13000.00000" pt_clust_6="13000.00000" pt_clust_7="13000.00000" pt_clust_8="13000.00000" pt_clust_9="60.39147"></scales>
<clustering>
<clus scale="   60.391">  2  9  1 -1</clus>
<clus scale="   89.448">  5  6 -1 -1</clus>
<clus scale="   91.507">  7  8 -1 -1</clus>
<clus scale="  389.139">  2  5  1 -1</clus>
<clus scale="   60.391">  2  5  1 -1</clus>
</clustering>
</event>
<event>
 9    1  0.1803370E-005  0.1365666E+03  0.7546771E-02  0.1226400E+00
          2   -1    0    0  502    0  0.00000000000E+00  0.00000000000E+00  0.29530878903E+03  0.29530878903E+03  0.00000000000E+00 0. -1.
         -2   -1    0    0    0  501 -0.00000000000E+00 -0.00000000000E+00 -0.18182710000E+03  0.18182710000E+03  0.00000000000E+00 0.  1.
         23    2    1    2    0    0 -0.37121275718E+02 -0.63597418371E+02 -0.12066762220E+03  0.16961228781E+03  0.93728503646E+02 0.  0.
         23    2    1    2    0    0 -0.26382121080E+02  0.25894158418E+02  0.15596852799E+03  0.19997616014E+03  0.11957323759E+03 0.  0.
        -13    1    4    4    0    0 -0.48717164636E+02 -0.32315480064E+02  0.10176245036E+03  0.11735948486E+03  0.00000000000E+00 0.  1.
         13    1    4    4    0    0  0.22335043555E+02  0.58209638482E+02  0.54206077626E+02  0.82616675280E+02  0.00000000000E+00 0. -1.
        -13    1    3    3    0    0 -0.31512070553E+02 -0.75217645316E+01  0.41499455099E+01  0.32662051068E+02  0.00000000000E+00 0. -1.
         13    1    3    3    0    0 -0.56092051649E+01 -0.56075653839E+02 -0.12481756770E+03  0.13695023674E+03  0.00000000000E+00 0.  1.
         21    1    1    2  502  501  0.63503396798E+02  0.37703259952E+02  0.78180783239E+02  0.10754744108E+03  0.00000000000E+00 0. -1.
<scales pt_clust_5="13000.00000" pt_clust_6="13000.00000" pt_clust_7="13000.00000" pt_clust_8="13000.00000" pt_clust_9="73.85267"></scales>
<clustering>
<clus scale="   73.853">  1  9  2 -1</clus>
<clus scale="   93.729">  7  8 -1 -1</clus>
<clus scale="  114.620">  2  7  1 -1</clus>
<clus scale="  119.573">  5  6 -1 -1</clus>
<clus scale="   73.853">  1  5  2 -1</clus>
</clustering>
</event>
<event>
 9    1  0.1803370E-005  0.1039700E+03  0.7546771E-02  0.1272912E+00
          2   -1    0    0  502    0  0.00000000000E+00  0.00000000000E+00  0.50977574743E+03  0.50977574743E+03  0.00000000000E+00 0. -1.
         -2   -1    0    0    0  501 -0.00000000000E+00 -0.00000000000E+00 -0.38599876753E+02  0.38599876753E+02  0.00000000000E+00 0.  1.
         23    2    1    2    0    0  0.45239759549E+02 -0.41084063656E+02  0.93662726832E+02  0.14409656947E+03  0.90865718535E+02 0.  0.
         23    2    1    2    0    0  0.80836316713E+00  0.25780258583E+02  0.24520570064E+03  0.26335391294E+03  0.92542815242E+02 0.  0.
        -13    1    4    4    0    0 -0.30292498342E+02 -0.19943684087E+02  0.60402841257E+02  0.70454873662E+02  0.00000000000E+00 0.  1.
         13    1    4    4    0    0  0.31100861509E+02  0.45723942670E+02  0.18480285938E+03  0.19289903928E+03  0.00000000000E+00 0. -1.
        -13    1    3    3    0    0 -0.18661100126E+02  0.13583577314E+02  0.33564155165E+02  0.40734539920E+02  0.00000000000E+00 0. -1.
         13    1    3    3    0    0  0.63900859675E+02 -0.54667640969E+02  0.60098571667E+02  0.10336202955E+03  0.00000000000E+00 0.  1.
         21    1    1    2  502  501 -0.46048122716E+02  0.15303805073E+02  0.13230744321E+03  0.14092514178E+03  0.00000000000E+00 0. -1.
<scales pt_clust_5="13000.00000" pt_clust_6="13000.00000" pt_clust_7="13000.00000" pt_clust_8="13000.00000" pt_clust_9="48.52459"></scales>
<clustering>
<clus scale="   48.525">  1  9  2 -1</clus>
<clus scale="   90.866">  7  8 -1 -1</clus>
<clus scale="   92.543">  5  6 -1 -1</clus>
<clus scale="  102.480">  2  7  1 -1</clus>
<clus scale="   48.525">  1  5  2 -1</clus>
</clustering>
</event>
<event>
 9    1  0.1803370E-005  0.1347720E+03  0.7546771E-02  0.1220603E+00
         -1   -1    0    0    0  501 -0.00000000000E+00  0.00000000000E+00  0.33314361158E+02  0.33314361158E+02  0.00000000000E+00 0.  1.
          1   -1    0    0  502    0  0.00000000000E+00 -0.00000000000E+00 -0.66820107832E+03  0.66820107832E+03  0.00000000000E+00 0. -1.
         23    2    1    2    0    0  0.62613816902E+02 -0.89294428307E+02 -0.26995784593E+03  0.30545404175E+03  0.92363131416E+02 0.  0.
         23    2    1    2    0    0 -0.59932722211E+02  0.62120029956E+02 -0.30193425398E+03  0.32740312804E+03  0.92615793530E+02 0.  0.
        -11    1    3    3    0    0  0.27976795107E+02 -0.60641318759E+02 -0.56993426994E+02  0.87797046225E+02  0.00000000000E+00 0.  1.
         11    1    3    3    0    0  0.34637021796E+02 -0.28653109548E+02 -0.21296441894E+03  0.21765699552E+03  0.00000000000E+00 0. -1.
        -13    1    4    4    0    0 -0.83560754318E+02  0.35706373701E+02 -0.22693910531E+03  0.24445593121E+03  0.00000000000E+00 0. -1.
         13    1    4    4    0    0  0.23628032107E+02  0.26413656255E+02 -0.74995148672E+02  0.82947196833E+02  0.00000000000E+00 0.  1.
         21    1    1    2  502  501 -0.26810946910E+01  0.27174398351E+02 -0.62994617251E+02  0.68658269692E+02  0.00000000000E+00 0.  1.
<scales pt_clust_5="13000.00000" pt_clust_6="13000.00000" pt_clust_7="13000.00000" pt_clust_8="13000.00000" pt_clust_9="27.30634"></scales>
<clustering>
<clus scale="   27.306">  2  9  1 -1</clus>
<clus scale="   92.363">  5  6 -1 -1</clus>
<clus scale="   92.616">  7  8 -1 -1</clus>
<clus scale="  134.599">  1  5  2 -1</clus>
<clus scale="   27.306">  2  5  1 -1</clus>
</clustering>
</event>
<event>
 9    1  0.1803370E-005  0.1508588E+03  0.7546771E-02  0.1199690E+00
          2   -1    0    0  502    0  0.00000000000E+00  0.00000000000E+00  0.57631531427E+03  0.57631531427E+03  0.00000000000E+00 0. -1.
         -2   -1    0    0    0  501 -0.00000000000E+00 -0.00000000000E+00 -0.11824812091E+03  0.11824812091E+03  0.00000000000E+00 0.  1.
         23    2    1    2    0    0  0.93580106646E+02 -0.64967211011E+02 -0.34528337692E+02  0.15053492350E+03  0.92144355354E+02 0.  0.
         23    2    1    2    0    0 -0.13338207192E+03  0.72669316816E+02  0.30946180144E+03  0.35646123896E+03  0.90699512743E+02 0.  0.
        -11    1    3    3    0    0  0.66663894600E+02 -0.81484760815E+02 -0.48606584545E+02  0.11595879074E+03  0.00000000000E+00 0.  1.
         11    1    3    3    0    0  0.26916212046E+02  0.16517549804E+02  0.14078246853E+02  0.34576132764E+02  0.00000000000E+00 0. -1.
        -13    1    4    4    0    0 -0.99465560141E+02  0.30601581198E+02  0.11712831904E+03  0.15668087805E+03  0.00000000000E+00 0.  1.
         13    1    4    4    0    0 -0.33916511780E+02  0.42067735619E+02  0.19233348240E+03  0.19978036090E+03  0.00000000000E+00 0. -1.
         21    1    1    2  502  501  0.39801965274E+02 -0.77021058051E+01  0.18313372962E+03  0.18756727272E+03  0.00000000000E+00 0. -1.
<scales pt_clust_5="13000.00000" pt_clust_6="13000.00000" pt_clust_7="13000.00000" pt_clust_8="13000.00000" pt_clust_9="40.54034"></scales>
<clustering>
<clus scale="   40.540">  1  9  2 -1</clus>
<clus scale="   90.700">  7  8 -1 -1</clus>
<clus scale="   92.144">  5  6 -1 -1</clus>
<clus scale="  149.981">  1  7  2 -1</clus>
<clus scale="   40.540">  1  5  2 -1</clus>
</clustering>
</event>
<event>
 9    1  0.1803370E-005  0.1124180E+03  0.7546771E-02  0.1257098E+00
          1   -1    0    0  502    0  0.00000000000E+00  0.00000000000E+00  0.11880683123E+03  0.11880683123E+03  0.00000000000E+00 0. -1.
         -1   -1    0    0    0  501 -0.00000000000E+00 -0.00000000000E+00 -0.16632446655E+03  0.16632446655E+03  0.00000000000E+00 0.  1.
         23    2    1    2    0    0 -0.42960238901E+02  0.26165740708E+02 -0.33057305931E+02  0.10638763780E+03  0.87722949603E+02 0.  0.
         23    2    1    2    0    0  0.38369420694E+02 -0.77748034626E+02 -0.85206624134E+00  0.12519934672E+03  0.90317113930E+02 0.  0.
        -13    1    3    3    0    0 -0.19292194771E+02  0.51008208357E+02 -0.44321430255E+02  0.70273859142E+02  0.00000000000E+00 0.  1.
         13    1    3    3    0    0 -0.23668044131E+02 -0.24842467649E+02  0.11264124323E+02  0.36113778654E+02  0.00000000000E+00 0. -1.
        -13    1    4    4    0    0  0.45663648310E+02 -0.20259613164E+02 -0.32081870502E+02  0.59370591351E+02  0.00000000000E+00 0. -1.
         13    1    4    4    0    0 -0.72942276160E+01 -0.57488421461E+02  0.31229804261E+02  0.65828755364E+02  0.00000000000E+00 0.  1.
         21    1    1    2  502  501  0.45908182074E+01  0.51582293918E+02 -0.13608263141E+02  0.53544313268E+02  0.00000000000E+00 0.  1.
<scales pt_clust_5="13000.00000" pt_clust_6="13000.00000" pt_clust_7="13000.00000" pt_clust_8="13000.00000" pt_clust_9="51.78618"></scales>
<clustering>
<clus scale="   51.786">  2  9  1 -1</clus>
<clus scale="   87.723">  5  6 -1 -1</clus>
<clus scale="   90.317">  7  8 -1 -1</clus>
<clus scale="  110.345">  2  5  1 -1</clus>
<clus scale="  112.418">  1  5  2 -1</clus>
</clustering>
</event>
<event>
 9    1  0.1803370E-005  0.9320691E+02  0.7546771E-02  0.1298047E+00
          2   -1    0    0  502    0  0.00000000000E+00  0.00000000000E+00  0.93316296084E+02  0.93316296084E+02  0.00000000000E+00 0. -1.
         -2   -1    0    0    0  501 -0.00000000000E+00 -0.00000000000E+00 -0.18111769847E+03  0.18111769847E+03  0.00000000000E+00 0.  1.
         23    2    1    2    0    0  0.25313021648E+01  0.15017568983E+02 -0.80073175362E+02  0.12320471520E+03  0.92389142032E+02 0.  0.
         23    2    1    2    0    0 -0.26832565789E+02  0.19653018234E+02 -0.35872612844E+02  0.10038926083E+03  0.87663741788E+02 0.  0.
        -11    1    3    3    0    0 -0.34566094839E+02  0.14517356157E+02 -0.29318801214E+01  0.37605378116E+02  0.00000000000E+00 0.  1.
         11    1    3    3    0    0  0.37097397004E+02  0.50021282617E+00 -0.77141295241E+02  0.85599337081E+02  0.00000000000E+00 0. -1.
        -13    1    4    4    0    0 -0.19347295605E+01  0.35633659425E+02  0.17209668470E+02  0.39619105888E+02  0.00000000000E+00 0. -1.
         13    1    4    4    0    0 -0.24897836229E+02 -0.15980641190E+02 -0.53082281314E+02  0.60770154938E+02  0.00000000000E+00 0.  1.
         21    1    1    2  502  501  0.24301263624E+02 -0.34670587217E+02  0.28144385816E+02  0.50840018535E+02  0.00000000000E+00 0.  1.
<scales pt_clust_5="13000.00000" pt_clust_6="13000.00000" pt_clust_7="13000.00000" pt_clust_8="13000.00000" pt_clust_9="42.33912"></scales>
<clustering>
<clus scale="   42.339">  1  9  2 -1</clus>
<clus scale="   87.664">  7  8 -1 -1</clus>
<clus scale="   88.525">  1  7  2 -1</clus>
<clus scale="   92.389">  5  6 -1 -1</clus>
<clus scale="   42.339">  1  5  2 -1</clus>
</clustering>
</event>
<event>
 9    1  0.1803370E-005  0.9385017E+02  0.7546771E-02  0.1295451E+00
         -2   -1    0    0    0  501 -0.00000000000E+00  0.00000000000E+00  0.12742801370E+03  0.12742801370E+03  0.00000000000E+00 0.  1.
          2   -1    0    0  502    0  0.00000000000E+00 -0.00000000000E+00 -0.90682415733E+02  0.90682415733E+02  0.00000000000E+00 0. -1.
         23    2    1    2    0    0 -0.21070764018E+02  0.17922652997E+02  0.16540602265E+02  0.97862213548E+02  0.92402503919E+02 0.  0.
         23    2    1    2    0    0  0.11166891244E+02  0.65115415052E+01  0.68254707735E+01  0.90682556004E+02  0.89496588087E+02 0.  0.
        -11    1    4    4    0    0 -0.74263816944E+01 -0.38007356913E+02 -0.92750012151E+01  0.39821300483E+02  0.00000000000E+00 0. -1.
         11    1    4    4    0    0  0.18593272939E+02  0.44518898418E+02  0.16100471989E+02  0.50861255521E+02  0.00000000000E+00 0.  1.
        -11    1    3    3    0    0 -0.43929106960E+02  0.40926375318E+02  0.23877237019E+02  0.64613133979E+02  0.00000000000E+00 0. -1.
         11    1    3    3    0    0  0.22858342942E+02 -0.23003722321E+02 -0.73366347545E+01  0.33249079569E+02  0.00000000000E+00 0.  1.
         21    1    1    2  502  501  0.99038727739E+01 -0.24434194502E+02  0.13379524928E+02  0.29565659881E+02  0.00000000000E+00 0. -1.
<scales pt_clust_5="13000.00000" pt_clust_6="13000.00000" pt_clust_7="13000.00000" pt_clust_8="13000.00000" pt_clust_9="26.36506"></scales>
<clustering>
<clus scale="   26.365">  1  9  2 -1</clus>
<clus scale="   89.497">  5  6 -1 -1</clus>
<clus scale="   90.991">  2  5  1 -1</clus>
<clus scale="   92.403">  7  8 -1 -1</clus>
<clus scale="   90.991">  2  5  1 -1</clus>
</clustering>
</event>
<event>
 9    1  0.1803370E-005  0.9375217E+02  0.7546771E-02  0.1295582E+00
          3   -1    0    0  502    0  0.00000000000E+00  0.00000000000E+00  0.41161052495E+02  0.41161052495E+02  0.00000000000E+00 0. -1.
         -3   -1    0    0    0  501 -0.00000000000E+00 -0.00000000000E+00 -0.27283522742E+03  0.27283522742E+03  0.00000000000E+00 0.  1.
         23    2    1    2    0    0  0.72285524516E+01  0.14316295114E+01 -0.12516901287E+03  0.15456005901E+03  0.90372720027E+02 0.  0.
         23    2    1    2    0    0 -0.96664784791E+01  0.19083174058E+02 -0.98705430489E+02  0.13735372872E+03  0.93089615133E+02 0.  0.
        -11    1    4    4    0    0  0.21719366959E+02  0.47291275753E+02 -0.65500032037E+02  0.83656738284E+02  0.00000000000E+00 0.  1.
         11    1    4    4    0    0 -0.31385845438E+02 -0.28208101695E+02 -0.33205398452E+02  0.53696990432E+02  0.00000000000E+00 0. -1.
        -11    1    3    3    0    0  0.92628356375E+01 -0.41149236794E+02 -0.89634338032E+02  0.99062477090E+02  0.00000000000E+00 0. -1.
         11    1    3    3    0    0 -0.20342831859E+01  0.42580866305E+02 -0.35534674842E+02  0.55497581925E+02  0.00000000000E+00 0.  1.
         21    1    1    2  502  501  0.24379260275E+01 -0.20514803569E+02 -0.77997315673E+01  0.22082492190E+02  0.00000000000E+00 0. -1.
<scales pt_clust_5="13000.00000" pt_clust_6="13000.00000" pt_clust_7="13000.00000" pt_clust_8="13000.00000" pt_clust_9="20.65915"></scales>
<clustering>
<clus scale="   20.659">  1  9  2 -1</clus>
<clus scale="   90.373">  7  8 -1 -1</clus>
<clus scale="   91.055">  2  7  1 -1</clus>
<clus scale="   93.090">  5  6 -1 -1</clus>
<clus scale="   20.659">  1  5  2 -1</clus>
</clustering>
</event>
<event>
 9    1  0.1803370E-005  0.1203684E+03  0.7546771E-02  0.1246458E+00
          1   -1    0    0  502    0  0.00000000000E+00  0.00000000000E+00  0.28362919455E+03  0.28362919455E+03  0.00000000000E+00 0. -1.
         -1   -1    0    0    0  501 -0.00000000000E+00 -0.00000000000E+00 -0.73685525259E+02  0.73685525259E+02  0.00000000000E+00 0.  1.
         23    2    1    2    0    0 -0.42862143615E+02 -0.58583829827E+02  0.22790047714E+02  0.12744886839E+03  0.10224773497E+03 0.  0.
         23    2    1    2    0    0  0.23045780011E+02  0.40782100830E+02  0.12118566348E+03  0.15872260637E+03  0.91173532418E+02 0.  0.
        -11    1    3    3    0    0 -0.70481686480E+02 -0.13765756528E+02  0.20805192634E+02  0.74766437807E+02  0.00000000000E+00 0. -1.
         11    1    3    3    0    0  0.27619542864E+02 -0.44818073299E+02  0.19848550803E+01  0.52682430581E+02  0.00000000000E+00 0.  1.
        -13    1    4    4    0    0 -0.17272426960E+02  0.14183394496E+02 -0.56061833248E+01  0.23042020397E+02  0.00000000000E+00 0.  1.
         13    1    4    4    0    0  0.40318206971E+02  0.26598706335E+02  0.12679184681E+03  0.13568058597E+03  0.00000000000E+00 0. -1.
         21    1    1    2  502  501  0.19816363604E+02  0.17801728997E+02  0.65967958093E+02  0.71143245053E+02  0.00000000000E+00 0. -1.
<scales pt_clust_5="13000.00000" pt_clust_6="13000.00000" pt_clust_7="13000.00000" pt_clust_8="13000.00000" pt_clust_9="26.63813"></scales>
<clustering>
<clus scale="   26.638">  1  9  2 -1</clus>
<clus scale="   91.174">  7  8 -1 -1</clus>
<clus scale="  102.248">  5  6 -1 -1</clus>
<clus scale="  111.115">  1  7  2 -1</clus>
<clus scale="   26.638">  1  5  2 -1</clus>
</clustering>
</event>
<event>
 9    1  0.1803370E-005  0.1089957E+03  0.7546771E-02  0.1263742E+00
         -2   -1    0    0    0  501 -0.00000000000E+00  0.00000000000E+00  0.36523483725E+02  0.36523483725E+02  0.00000000000E+00 0.  1.
          2   -1    0    0  502    0  0.00000000000E+00 -0.00000000000E+00 -0.99827239598E+03  0.99827239598E+03  0.00000000000E+00 0. -1.
         23    2    1    2    0    0  0.47971734231E+02 -0.47247770484E+01 -0.68491365656E+02  0.12395986160E+03  0.91385826660E+02 0.  0.
         23    2    1    2    0    0 -0.90415223910E+02  0.39147404082E+01 -0.57187095403E+03  0.58665790679E+03  0.94556192969E+02 0.  0.
        -13    1    4    4    0    0 -0.10452711064E+03 -0.16462364335E+02 -0.47773105039E+03  0.48930959811E+03  0.00000000000E+00 0. -1.
         13    1    4    4    0    0  0.14111886733E+02  0.20377104744E+02 -0.94139903641E+02  0.97348308678E+02  0.00000000000E+00 0.  1.
        -13    1    3    3    0    0  0.43423434852E+01 -0.42584622978E+02 -0.43470163829E+02  0.61007878216E+02  0.00000000000E+00 0. -1.
         13    1    3    3    0    0  0.43629390746E+02  0.37859845929E+02 -0.25021201827E+02  0.62951983380E+02  0.00000000000E+00 0.  1.
         21    1    1    2  502  501  0.42443489678E+02  0.81003664016E+00 -0.32138659256E+03  0.32417811131E+03  0.00000000000E+00 0. -1.
<scales pt_clust_5="13000.00000" pt_clust_6="13000.00000" pt_clust_7="13000.00000" pt_clust_8="13000.00000" pt_clust_9="42.45122"></scales>
<clustering>
<clus scale="   42.451">  2  9  1 -1</clus>
<clus scale="   91.386">  7  8 -1 -1</clus>
<clus scale="   94.556">  5  6 -1 -1</clus>
<clus scale="  106.257">  1  7  2 -1</clus>
<clus scale="   42.451">  2  5  1 -1</clus>
</clustering>
</event>
<event>
 9    1  0.1803370E-005  0.9422080E+02  0.7546771E-02  0.1294305E+00
          1   -1    0    0  502    0  0.00000000000E+00  0.00000000000E+00  0.11813039230E+03  0.11813039230E+03  0.00000000000E+00 0. -1.
         -1   -1    0    0    0  501 -0.00000000000E+00 -0.00000000000E+00 -0.95336803084E+02  0.95336803084E+02  0.00000000000E+00 0.  1.
         23    2    1    2    0    0 -0.55086215303E+01 -0.16976930659E+02 -0.21516701941E+01  0.93469191508E+02  0.91724037148E+02 0.  0.
         23    2    1    2    0    0 -0.18821345668E+01 -0.45871212810E+01  0.23767020795E+02  0.97172144463E+02  0.94090224093E+02 0.  0.
        -11    1    3    3    0    0  0.18146783896E+02 -0.31614750232E+02  0.32635460884E+02  0.48927206186E+02  0.00000000000E+00 0. -1.
         11    1    3    3    0    0 -0.23655405426E+02  0.14637819574E+02 -0.34787131078E+02  0.44541985322E+02  0.00000000000E+00 0.  1.
        -13    1    4    4    0    0 -0.43778163710E+02  0.25754399665E+01 -0.73893655960E+01  0.44472050018E+02  0.00000000000E+00 0.  1.
         13    1    4    4    0    0  0.41896029143E+02 -0.71625612475E+01  0.31156386391E+02  0.52700094445E+02  0.00000000000E+00 0. -1.
         21    1    1    2  502  501  0.73907560971E+01  0.21564051940E+02  0.11782386160E+01  0.22825859414E+02  0.00000000000E+00 0.  1.
<scales pt_clust_5="13000.00000" pt_clust_6="13000.00000" pt_clust_7="13000.00000" pt_clust_8="13000.00000" pt_clust_9="22.79543"></scales>
<clustering>
<clus scale="   22.795">  2  9  1 -1</clus>
<clus scale="   91.724">  5  6 -1 -1</clus>
<clus scale="   91.858">  2  5  1 -1</clus>
<clus scale="   94.090">  7  8 -1 -1</clus>
<clus scale="   94.221">  1  5  2 -1</clus>
</clustering>
</event>
<event>
 9    1  0.1803370E-005  0.2026641E+03  0.7546771E-02  0.1147887E+00
          2   -1    0    0  502    0  0.00000000000E+00  0.00000000000E+00  0.92935399322E+03  0.92935399322E+03  0.00000000000E+00 0. -1.
         -2   -1    0    0    0  501 -0.00000000000E+00 -0.00000000000E+00 -0.64038244403E+02  0.64038244403E+02  0.00000000000E+00 0.  1.
         23    2    1    2    0    0  0.19294342855E+02 -0.19232320456E+03  0.21206121716E+03  0.30170342431E+03  0.93244354994E+02 0.  0.
         23    2    1    2    0    0 -0.40237550303E+02  0.14987533810E+03  0.48840952215E+03  0.52018278874E+03  0.89244579392E+02 0.  0.
        -11    1    3    3    0    0 -0.35739880038E+02 -0.51239503948E+02  0.51186151618E+02  0.80764149890E+02  0.00000000000E+00 0. -1.
         11    1    3    3    0    0  0.55034222893E+02 -0.14108370061E+03  0.16087506554E+03  0.22093927442E+03  0.00000000000E+00 0.  1.
        -13    1    4    4    0    0 -0.60554501361E+02  0.12532106529E+03  0.32269885921E+03  0.35143530098E+03  0.00000000000E+00 0.  1.
         13    1    4    4    0    0  0.20316951058E+02  0.24554272813E+02  0.16571066294E+03  0.16874748776E+03  0.00000000000E+00 0. -1.
         21    1    1    2  502  501  0.20943207448E+02  0.42447866459E+02  0.16484500951E+03  0.17150602457E+03  0.00000000000E+00 0.  1.
<scales pt_clust_5="13000.00000" pt_clust_6="13000.00000" pt_clust_7="13000.00000" pt_clust_8="13000.00000" pt_clust_9="47.33328"></scales>
<clustering>
<clus scale="   47.333">  1  9  2 -1</clus>
<clus scale="   89.245">  7  8 -1 -1</clus>
<clus scale="   93.244">  5  6 -1 -1</clus>
<clus scale="  200.855">  1  7  2 -1</clus>
<clus scale="   47.333">  1  5  2 -1</clus>
</clustering>
</event>
<event>
 9    1  0.1803370E-005  0.1953981E+03  0.7546771E-02  0.1154482E+00
         -3   -1    0    0    0  501 -0.00000000000E+00  0.00000000000E+00  0.10097146047E+03  0.10097146047E+03  0.00000000000E+00 0.  1.
          3   -1    0    0  502    0  0.00000000000E+00 -0.00000000000E+00 -0.57542096400E+03  0.57542096400E+03  0.00000000000E+00 0. -1.
         23    2    1    2    0    0  0.14133238140E+03 -0.82320197834E+02 -0.63958893711E+02  0.20211454356E+03  0.10004044996E+03 0.  0.
         23    2    1    2    0    0 -0.16901366539E+03  0.67939477658E+02 -0.37453697812E+03  0.42667827767E+03  0.92709292677E+02 0.  0.
        -11    1    3    3    0    0  0.87047725934E+02 -0.89030276072E+02 -0.94155713630E+01  0.12486933023E+03  0.00000000000E+00 0.  1.
         11    1    3    3    0    0  0.54284655470E+02  0.67100782372E+01 -0.54543322348E+02  0.77245213328E+02  0.00000000000E+00 0. -1.
        -13    1    4    4    0    0 -0.16150681691E+03  0.47672181859E+02 -0.25757952097E+03  0.30774063504E+03  0.00000000000E+00 0.  1.
         13    1    4    4    0    0 -0.75068484826E+01  0.20267295799E+02 -0.11695745715E+03  0.11893764264E+03  0.00000000000E+00 0. -1.
         21    1    1    2  502  501  0.27681283990E+02  0.14380720176E+02 -0.35953631697E+02  0.47599603237E+02  0.00000000000E+00 0. -1.
<scales pt_clust_5="13000.00000" pt_clust_6="13000.00000" pt_clust_7="13000.00000" pt_clust_8="13000.00000" pt_clust_9="31.19389"></scales>
<clustering>
<clus scale="   31.194">  2  9  1 -1</clus>
<clus scale="   92.709">  7  8 -1 -1</clus>
<clus scale="  100.040">  5  6 -1 -1</clus>
<clus scale="  191.748">  2  7  1 -1</clus>
<clus scale="   31.194">  2  5  1 -1</clus>
</clustering>
</event>
<event>
 9    1  0.1803370E-005  0.1245017E+03  0.7546771E-02  0.1236066E+00
         -2   -1    0    0    0  501 -0.00000000000E+00  0.00000000000E+00  0.78642341897E+02  0.78642341897E+02  0.00000000000E+00 0.  1.
          2   -1    0    0  502    0  0.00000000000E+00 -0.00000000000E+00 -0.44455244258E+03  0.44455244258E+03  0.00000000000E+00 0. -1.
         23    2    1    2    0    0 -0.78861279047E+01  0.88594609065E+02  0.51372420567E+01  0.12672838966E+03  0.90124900675E+02 0.  0.
         23    2    1    2    0    0 -0.60264662050E+01 -0.69456629672E+02 -0.33194876052E+03  0.35076604841E+03  0.89366097632E+02 0.  0.
        -11    1    4    4    0    0 -0.46801507630E+02 -0.45183943478E+02 -0.21258070158E+03  0.22231177330E+03  0.00000000000E+00 0.  1.
         11    1    4    4    0    0  0.40775041424E+02 -0.24272686195E+02 -0.11936805894E+03  0.12845427510E+03  0.00000000000E+00 0. -1.
        -13    1    3    3    0    0  0.23109335000E+02  0.50306546111E+02 -0.32981904842E+02  0.64440639295E+02  0.00000000000E+00 0. -1.
         13    1    3    3    0    0 -0.30995462904E+02  0.38288062954E+02  0.38119146899E+02  0.62287750366E+02  0.00000000000E+00 0.  1.
         21    1    1    2  502  501  0.13912594110E+02 -0.19137979392E+02 -0.39098582228E+02  0.45700346413E+02  0.00000000000E+00 0. -1.
<scales pt_clust_5="13000.00000" pt_clust_6="13000.00000" pt_clust_7="13000.00000" pt_clust_8="13000.00000" pt_clust_9="23.66057"></scales>
<clustering>
<clus scale="   23.661">  2  9  1 -1</clus>
<clus scale="   89.366">  5  6 -1 -1</clus>
<clus scale="   90.125">  7  8 -1 -1</clus>
<clus scale="  123.954">  2  5  1 -1</clus>
<clus scale="   23.661">  2  5  1 -1</clus>
</clustering>
</event>
<event>
 9    1  0.4227995E-005  0.9758817E+02  0.7546771E-02  0.1287211E+00
          1   -1    0    0  502    0  0.00000000000E+00  0.00000000000E+00  0.28695028371E+03  0.28695028371E+03  0.00000000000E+00 0. -1.
         -1   -1    0    0    0  501 -0.00000000000E+00 -0.00000000000E+00 -0.15230185974E+03  0.15230185974E+03  0.00000000000E+00 0.  1.
         23    2    1    2    0    0  0.16754331357E+02 -0.26541554105E+02 -0.11863131622E+03  0.15340499261E+03  0.92057269445E+02 0.  0.
         23    2    1    2    0    0 -0.41239428516E+02  0.28290801392E+02  0.23202226200E+03  0.25337469746E+03  0.88675517152E+02 0.  0.
        -13    1    4    4    0    0  0.11227078072E+02 -0.20296534512E+02  0.10571810144E+03  0.10823268253E+03  0.00000000000E+00 0.  1.
         13    1    4    4    0    0 -0.52466506588E+02  0.48587335904E+02  0.12630416056E+03  0.14514201493E+03  0.00000000000E+00 0. -1.
        -13    1    3    3    0    0  0.65451397842E+01  0.26381253339E+02 -0.86467517224E+02  0.90639069486E+02  0.00000000000E+00 0. -1.
         13    1    3    3    0    0  0.10209191572E+02 -0.52922807444E+02 -0.32163798996E+02  0.62765923128E+02  0.00000000000E+00 0.  1.
         21    1    1    2  502  501  0.24485097160E+02 -0.17492472866E+01  0.21257478182E+02  0.32472453367E+02  0.00000000000E+00 0.  1.
<scales pt_clust_5="13000.00000" pt_clust_6="13000.00000" pt_clust_7="13000.00000" pt_clust_8="13000.00000" pt_clust_9="24.54750"></scales>
<clustering>
<clus scale="   24.548">  1  9  2 -1</clus>
<clus scale="   88.676">  5  6 -1 -1</clus>
<clus scale="   92.057">  7  8 -1 -1</clus>
<clus scale="   94.405">  1  5  2 -1</clus>
<clus scale="   24.548">  1  5  2 -1</clus>
</clustering>
</event>
<event>
 9    1  0.1803370E-005  0.1170729E+03  0.7546771E-02  0.1250308E+00
          2   -1    0    0  502    0  0.00000000000E+00  0.00000000000E+00  0.32208190545E+03  0.32208190545E+03  0.00000000000E+00 0. -1.
         -2   -1    0    0    0  501 -0.00000000000E+00 -0.00000000000E+00 -0.58482044109E+02  0.58482044109E+02  0.00000000000E+00 0.  1.
         23    2    1    2    0    0  0.30895500362E+02 -0.66512106188E+02  0.46781127038E+02  0.12391321384E+03  0.88247484416E+02 0.  0.
         23    2    1    2    0    0 -0.38160197595E+02  0.46830143525E+02  0.15588256114E+03  0.19220407033E+03  0.94835482597E+02 0.  0.
        -11    1    3    3    0    0  0.59150096296E+02 -0.34488844921E+02  0.13543540074E+02  0.69797147460E+02  0.00000000000E+00 0.  1.
         11    1    3    3    0    0 -0.28254595934E+02 -0.32023261267E+02  0.33237586964E+02  0.54116066383E+02  0.00000000000E+00 0. -1.
        -13    1    4    4    0    0 -0.11981684807E+02 -0.28379707074E+02  0.60951276735E+02  0.68293679650E+02  0.00000000000E+00 0.  1.
         13    1    4    4    0    0 -0.26178512789E+02  0.75209850599E+02  0.94931284408E+02  0.12391039068E+03  0.00000000000E+00 0. -1.
         21    1    1    2  502  501  0.72646972331E+01  0.19681962663E+02  0.60936173161E+02  0.64446665388E+02  0.00000000000E+00 0. -1.
<scales pt_clust_5="13000.00000" pt_clust_6="13000.00000" pt_clust_7="13000.00000" pt_clust_8="13000.00000" pt_clust_9="20.97988"></scales>
<clustering>
<clus scale="   20.980">  1  9  2 -1</clus>
<clus scale="   88.247">  5  6 -1 -1</clus>
<clus scale="   94.835">  7  8 -1 -1</clus>
<clus scale="  111.803">  2  5  1 -1</clus>
<clus scale="   20.980">  1  5  2 -1</clus>
</clustering>
</event>
<event>
 9    1  0.1803370E-005  0.9733946E+02  0.7546771E-02  0.1286594E+00
          3   -1    0    0  502    0  0.00000000000E+00  0.00000000000E+00  0.80976233693E+02  0.80976233693E+02  0.00000000000E+00 0. -1.
         -3   -1    0    0    0  501 -0.00000000000E+00 -0.00000000000E+00 -0.16897470215E+03  0.16897470215E+03  0.00000000000E+00 0.  1.
         23    2    1    2    0    0 -0.28305145605E+01  0.47762788257E+02 -0.67968836674E+02  0.12222737544E+03  0.89612905285E+02 0.  0.
         23    2    1    2    0    0  0.81132918635E+01 -0.17915448004E+02 -0.26759592200E+02  0.96674183223E+02  0.90791151248E+02 0.  0.
        -11    1    3    3    0    0 -0.25064883363E+02 -0.16074593515E+02 -0.56944559448E+01  0.30316130412E+02  0.00000000000E+00 0. -1.
         11    1    3    3    0    0  0.22234368803E+02  0.63837381772E+02 -0.62274380729E+02  0.91911245029E+02  0.00000000000E+00 0.  1.
        -11    1    4    4    0    0 -0.22272352170E+02 -0.44074799189E+02 -0.17397206449E+01  0.49413279821E+02  0.00000000000E+00 0. -1.
         11    1    4    4    0    0  0.30385644033E+02  0.26159351185E+02 -0.25019871555E+02  0.47260903402E+02  0.00000000000E+00 0.  1.
         21    1    1    2  502  501 -0.52827773031E+01 -0.29847340253E+02  0.67299604143E+01  0.31049377182E+02  0.00000000000E+00 0. -1.
<scales pt_clust_5="13000.00000" pt_clust_6="13000.00000" pt_clust_7="13000.00000" pt_clust_8="13000.00000" pt_clust_9="30.31124"></scales>
<clustering>
<clus scale="   30.311">  1  9  2 -1</clus>
<clus scale="   89.613">  5  6 -1 -1</clus>
<clus scale="   90.791">  7  8 -1 -1</clus>
<clus scale="   96.241">  2  5  1 -1</clus>
<clus scale="   30.311">  1  5  2 -1</clus>
</clustering>
</event>
<event>
 9    1  0.1803370E-005  0.9162404E+02  0.7546771E-02  0.1299837E+00
          1   -1    0    0  502    0  0.00000000000E+00  0.00000000000E+00  0.12335150479E+03  0.12335150479E+03  0.00000000000E+00 0. -1.
         -1   -1    0    0    0  501 -0.00000000000E+00 -0.00000000000E+00 -0.25445179473E+03  0.25445179473E+03  0.00000000000E+00 0.  1.
         23    2    1    2    0    0 -0.88953638904E+01 -0.66474517900E+01 -0.17945921739E+03  0.20179624770E+03  0.91612219522E+02 0.  0.
         23    2    1    2    0    0 -0.31377132066E+02 -0.18620571398E+02 -0.13286463583E+02  0.98157831140E+02  0.90150871342E+02 0.  0.
        -11    1    4    4    0    0  0.29864987978E+02 -0.10909770411E+02  0.81372089770E+01  0.32820036065E+02  0.00000000000E+00 0. -1.
         11    1    4    4    0    0 -0.61242120044E+02 -0.77108009877E+01 -0.21423672560E+02  0.65337795075E+02  0.00000000000E+00 0.  1.
        -11    1    3    3    0    0 -0.27165411415E+02 -0.43229281326E+02 -0.91025039632E+02  0.10436612564E+03  0.00000000000E+00 0. -1.
         11    1    3    3    0    0  0.18270047525E+02  0.36581829536E+02 -0.88434177753E+02  0.97430122055E+02  0.00000000000E+00 0.  1.
         21    1    1    2  502  501  0.40272495956E+02  0.25268023188E+02  0.61645391023E+02  0.77849220682E+02  0.00000000000E+00 0. -1.
<scales pt_clust_5="13000.00000" pt_clust_6="13000.00000" pt_clust_7="13000.00000" pt_clust_8="13000.00000" pt_clust_9="47.54311"></scales>
<clustering>
<clus scale="   47.543">  1  9  2 -1</clus>
<clus scale="   90.151">  5  6 -1 -1</clus>
<clus scale="   90.163">  1  5  2 -1</clus>
<clus scale="   91.612">  7  8 -1 -1</clus>
<clus scale="   47.543">  1  5  2 -1</clus>
</clustering>
</event>
<event>
 9    1  0.1803370E-005  0.1208007E+03  0.7546771E-02  0.1242554E+00
          1   -1    0    0  502    0  0.00000000000E+00  0.00000000000E+00  0.21359112692E+03  0.21359112692E+03  0.00000000000E+00 0. -1.
         -1   -1    0    0    0  501 -0.00000000000E+00 -0.00000000000E+00 -0.16741994621E+03  0.16741994621E+03  0.00000000000E+00 0.  1.
         23    2    1    2    0    0 -0.72908692018E+02  0.29304186635E+02 -0.10764597523E+03  0.16535363020E+03  0.97876219324E+02 0.  0.
         23    2    1    2    0    0  0.27447919835E+02 -0.18295079688E+02  0.12483120952E+03  0.16062956515E+03  0.95555889857E+02 0.  0.
        -11    1    3    3    0    0  0.17611016992E+02  0.24557519005E+02 -0.93263820245E+01  0.31625955493E+02  0.00000000000E+00 0. -1.
         11    1    3    3    0    0 -0.90519709010E+02  0.47466676295E+01 -0.98319593207E+02  0.13372767470E+03  0.00000000000E+00 0.  1.
        -13    1    4    4    0    0  0.26953033797E+00 -0.31952555622E+02 -0.19731501051E+00  0.31954301597E+02  0.00000000000E+00 0.  1.
         13    1    4    4    0    0  0.27178389497E+02  0.13657475933E+02  0.12502852453E+03  0.12867526355E+03  0.00000000000E+00 0. -1.
         21    1    1    2  502  501  0.45460772182E+02 -0.11009106946E+02  0.28985946431E+02  0.55027877786E+02  0.00000000000E+00 0. -1.
<scales pt_clust_5="13000.00000" pt_clust_6="13000.00000" pt_clust_7="13000.00000" pt_clust_8="13000.00000" pt_clust_9="46.77480"></scales>
<clustering>
<clus scale="   46.775">  1  9  2 -1</clus>
<clus scale="   95.556">  7  8 -1 -1</clus>
<clus scale="   97.876">  5  6 -1 -1</clus>
<clus scale="  118.928">  1  7  2 -1</clus>
<clus scale="   46.775">  1  5  2 -1</clus>
</clustering>
</event>
<event>
 9    1  0.1803370E-005  0.2390081E+03  0.7546771E-02  0.1120486E+00
         -3   -1    0    0    0  501 -0.00000000000E+00  0.00000000000E+00  0.80688804948E+03  0.80688804948E+03  0.00000000000E+00 0.  1.
          3   -1    0    0  502    0  0.00000000000E+00 -0.00000000000E+00 -0.92026692611E+03  0.92026692611E+03  0.00000000000E+00 0. -1.
         23    2    1    2    0    0  0.21935699617E+03 -0.23828865020E-01  0.74927182131E+03  0.78604689733E+03  0.91345335097E+02 0.  0.
         23    2    1    2    0    0 -0.28169260086E+03 -0.43570399775E+02 -0.71333021848E+03  0.77352887321E+03  0.90872525952E+02 0.  0.
        -13    1    4    4    0    0 -0.22768159494E+03 -0.10594068367E+02 -0.62174889142E+03  0.66221056088E+03  0.00000000000E+00 0. -1.
         13    1    4    4    0    0 -0.54011005919E+02 -0.32976331408E+02 -0.91581327069E+02  0.11131831234E+03  0.00000000000E+00 0.  1.
        -13    1    3    3    0    0  0.11769169903E+03 -0.45549215079E+02  0.40363431591E+03  0.42290274059E+03  0.00000000000E+00 0.  1.
         13    1    3    3    0    0  0.10166529714E+03  0.45525386214E+02  0.34563750540E+03  0.36314415674E+03  0.00000000000E+00 0. -1.
         21    1    1    2  502  501  0.62335604684E+02  0.43594228640E+02 -0.14932047945E+03  0.16757920505E+03  0.00000000000E+00 0.  1.
<scales pt_clust_5="13000.00000" pt_clust_6="13000.00000" pt_clust_7="13000.00000" pt_clust_8="13000.00000" pt_clust_9="76.06697"></scales>
<clustering>
<clus scale="   76.067">  2  9  1 -1</clus>
<clus scale="   90.873">  5  6 -1 -1</clus>
<clus scale="   91.345">  7  8 -1 -1</clus>
<clus scale="  238.828">  2  5  1 -1</clus>
<clus scale="   76.067">  2  5  1 -1</clus>
</clustering>
</event>
<event>
 9    1  0.1803370E-005  0.9413569E+02  0.7546771E-02  0.1295392E+00
         -2   -1    0    0    0  501 -0.00000000000E+00  0.00000000000E+00  0.25045267162E+03  0.25045267162E+03  0.00000000000E+00 0.  1.
          2   -1    0    0  502    0  0.00000000000E+00 -0.00000000000E+00 -0.91848541547E+02  0.91848541547E+02  0.00000000000E+00 0. -1.
         23    2    1    2    0    0  0.23619828167E+02  0.16545385452E+02  0.20054501788E+03  0.22024645022E+03  0.86362888875E+02 0.  0.
         23    2    1    2    0    0 -0.66720640830E+01 -0.33087538347E+01 -0.43289866635E+02  0.10050818856E+03  0.90401433193E+02 0.  0.
        -13    1    3    3    0    0 -0.18718643175E+02  0.23620750606E+02  0.15403254942E+03  0.15695334893E+03  0.00000000000E+00 0.  1.
         13    1    3    3    0    0  0.42338471342E+02 -0.70753651547E+01  0.46512468460E+02  0.63293101282E+02  0.00000000000E+00 0. -1.
        -13    1    4    4    0    0 -0.10730840828E+02  0.24975454066E+02  0.18193267733E+02  0.32709620014E+02  0.00000000000E+00 0.  1.
         13    1    4    4    0    0  0.40587767448E+01 -0.28284207900E+02 -0.61483134368E+02  0.67798568546E+02  0.00000000000E+00 0. -1.
         21    1    1    2  502  501 -0.16947764084E+02 -0.13236631617E+02  0.13489788275E+01  0.21546574388E+02  0.00000000000E+00 0. -1.
<scales pt_clust_5="13000.00000" pt_clust_6="13000.00000" pt_clust_7="13000.00000" pt_clust_8="13000.00000" pt_clust_9="21.50430"></scales>
<clustering>
<clus scale="   21.504">  2  9  1 -1</clus>
<clus scale="   86.363">  5  6 -1 -1</clus>
<clus scale="   90.264">  1  5  2 -1</clus>
<clus scale="   90.401">  7  8 -1 -1</clus>
<clus scale="   21.504">  2  5  1 -1</clus>
</clustering>
</event>
<event>
 9    1  0.1803370E-005  0.2765028E+03  0.7546771E-02  0.1097690E+00
         -2   -1    0    0    0  501 -0.00000000000E+00  0.00000000000E+00  0.12487578458E+03  0.12487578458E+03  0.00000000000E+00 0.  1.
          2   -1    0    0  502    0  0.00000000000E+00 -0.00000000000E+00 -0.10664445256E+04  0.10664445256E+04  0.00000000000E+00 0. -1.
         23    2    1    2    0    0  0.21415902799E+03  0.17251942709E+03 -0.12085125109E+03  0.31358366148E+03  0.90014698055E+02 0.  0.
         23    2    1    2    0    0 -0.18542876304E+03 -0.17893310004E+03 -0.78596064234E+03  0.83218885205E+03  0.91669371773E+02 0.  0.
        -11    1    4    4    0    0 -0.12733510012E+03 -0.14679108871E+03 -0.67933895503E+03  0.70658564043E+03  0.00000000000E+00 0. -1.
         11    1    4    4    0    0 -0.58093662922E+02 -0.32142011333E+02 -0.10662168731E+03  0.12560321162E+03  0.00000000000E+00 0.  1.
        -13    1    3    3    0    0  0.86034073436E+02  0.12499668545E+03 -0.50801323053E+02  0.16002127231E+03  0.00000000000E+00 0.  1.
         13    1    3    3    0    0  0.12812495455E+03  0.47522741639E+02 -0.70049928032E+02  0.15356238918E+03  0.00000000000E+00 0. -1.
         21    1    1    2  502  501 -0.28730264945E+02  0.64136729456E+01 -0.34756847568E+02  0.45547796624E+02  0.00000000000E+00 0. -1.
<scales pt_clust_5="13000.00000" pt_clust_6="13000.00000" pt_clust_7="13000.00000" pt_clust_8="13000.00000" pt_clust_9="29.43745"></scales>
<clustering>
<clus scale="   29.437">  1  9  2 -1</clus>
<clus scale="   90.015">  7  8 -1 -1</clus>
<clus scale="   91.669">  5  6 -1 -1</clus>
<clus scale="  275.959">  1  7  2 -1</clus>
<clus scale="  276.503">  2  5  1 -1</clus>
</clustering>
</event>
<event>
 9    1  0.1803370E-005  0.1063991E+03  0.7546771E-02  0.1269548E+00
         -3   -1    0    0    0  501 -0.00000000000E+00  0.00000000000E+00  0.17144657680E+03  0.17144657680E+03  0.00000000000E+00 0.  1.
          3   -1    0    0  502    0  0.00000000000E+00 -0.00000000000E+00 -0.47310472973E+03  0.47310472973E+03  0.00000000000E+00 0. -1.
         23    2    1    2    0    0 -0.40597708795E+02  0.29593615159E+02  0.14107058744E+03  0.17710170913E+03  0.94552359656E+02 0.  0.
         23    2    1    2    0    0  0.40577646413E+02  0.31548786246E+01 -0.20417632830E+03  0.22665981865E+03  0.89611392699E+02 0.  0.
        -13    1    4    4    0    0 -0.27621525577E+02 -0.45333177820E+01 -0.80347965836E+02  0.85084048207E+02  0.00000000000E+00 0. -1.
         13    1    4    4    0    0  0.68199171989E+02  0.76881964066E+01 -0.12382836247E+03  0.14157577044E+03  0.00000000000E+00 0.  1.
        -13    1    3    3    0    0 -0.32456037696E+02 -0.89322687276E+01  0.33112808966E+01  0.33825203454E+02  0.00000000000E+00 0. -1.
         13    1    3    3    0    0 -0.81416710983E+01  0.38525883886E+02  0.13775930655E+03  0.14327650567E+03  0.00000000000E+00 0.  1.
         21    1    1    2  502  501  0.20062381979E-01 -0.32748493783E+02 -0.23855241207E+03  0.24078977875E+03  0.00000000000E+00 0. -1.
<scales pt_clust_5="13000.00000" pt_clust_6="13000.00000" pt_clust_7="13000.00000" pt_clust_8="13000.00000" pt_clust_9="32.74850"></scales>
<clustering>
<clus scale="   32.748">  2  9  1 -1</clus>
<clus scale="   89.611">  5  6 -1 -1</clus>
<clus scale="   94.552">  7  8 -1 -1</clus>
<clus scale="  102.033">  2  5  1 -1</clus>
<clus scale="   32.748">  2  5  1 -1</clus>
</clustering>
</event>
<event>
 9    1  0.1803370E-005  0.1198206E+03  0.7546771E-02  0.1243805E+00
          2   -1    0    0  502    0  0.00000000000E+00  0.00000000000E+00  0.26486894747E+03  0.26486894747E+03  0.00000000000E+00 0. -1.
         -2   -1    0    0    0  501 -0.00000000000E+00 -0.00000000000E+00 -0.73010771683E+02  0.73010771683E+02  0.00000000000E+00 0.  1.
         23    2    1    2    0    0  0.34806471511E+02 -0.68571209794E+02  0.38988500344E+02  0.12643388258E+03  0.92476603715E+02 0.  0.
         23    2    1    2    0    0 -0.14008316734E+02  0.75715176597E+02  0.10579920157E+03  0.15949173169E+03  0.91187282656E+02 0.  0.
        -11    1    4    4    0    0  0.18269193339E+02  0.65269459115E+02  0.10570211339E+03  0.12556592888E+03  0.00000000000E+00 0.  1.
         11    1    4    4    0    0 -0.32277510073E+02  0.10445717481E+02  0.97088178504E-01  0.33925802810E+02  0.00000000000E+00 0. -1.
        -13    1    3    3    0    0  0.53899114963E+02 -0.74614290000E+02  0.48746607044E+02  0.10415679797E+03  0.00000000000E+00 0. -1.
         13    1    3    3    0    0 -0.19092643453E+02  0.60430802059E+01 -0.97581066991E+01  0.22277084610E+02  0.00000000000E+00 0.  1.
         21    1    1    2  502  501 -0.20798154777E+02 -0.71439668026E+01  0.47070473871E+02  0.51954104884E+02  0.00000000000E+00 0. -1.
<scales pt_clust_5="13000.00000" pt_clust_6="13000.00000" pt_clust_7="13000.00000" pt_clust_8="13000.00000" pt_clust_9="21.99090"></scales>
<clustering>
<clus scale="   21.991">  1  9  2 -1</clus>
<clus scale="   91.187">  5  6 -1 -1</clus>
<clus scale="   92.477">  7  8 -1 -1</clus>
<clus scale="  118.828">  1  5  2 -1</clus>
<clus scale="   21.991">  1  5  2 -1</clus>
</clustering>
</event>
<event>
 9    1  0.1803370E-005  0.2648765E+03  0.7546771E-02  0.1104270E+00
         -1   -1    0    0    0  501 -0.00000000000E+00  0.00000000000E+00  0.76788064263E+02  0.76788064263E+02  0.00000000000E+00 0.  1.
          1   -1    0    0  502    0  0.00000000000E+00 -0.00000000000E+00 -0.13302350740E+04  0.13302350740E+04  0.00000000000E+00 0. -1.
         23    2    1    2    0    0 -0.20418023821E+03  0.20894704148E+02 -0.27484105747E+03  0.35527599166E+03  0.92505486555E+02 0.  0.
         23    2    1    2    0    0  0.26398065714E+03 -0.77258466384E+02 -0.85884543353E+03  0.90650408946E+03  0.92084350155E+02 0.  0.
        -13    1    4    4    0    0  0.65620398163E+02 -0.30595150441E+02 -0.12072309197E+03  0.14076990026E+03  0.00000000000E+00 0.  1.
         13    1    4    4    0    0  0.19836025898E+03 -0.46663315943E+02 -0.73812234156E+03  0.76573418920E+03  0.00000000000E+00 0. -1.
        -13    1    3    3    0    0 -0.18978891735E+03 -0.11027342094E+02 -0.23125752808E+03  0.29936846814E+03  0.00000000000E+00 0.  1.
         13    1    3    3    0    0 -0.14391320864E+02  0.31922046242E+02 -0.43583529394E+02  0.55907523527E+02  0.00000000000E+00 0. -1.
         21    1    1    2  502  501 -0.59800418934E+02  0.56363762236E+02 -0.11976051872E+03  0.14524305712E+03  0.00000000000E+00 0.  1.
<scales pt_clust_5="13000.00000" pt_clust_6="13000.00000" pt_clust_7="13000.00000" pt_clust_8="13000.00000" pt_clust_9="82.17642"></scales>
<clustering>
<clus scale="   82.176">  1  9  2 -1</clus>
<clus scale="   92.084">  5  6 -1 -1</clus>
<clus scale="   92.505">  7  8 -1 -1</clus>
<clus scale="  264.730">  2  5  1 -1</clus>
<clus scale="  264.730">  2  5  1 -1</clus>
</clustering>
</event>
<event>
 9    1  0.1803370E-005  0.1015037E+03  0.7546771E-02  0.1280572E+00
         -1   -1    0    0    0  501 -0.00000000000E+00  0.00000000000E+00  0.90801368541E+02  0.90801368541E+02  0.00000000000E+00 0.  1.
          1   -1    0    0  502    0  0.00000000000E+00 -0.00000000000E+00 -0.18213478339E+03  0.18213478339E+03  0.00000000000E+00 0. -1.
         23    2    1    2    0    0 -0.81139408096E+01  0.48407916404E+02 -0.16162040036E+02  0.10870923073E+03  0.95641637910E+02 0.  0.
         23    2    1    2    0    0  0.25049751435E+02 -0.18339506037E+02 -0.86584471068E+02  0.12787874725E+03  0.88838481745E+02 0.  0.
        -11    1    3    3    0    0 -0.46228024978E+02  0.14955440182E+01 -0.44061606624E+00  0.46254308856E+02  0.00000000000E+00 0.  1.
         11    1    3    3    0    0  0.38114084168E+02  0.46912372385E+02 -0.15721423969E+02  0.62454921875E+02  0.00000000000E+00 0. -1.
        -13    1    4    4    0    0 -0.17797484577E+02 -0.29082794969E+02 -0.41411213239E+01  0.34346882046E+02  0.00000000000E+00 0.  1.
         13    1    4    4    0    0  0.42847236012E+02  0.10743288931E+02 -0.82443349744E+02  0.93531865201E+02  0.00000000000E+00 0. -1.
         21    1    1    2  502  501 -0.16935810625E+02 -0.30068410367E+02  0.11413096256E+02  0.36348173952E+02  0.00000000000E+00 0.  1.
<scales pt_clust_5="13000.00000" pt_clust_6="13000.00000" pt_clust_7="13000.00000" pt_clust_8="13000.00000" pt_clust_9="34.50987"></scales>
<clustering>
<clus scale="   34.510">  1  9  2 -1</clus>
<clus scale="   88.838">  7  8 -1 -1</clus>
<clus scale="   95.121">  2  7  1 -1</clus>
<clus scale="   95.642">  5  6 -1 -1</clus>
<clus scale="   95.121">  2  5  1 -1</clus>
</clustering>
</event>
<event>
 9    1  0.2355852E-005  0.2224542E+03  0.7546771E-02  0.1132222E+00
          1   -1    0    0  502    0  0.00000000000E+00  0.00000000000E+00  0.68487088230E+03  0.68487088230E+03  0.00000000000E+00 0. -1.
         -1   -1    0    0    0  501 -0.00000000000E+00 -0.00000000000E+00 -0.20489312155E+03  0.20489312155E+03  0.00000000000E+00 0.  1.
         23    2    1    2    0    0 -0.39408020235E+02 -0.20156104207E+03 -0.10191054009E+03  0.24764155217E+03  0.93598795074E+02 0.  0.
         23    2    1    2    0    0  0.76744514340E+02  0.16261005484E+03  0.53062892910E+03  0.56769989872E+03  0.91566173847E+02 0.  0.
        -11    1    4    4    0    0  0.86722191278E+02  0.99817356389E+02  0.41737137774E+03  0.43781629715E+03  0.00000000000E+00 0. -1.
         11    1    4    4    0    0 -0.99776769385E+01  0.62792698454E+02  0.11325755136E+03  0.12988360157E+03  0.00000000000E+00 0.  1.
        -11    1    3    3    0    0  0.83670988061E+01 -0.11366891388E+03 -0.93190732923E+02  0.14722480439E+03  0.00000000000E+00 0.  1.
         11    1    3    3    0    0 -0.47775119041E+02 -0.87892128192E+02 -0.87198071690E+01  0.10041674778E+03  0.00000000000E+00 0. -1.
         21    1    1    2  502  501 -0.37336494104E+02  0.38950987229E+02  0.51259371736E+02  0.74422552959E+02  0.00000000000E+00 0. -1.
<scales pt_clust_5="13000.00000" pt_clust_6="13000.00000" pt_clust_7="13000.00000" pt_clust_8="13000.00000" pt_clust_9="53.95547"></scales>
<clustering>
<clus scale="   53.955">  1  9  2 -1</clus>
<clus scale="   91.566">  5  6 -1 -1</clus>
<clus scale="   93.599">  7  8 -1 -1</clus>
<clus scale="  221.607">  1  5  2 -1</clus>
<clus scale="   53.955">  1  5  2 -1</clus>
</clustering>
</event>
<event>
 9    1  0.1803370E-005  0.9928929E+02  0.7546771E-02  0.1283168E+00
          1   -1    0    0  502    0  0.00000000000E+00  0.00000000000E+00  0.12261938620E+03  0.12261938620E+03  0.00000000000E+00 0. -1.
         -1   -1    0    0    0  501 -0.00000000000E+00 -0.00000000000E+00 -0.19965063036E+03  0.19965063036E+03  0.00000000000E+00 0.  1.
         23    2    1    2    0    0  0.31079253432E+02 -0.23115191699E+02 -0.13479070236E+03  0.16737075897E+03  0.91346622457E+02 0.  0.
         23    2    1    2    0    0  0.12573393769E+02  0.11445779949E+02  0.53482567729E+02  0.10951180810E+03  0.94039113954E+02 0.  0.
        -11    1    4    4    0    0  0.46190385159E+02 -0.11096395498E+02  0.72326007415E+01  0.48051973816E+02  0.00000000000E+00 0.  1.
         11    1    4    4    0    0 -0.33616991390E+02  0.22542175447E+02  0.46249966988E+02  0.61459834285E+02  0.00000000000E+00 0. -1.
        -13    1    3    3    0    0  0.49680900112E+02 -0.40380729821E+02 -0.12447603308E+03  0.13997527635E+03  0.00000000000E+00 0.  1.
         13    1    3    3    0    0 -0.18601646680E+02  0.17265538122E+02 -0.10314669281E+02  0.27395482625E+02  0.00000000000E+00 0. -1.
         21    1    1    2  502  501 -0.43652647201E+02  0.11669411750E+02  0.42768904726E+01  0.45387449480E+02  0.00000000000E+00 0.  1.
<scales pt_clust_5="13000.00000" pt_clust_6="13000.00000" pt_clust_7="13000.00000" pt_clust_8="13000.00000" pt_clust_9="45.18549"></scales>
<clustering>
<clus scale="   45.185">  1  9  2 -1</clus>
<clus scale="   91.347">  7  8 -1 -1</clus>
<clus scale="   94.039">  5  6 -1 -1</clus>
<clus scale="   96.743">  2  7  1 -1</clus>
<clus scale="   45.185">  1  5  2 -1</clus>
</clustering>
</event>
<event>
 9    1  0.1803370E-005  0.2026168E+03  0.7546771E-02  0.1170750E+00
         -1   -1    0    0    0  501 -0.00000000000E+00  0.00000000000E+00  0.12792784596E+03  0.12792784596E+03  0.00000000000E+00 0.  1.
          1   -1    0    0  502    0  0.00000000000E+00 -0.00000000000E+00 -0.70640779200E+03  0.70640779200E+03  0.00000000000E+00 0. -1.
         23    2    1    2    0    0  0.31333202873E+02  0.68196176133E+02  0.18954491388E+02  0.11947693076E+03  0.91010857583E+02 0.  0.
         23    2    1    2    0    0 -0.19472777983E+03 -0.63569090211E+01 -0.37396790092E+03  0.43120544057E+03  0.90148890883E+02 0.  0.
        -11    1    3    3    0    0  0.62795548333E+01 -0.19695672319E+02 -0.10850166730E+02  0.23346914894E+02  0.00000000000E+00 0.  1.
         11    1    3    3    0    0  0.25053648039E+02  0.87891848452E+02  0.29804658117E+02  0.96130015863E+02  0.00000000000E+00 0. -1.
        -13    1    4    4    0    0 -0.82400509121E+02 -0.35506018961E+02 -0.10402044162E+03  0.13737093419E+03  0.00000000000E+00 0.  1.
         13    1    4    4    0    0 -0.11232727071E+03  0.29149109940E+02 -0.26994745930E+03  0.29383450638E+03  0.00000000000E+00 0. -1.
         21    1    1    2  502  501  0.16339457696E+03 -0.61839267112E+02 -0.22346653651E+03  0.28365326664E+03  0.00000000000E+00 0.  1.
<scales pt_clust_5="13000.00000" pt_clust_6="13000.00000" pt_clust_7="13000.00000" pt_clust_8="13000.00000" pt_clust_9="181.45734"></scales>
<clustering>
<clus scale="   90.149">  7  8 -1 -1</clus>
<clus scale="   91.011">  5  6 -1 -1</clus>
<clus scale="  117.964">  1  5  2 -1</clus>
<clus scale="  181.457">  1  9  2 -1</clus>
<clus scale="  202.617">  2  5  1 -1</clus>
</clustering>
</event>
<event>
 9    1  0.1803370E-005  0.1241286E+03  0.7546771E-02  0.1240613E+00
          3   -1    0    0  502    0  0.00000000000E+00  0.00000000000E+00  0.43606905180E+02  0.43606905180E+02  0.00000000000E+00 0. -1.
         -3   -1    0    0    0  501 -0.00000000000E+00 -0.00000000000E+00 -0.43103143633E+03  0.43103143633E+03  0.00000000000E+00 0.  1.
         23    2    1    2    0    0 -0.14574436050E+02  0.70932799521E+02 -0.21293202450E+03  0.24409844259E+03  0.94868995910E+02 0.  0.
         23    2    1    2    0    0  0.45744848933E+01 -0.89983413511E+02 -0.16955341359E+03  0.20846458336E+03  0.81186093869E+02 0.  0.
        -13    1    4    4    0    0 -0.80306533805E+01 -0.38354375359E+02 -0.10213318024E+02  0.40495201790E+02  0.00000000000E+00 0. -1.
         13    1    4    4    0    0  0.12605138274E+02 -0.51629038152E+02 -0.15934009557E+03  0.16796938157E+03  0.00000000000E+00 0.  1.
        -13    1    3    3    0    0 -0.54806197315E+02  0.42942582074E+02 -0.11163929875E+03  0.13157172053E+03  0.00000000000E+00 0.  1.
         13    1    3    3    0    0  0.40231761265E+02  0.27990217447E+02 -0.10129272575E+03  0.11252672206E+03  0.00000000000E+00 0. -1.
         21    1    1    2  502  501  0.99999511565E+01  0.19050613990E+02 -0.49390930616E+01  0.22075315554E+02  0.00000000000E+00 0.  1.
<scales pt_clust_5="13000.00000" pt_clust_6="13000.00000" pt_clust_7="13000.00000" pt_clust_8="13000.00000" pt_clust_9="21.51569"></scales>
<clustering>
<clus scale="   21.516">  1  9  2 -1</clus>
<clus scale="   81.186">  5  6 -1 -1</clus>
<clus scale="   94.869">  7  8 -1 -1</clus>
<clus scale="  114.013">  1  5  2 -1</clus>
<clus scale="   21.516">  1  5  2 -1</clus>
</clustering>
</event>
<event>
 9    1  0.1803370E-005  0.9460298E+02  0.7546771E-02  0.1292605E+00
          1   -1    0    0  502    0  0.00000000000E+00  0.00000000000E+00  0.30580840099E+03  0.30580840099E+03  0.00000000000E+00 0. -1.
         -1   -1    0    0    0  501 -0.00000000000E+00 -0.00000000000E+00 -0.82838266718E+02  0.82838266718E+02  0.00000000000E+00 0.  1.
         23    2    1    2    0    0  0.61423073278E+01  0.18513047319E+02 -0.34950456651E+02  0.10085971936E+03  0.92578008776E+02 0.  0.
         23    2    1    2    0    0  0.22813036067E+02 -0.24481438444E+02  0.18593903321E+03  0.20997063736E+03  0.91621880805E+02 0.  0.
        -11    1    4    4    0    0  0.48341167858E+02  0.32746383392E+01  0.53102720613E+02  0.71885260678E+02  0.00000000000E+00 0.  1.
         11    1    4    4    0    0 -0.25528131791E+02 -0.27756076784E+02  0.13283631259E+03  0.13808537669E+03  0.00000000000E+00 0. -1.
        -13    1    3    3    0    0  0.47457565819E+02  0.21957779842E+02 -0.26200264155E+02  0.58487763599E+02  0.00000000000E+00 0.  1.
         13    1    3    3    0    0 -0.41315258491E+02 -0.34447325233E+01 -0.87501924963E+01  0.42371955761E+02  0.00000000000E+00 0. -1.
         21    1    1    2  502  501 -0.28955343395E+02  0.59683911256E+01  0.71981557714E+02  0.77816310981E+02  0.00000000000E+00 0. -1.
<scales pt_clust_5="13000.00000" pt_clust_6="13000.00000" pt_clust_7="13000.00000" pt_clust_8="13000.00000" pt_clust_9="29.56406"></scales>
<clustering>
<clus scale="   29.564">  1  9  2 -1</clus>
<clus scale="   91.622">  5  6 -1 -1</clus>
<clus scale="   92.578">  7  8 -1 -1</clus>
<clus scale="   93.668">  1  5  2 -1</clus>
<clus scale="   29.564">  1  5  2 -1</clus>
</clustering>
</event>
<event>
 9    1  0.1803370E-005  0.1594678E+03  0.7546771E-02  0.1189815E+00
         -1   -1    0    0    0  501 -0.00000000000E+00  0.00000000000E+00  0.33782475244E+03  0.33782475244E+03  0.00000000000E+00 0.  1.
          1   -1    0    0  502    0  0.00000000000E+00 -0.00000000000E+00 -0.16840457169E+03  0.16840457169E+03  0.00000000000E+00 0. -1.
         23    2    1    2    0    0  0.10374900233E+03  0.84570568403E+02  0.15210486756E+03  0.22105694612E+03  0.88398224913E+02 0.  0.
         23    2    1    2    0    0 -0.59698879490E+02 -0.11869913168E+03  0.96740455339E+02  0.18814905422E+03  0.91585538328E+02 0.  0.
        -11    1    4    4    0    0 -0.45533124605E+02 -0.21036401030E+02  0.28993443480E+00  0.50158545299E+02  0.00000000000E+00 0.  1.
         11    1    4    4    0    0 -0.14165754885E+02 -0.97662730654E+02  0.96450520905E+02  0.13799050892E+03  0.00000000000E+00 0. -1.
        -13    1    3    3    0    0  0.86952846847E+02  0.46939687625E+02  0.49568322147E+02  0.11054931212E+03  0.00000000000E+00 0. -1.
         13    1    3    3    0    0  0.16796155480E+02  0.37630880779E+02  0.10253654542E+03  0.11050763400E+03  0.00000000000E+00 0.  1.
         21    1    1    2  502  501 -0.44050122837E+02  0.34128563280E+02 -0.79425142153E+02  0.97023323791E+02  0.00000000000E+00 0. -1.
<scales pt_clust_5="13000.00000" pt_clust_6="13000.00000" pt_clust_7="13000.00000" pt_clust_8="13000.00000" pt_clust_9="55.72407"></scales>
<clustering>
<clus scale="   55.724">  2  9  1 -1</clus>
<clus scale="   88.398">  7  8 -1 -1</clus>
<clus scale="   91.586">  5  6 -1 -1</clus>
<clus scale="  157.659">  1  7  2 -1</clus>
<clus scale="   55.724">  2  5  1 -1</clus>
</clustering>
</event>
<event>
 9    1  0.1803370E-005  0.9706308E+02  0.7546771E-02  0.1290151E+00
         -3   -1    0    0    0  501 -0.00000000000E+00  0.00000000000E+00  0.44362289279E+02  0.44362289279E+02  0.00000000000E+00 0.  1.
          3   -1    0    0  502    0  0.00000000000E+00 -0.00000000000E+00 -0.50877555533E+03  0.50877555533E+03  0.00000000000E+00 0. -1.
         23    2    1    2    0    0 -0.73750836933E+01 -0.17870986640E+02 -0.43187433789E+02  0.10723126078E+03  0.96226944396E+02 0.  0.
         23    2    1    2    0    0  0.16596240811E+02 -0.29532312053E+02 -0.31259871065E+03  0.32702868843E+03  0.89901148440E+02 0.  0.
        -11    1    4    4    0    0  0.16896845133E+02  0.29984956137E+02 -0.14946813306E+03  0.15337967196E+03  0.00000000000E+00 0. -1.
         11    1    4    4    0    0 -0.30060432286E+00 -0.59517268190E+02 -0.16313057759E+03  0.17364901647E+03  0.00000000000E+00 0.  1.
        -13    1    3    3    0    0  0.14147376744E+02  0.35907072959E+02 -0.78674571349E+01  0.39387346178E+02  0.00000000000E+00 0. -1.
         13    1    3    3    0    0 -0.21522460437E+02 -0.53778059598E+02 -0.35319976655E+02  0.67843914600E+02  0.00000000000E+00 0.  1.
         21    1    1    2  502  501 -0.92211571173E+01  0.47403298693E+02 -0.10862712162E+03  0.11887789541E+03  0.00000000000E+00 0. -1.
<scales pt_clust_5="13000.00000" pt_clust_6="13000.00000" pt_clust_7="13000.00000" pt_clust_8="13000.00000" pt_clust_9="48.29185"></scales>
<clustering>
<clus scale="   48.292">  2  9  1 -1</clus>
<clus scale="   89.901">  5  6 -1 -1</clus>
<clus scale="   90.796">  2  5  1 -1</clus>
<clus scale="   96.227">  7  8 -1 -1</clus>
<clus scale="   48.292">  2  5  1 -1</clus>
</clustering>
</event>
<event>
 9    1  0.1803370E-005  0.1548996E+03  0.7546771E-02  0.1196271E+00
         -2   -1    0    0    0  501 -0.00000000000E+00  0.00000000000E+00  0.46537476649E+03  0.46537476649E+03  0.00000000000E+00 0.  1.
          2   -1    0    0  502    0  0.00000000000E+00 -0.00000000000E+00 -0.72265946338E+02  0.72265946338E+02  0.00000000000E+00 0. -1.
         23    2    1    2    0    0  0.89914880471E+02 -0.78910830485E+02  0.17958460864E+03  0.23357260975E+03  0.89408766160E+02 0.  0.
         23    2    1    2    0    0 -0.12208904069E+03  0.32922486613E+02  0.16107193837E+03  0.22724788884E+03  0.98528217629E+02 0.  0.
        -13    1    3    3    0    0  0.17154506324E+02 -0.56404733006E+02  0.12985892532E+03  0.14261525682E+03  0.00000000000E+00 0.  1.
         13    1    3    3    0    0  0.72760374147E+02 -0.22506097479E+02  0.49725683317E+02  0.90957352925E+02  0.00000000000E+00 0. -1.
        -13    1    4    4    0    0 -0.91999284880E+02  0.66912866971E+02  0.12692067395E+03  0.17044077464E+03  0.00000000000E+00 0.  1.
         13    1    4    4    0    0 -0.30089755813E+02 -0.33990380358E+02  0.34151264419E+02  0.56807114195E+02  0.00000000000E+00 0. -1.
         21    1    1    2  502  501  0.32174160222E+02  0.45988343872E+02  0.52452273138E+02  0.76820214237E+02  0.00000000000E+00 0.  1.
<scales pt_clust_5="13000.00000" pt_clust_6="13000.00000" pt_clust_7="13000.00000" pt_clust_8="13000.00000" pt_clust_9="56.12579"></scales>
<clustering>
<clus scale="   56.126">  2  9  1 -1</clus>
<clus scale="   89.409">  5  6 -1 -1</clus>
<clus scale="   98.528">  7  8 -1 -1</clus>
<clus scale="  149.265">  1  5  2 -1</clus>
<clus scale="   56.126">  2  5  1 -1</clus>
</clustering>
</event>
<event>
 9    1  0.1803370E-005  0.1031067E+03  0.7546771E-02  0.1282024E+00
          3   -1    0    0  502    0  0.00000000000E+00  0.00000000000E+00  0.13238335745E+03  0.13238335745E+03  0.00000000000E+00 0. -1.
         -3   -1    0    0    0  501 -0.00000000000E+00 -0.00000000000E+00 -0.46147256401E+03  0.46147256401E+03  0.00000000000E+00 0.  1.
         23    2    1    2    0    0  0.47139347610E+00  0.55331396237E+02 -0.39966622240E+03  0.41362846480E+03  0.91069379841E+02 0.  0.
         23    2    1    2    0    0 -0.22450720999E+02 -0.15750921965E+02 -0.17931561309E+02  0.80811798898E+02  0.73870694690E+02 0.  0.
        -11    1    3    3    0    0  0.38412232710E+01  0.80729186596E+02 -0.29480662546E+03  0.30568431915E+03  0.00000000000E+00 0.  1.
         11    1    3    3    0    0 -0.33698297949E+01 -0.25397790358E+02 -0.10485959694E+03  0.10794414564E+03  0.00000000000E+00 0. -1.
        -13    1    4    4    0    0 -0.26292035091E+02  0.17530409117E+02 -0.31543800938E+02  0.44649722627E+02  0.00000000000E+00 0. -1.
         13    1    4    4    0    0  0.38413140916E+01 -0.33281331082E+02  0.13612239629E+02  0.36162076271E+02  0.00000000000E+00 0.  1.
         21    1    1    2  502  501  0.21979327523E+02 -0.39580474272E+02  0.88508577136E+02  0.99415657764E+02  0.00000000000E+00 0. -1.
<scales pt_clust_5="13000.00000" pt_clust_6="13000.00000" pt_clust_7="13000.00000" pt_clust_8="13000.00000" pt_clust_9="45.27367"></scales>
<clustering>
<clus scale="   45.274">  1  9  2 -1</clus>
<clus scale="   73.871">  7  8 -1 -1</clus>
<clus scale="   88.285">  1  7  2 -1</clus>
<clus scale="   91.069">  5  6 -1 -1</clus>
<clus scale="   45.274">  1  5  2 -1</clus>
</clustering>
</event>
<event>
 9    1  0.1803370E-005  0.1263985E+03  0.7546771E-02  0.1233267E+00
         -2   -1    0    0    0  501 -0.00000000000E+00  0.00000000000E+00  0.75887572325E+02  0.75887572325E+02  0.00000000000E+00 0. -1.
          2   -1    0    0  502    0  0.00000000000E+00 -0.00000000000E+00 -0.26281298010E+03  0.26281298010E+03  0.00000000000E+00 0.  1.
         23    2    1    2    0    0  0.12414168707E+02 -0.88908280895E+02 -0.60746399377E+02  0.14127107070E+03  0.90601304536E+02 0.  0.
         23    2    1    2    0    0 -0.36653666376E+02  0.80166318460E+02 -0.97603286553E+02  0.15895160453E+03  0.89269710213E+02 0.  0.
        -11    1    3    3    0    0 -0.27009217097E+02 -0.10057778268E+02  0.75044864830E+01  0.29782109215E+02  0.00000000000E+00 0.  1.
         11    1    3    3    0    0  0.39423385804E+02 -0.78850502627E+02 -0.68250885860E+02  0.11148896149E+03  0.00000000000E+00 0. -1.
        -13    1    4    4    0    0  0.18351126284E+02  0.47340659274E+02 -0.12239362540E+02  0.52227424326E+02  0.00000000000E+00 0. -1.
         13    1    4    4    0    0 -0.55004792660E+02  0.32825659186E+02 -0.85363924013E+02  0.10672418020E+03  0.00000000000E+00 0.  1.
         21    1    1    2  502  501  0.24239497670E+02  0.87419624351E+01 -0.28575721845E+02  0.38477877195E+02  0.00000000000E+00 0. -1.
<scales pt_clust_5="13000.00000" pt_clust_6="13000.00000" pt_clust_7="13000.00000" pt_clust_8="13000.00000" pt_clust_9="25.76772"></scales>
<clustering>
<clus scale="   25.768">  2  9  1 -1</clus>
<clus scale="   89.270">  7  8 -1 -1</clus>
<clus scale="   90.601">  5  6 -1 -1</clus>
<clus scale="  125.447">  2  7  1 -1</clus>
<clus scale="   25.768">  2  5  1 -1</clus>
</clustering>
</event>
<event>
 9    1  0.1803370E-005  0.1095956E+03  0.7546771E-02  0.1261513E+00
         -1   -1    0    0    0  501 -0.00000000000E+00  0.00000000000E+00  0.15143742929E+03  0.15143742929E+03  0.00000000000E+00 0.  1.
          1   -1    0    0  502    0  0.00000000000E+00 -0.00000000000E+00 -0.42764772568E+03  0.42764772568E+03  0.00000000000E+00 0. -1.
         23    2    1    2    0    0 -0.66300905692E+01 -0.60287099150E+02  0.12112550881E+03  0.16353082756E+03  0.91610317399E+02 0.  0.
         23    2    1    2    0    0  0.65289462078E+01  0.38861390729E+02 -0.33329504085E+03  0.34802440287E+03  0.92100846397E+02 0.  0.
        -11    1    4    4    0    0 -0.30917862541E+02 -0.13663011225E+02 -0.84683226386E+02  0.91180266127E+02  0.00000000000E+00 0.  1.
         11    1    4    4    0    0  0.37446808749E+02  0.52524401953E+02 -0.24861181447E+03  0.25684413674E+03  0.00000000000E+00 0. -1.
        -13    1    3    3    0    0  0.37720599539E+02 -0.27016670403E+02  0.86516853942E+02  0.98172858394E+02  0.00000000000E+00 0.  1.
         13    1    3    3    0    0 -0.44350690108E+02 -0.33270428747E+02  0.34608654867E+02  0.65357969168E+02  0.00000000000E+00 0. -1.
         21    1    1    2  502  501  0.10114436145E+00  0.21425708421E+02 -0.64040764345E+02  0.67529924547E+02  0.00000000000E+00 0. -1.
<scales pt_clust_5="13000.00000" pt_clust_6="13000.00000" pt_clust_7="13000.00000" pt_clust_8="13000.00000" pt_clust_9="21.42595"></scales>
<clustering>
<clus scale="   21.426">  2  9  1 -1</clus>
<clus scale="   91.610">  7  8 -1 -1</clus>
<clus scale="   92.101">  5  6 -1 -1</clus>
<clus scale="  109.184">  1  7  2 -1</clus>
<clus scale="   21.426">  2  5  1 -1</clus>
</clustering>
</event>
<event>
 9    1  0.1803370E-005  0.1058912E+03  0.7546771E-02  0.1274434E+00
          2   -1    0    0  502    0  0.00000000000E+00  0.00000000000E+00  0.47059804347E+03  0.47059804347E+03  0.00000000000E+00 0. -1.
         -2   -1    0    0    0  501 -0.00000000000E+00 -0.00000000000E+00 -0.29967652647E+02  0.29967652647E+02  0.00000000000E+00 0.  1.
         23    2    1    2    0    0 -0.30749029175E+02  0.17167572345E+01  0.13716045203E+03  0.17424207602E+03  0.10295077175E+03 0.  0.
         23    2    1    2    0    0  0.11281770163E+02 -0.18066325764E+02  0.25576138273E+03  0.27226449611E+03  0.90886745364E+02 0.  0.
        -11    1    3    3    0    0  0.28207928272E+02 -0.21763984378E+02  0.19642231077E+02  0.40683847840E+02  0.00000000000E+00 0.  1.
         11    1    3    3    0    0 -0.58956957447E+02  0.23480741613E+02  0.11751822095E+03  0.13355822818E+03  0.00000000000E+00 0. -1.
        -13    1    4    4    0    0  0.29828836491E+02  0.15543307722E+02  0.36366559646E+02  0.49536658767E+02  0.00000000000E+00 0. -1.
         13    1    4    4    0    0 -0.18547066328E+02 -0.33609633486E+02  0.21939482308E+03  0.22272783734E+03  0.00000000000E+00 0.  1.
         21    1    1    2  502  501  0.19467259012E+02  0.16349568530E+02  0.47708556067E+02  0.54059123990E+02  0.00000000000E+00 0.  1.
<scales pt_clust_5="13000.00000" pt_clust_6="13000.00000" pt_clust_7="13000.00000" pt_clust_8="13000.00000" pt_clust_9="25.42209"></scales>
<clustering>
<clus scale="   25.422">  1  9  2 -1</clus>
<clus scale="   90.887">  7  8 -1 -1</clus>
<clus scale="   94.205">  1  7  2 -1</clus>
<clus scale="  102.951">  5  6 -1 -1</clus>
<clus scale="   25.422">  1  5  2 -1</clus>
</clustering>
</event>
<event>
 9    1  0.1803370E-005  0.1560599E+03  0.7546771E-02  0.1193752E+00
         -2   -1    0    0    0  501 -0.00000000000E+00  0.00000000000E+00  0.11969325954E+03  0.11969325954E+03  0.00000000000E+00 0.  1.
          2   -1    0    0  502    0  0.00000000000E+00 -0.00000000000E+00 -0.45876393451E+03  0.45876393451E+03  0.00000000000E+00 0. -1.
         23    2    1    2    0    0  0.13214267144E+03 -0.39155892507E+02  0.27006160198E+02  0.16660727230E+03  0.89631361485E+02 0.  0.
         23    2    1    2    0    0 -0.79330796923E+02  0.11567760273E+01 -0.26337049967E+03  0.29027024295E+03  0.92725834470E+02 0.  0.
        -11    1    3    3    0    0  0.36093035242E+02 -0.52127829592E+02 -0.72347410921E+01  0.63815039682E+02  0.00000000000E+00 0. -1.
         11    1    3    3    0    0  0.96049636201E+02  0.12971937085E+02  0.34240901290E+02  0.10279223262E+03  0.00000000000E+00 0.  1.
        -13    1    4    4    0    0 -0.19653388959E+02 -0.40515621128E+02 -0.65932890318E+02  0.79843079090E+02  0.00000000000E+00 0. -1.
         13    1    4    4    0    0 -0.59677407964E+02  0.41672397155E+02 -0.19743760935E+03  0.21042716386E+03  0.00000000000E+00 0.  1.
         21    1    1    2  502  501 -0.52811874520E+02  0.37999116480E+02 -0.10270633550E+03  0.12157967879E+03  0.00000000000E+00 0. -1.
<scales pt_clust_5="13000.00000" pt_clust_6="13000.00000" pt_clust_7="13000.00000" pt_clust_8="13000.00000" pt_clust_9="65.06172"></scales>
<clustering>
<clus scale="   65.062">  2  9  1 -1</clus>
<clus scale="   89.631">  5  6 -1 -1</clus>
<clus scale="   92.726">  7  8 -1 -1</clus>
<clus scale="  154.241">  1  5  2 -1</clus>
<clus scale="   65.062">  2  5  1 -1</clus>
</clustering>
</event>
<event>
 9    1  0.1803370E-005  0.9283630E+02  0.7546771E-02  0.1298053E+00
         -3   -1    0    0    0  501 -0.00000000000E+00  0.00000000000E+00  0.18986606042E+03  0.18986606042E+03  0.00000000000E+00 0.  1.
          3   -1    0    0  502    0  0.00000000000E+00 -0.00000000000E+00 -0.65118790448E+02  0.65118790448E+02  0.00000000000E+00 0. -1.
         23    2    1    2    0    0  0.11811359631E+02  0.10702711969E+02  0.71310264043E+02  0.11272278457E+03  0.85832488854E+02 0.  0.
         23    2    1    2    0    0 -0.43712740574E+02 -0.76869597330E+01  0.37541099944E+02  0.10649234874E+03  0.89226639052E+02 0.  0.
        -11    1    4    4    0    0  0.46352702448E+01 -0.34925423902E+02 -0.62754952601E+01  0.35786209715E+02  0.00000000000E+00 0.  1.
         11    1    4    4    0    0 -0.48348010819E+02  0.27238464169E+02  0.43816595204E+02  0.70706139024E+02  0.00000000000E+00 0. -1.
        -13    1    3    3    0    0  0.39530653859E+02  0.15203273339E+02  0.75079311984E+01  0.43013732059E+02  0.00000000000E+00 0.  1.
         13    1    3    3    0    0 -0.27719294228E+02 -0.45005613698E+01  0.63802332844E+02  0.69709052508E+02  0.00000000000E+00 0. -1.
         21    1    1    2  502  501  0.31901380943E+02 -0.30157522360E+01  0.15895905989E+02  0.35769717567E+02  0.00000000000E+00 0. -1.
<scales pt_clust_5="13000.00000" pt_clust_6="13000.00000" pt_clust_7="13000.00000" pt_clust_8="13000.00000" pt_clust_9="32.04361"></scales>
<clustering>
<clus scale="   32.044">  2  9  1 -1</clus>
<clus scale="   85.832">  7  8 -1 -1</clus>
<clus scale="   89.227">  5  6 -1 -1</clus>
<clus scale="   89.579">  1  7  2 -1</clus>
<clus scale="   32.044">  2  5  1 -1</clus>
</clustering>
</event>
<event>
 9    1  0.1803370E-005  0.1343508E+03  0.7546771E-02  0.1221141E+00
          1   -1    0    0  502    0  0.00000000000E+00  0.00000000000E+00  0.14912501471E+03  0.14912501471E+03  0.00000000000E+00 0. -1.
         -1   -1    0    0    0  501 -0.00000000000E+00 -0.00000000000E+00 -0.16795351485E+03  0.16795351485E+03  0.00000000000E+00 0.  1.
         23    2    1    2    0    0 -0.10226052121E+03 -0.25941816210E+02 -0.68982145692E+02  0.15523005131E+03  0.90596028491E+02 0.  0.
         23    2    1    2    0    0  0.78402529696E+02  0.37144194202E+02  0.51156685087E+02  0.13547229353E+03  0.90604017900E+02 0.  0.
        -11    1    4    4    0    0 -0.19235813268E+02  0.10230903124E+02 -0.47214330044E+00  0.21792448465E+02  0.00000000000E+00 0.  1.
         11    1    4    4    0    0  0.97638342964E+02  0.26913291078E+02  0.51628828388E+02  0.11367984507E+03  0.00000000000E+00 0. -1.
        -13    1    3    3    0    0 -0.14371918596E+02 -0.43260551694E+02 -0.41192516237E+02  0.61439814216E+02  0.00000000000E+00 0. -1.
         13    1    3    3    0    0 -0.87888602619E+02  0.17318735484E+02 -0.27789629455E+02  0.93790237095E+02  0.00000000000E+00 0.  1.
         21    1    1    2  502  501  0.23857991519E+02 -0.11202377992E+02 -0.10030395405E+01  0.26376184718E+02  0.00000000000E+00 0.  1.
<scales pt_clust_5="13000.00000" pt_clust_6="13000.00000" pt_clust_7="13000.00000" pt_clust_8="13000.00000" pt_clust_9="26.35711"></scales>
<clustering>
<clus scale="   26.357">  1  9  2 -1</clus>
<clus scale="   90.596">  7  8 -1 -1</clus>
<clus scale="   90.604">  5  6 -1 -1</clus>
<clus scale="  134.345">  2  7  1 -1</clus>
<clus scale="   26.357">  1  5  2 -1</clus>
</clustering>
</event>
<event>
 9    1  0.1803370E-005  0.1066361E+03  0.7546771E-02  0.1269631E+00
         -1   -1    0    0    0  501 -0.00000000000E+00  0.00000000000E+00  0.16413756987E+03  0.16413756987E+03  0.00000000000E+00 0.  1.
          1   -1    0    0  502    0  0.00000000000E+00 -0.00000000000E+00 -0.12978130786E+03  0.12978130786E+03  0.00000000000E+00 0. -1.
         23    2    1    2    0    0  0.10997573574E+02  0.48496703155E+02  0.10137201817E+03  0.14198967590E+03  0.86092422148E+02 0.  0.
         23    2    1    2    0    0 -0.63389319121E+01 -0.68249374058E+02 -0.50079131963E+02  0.12549588594E+03  0.92429101543E+02 0.  0.
        -11    1    3    3    0    0 -0.18228034282E+02 -0.14493123052E+02  0.51427029434E+02  0.56453974226E+02  0.00000000000E+00 0.  1.
         11    1    3    3    0    0  0.29225607856E+02  0.62989826206E+02  0.49944988741E+02  0.85535701671E+02  0.00000000000E+00 0. -1.
        -13    1    4    4    0    0  0.14672141561E+02 -0.84823618855E+02 -0.48223455818E+02  0.98670257649E+02  0.00000000000E+00 0.  1.
         13    1    4    4    0    0 -0.21011073473E+02  0.16574244797E+02 -0.18556761458E+01  0.26825628288E+02  0.00000000000E+00 0. -1.
         21    1    1    2  502  501 -0.46586416617E+01  0.19752670903E+02 -0.16936624199E+02  0.26433315895E+02  0.00000000000E+00 0. -1.
<scales pt_clust_5="13000.00000" pt_clust_6="13000.00000" pt_clust_7="13000.00000" pt_clust_8="13000.00000" pt_clust_9="20.29460"></scales>
<clustering>
<clus scale="   20.295">  2  9  1 -1</clus>
<clus scale="   86.092">  5  6 -1 -1</clus>
<clus scale="   92.429">  7  8 -1 -1</clus>
<clus scale="  101.193">  1  5  2 -1</clus>
<clus scale="   20.295">  2  5  1 -1</clus>
</clustering>
</event>
<event>
 9    1  0.1803370E-005  0.1118773E+03  0.7546771E-02  0.1257337E+00
         -2   -1    0    0    0  501 -0.00000000000E+00  0.00000000000E+00  0.14302343347E+03  0.14302343347E+03  0.00000000000E+00 0.  1.
          2   -1    0    0  502    0  0.00000000000E+00 -0.00000000000E+00 -0.17681713381E+03  0.17681713381E+03  0.00000000000E+00 0. -1.
         23    2    1    2    0    0 -0.31725895487E+02  0.47078363235E+02  0.59475451516E+02  0.12366581442E+03  0.92374236639E+02 0.  0.
         23    2    1    2    0    0  0.55099255693E+02 -0.52389054348E+02 -0.23412076975E+02  0.12231997427E+03  0.92916681840E+02 0.  0.
        -11    1    4    4    0    0  0.73436191563E+02 -0.35121825129E+02 -0.41441819209E+02  0.91344628802E+02  0.00000000000E+00 0. -1.
         11    1    4    4    0    0 -0.18336935870E+02 -0.17267229219E+02  0.18029742233E+02  0.30975345470E+02  0.00000000000E+00 0.  1.
        -13    1    3    3    0    0 -0.29016994445E+02 -0.40164019663E+00  0.69276523970E+02  0.75109147611E+02  0.00000000000E+00 0.  1.
         13    1    3    3    0    0 -0.27089010418E+01  0.47480003432E+02 -0.98010724535E+01  0.48556666813E+02  0.00000000000E+00 0. -1.
         21    1    1    2  502  501 -0.23373360206E+02  0.53106911132E+01 -0.69857074887E+02  0.73854778581E+02  0.00000000000E+00 0. -1.
<scales pt_clust_5="13000.00000" pt_clust_6="13000.00000" pt_clust_7="13000.00000" pt_clust_8="13000.00000" pt_clust_9="23.96909"></scales>
<clustering>
<clus scale="   23.969">  2  9  1 -1</clus>
<clus scale="   92.374">  7  8 -1 -1</clus>
<clus scale="   92.917">  5  6 -1 -1</clus>
<clus scale="  111.427">  1  7  2 -1</clus>
<clus scale="   23.969">  2  5  1 -1</clus>
</clustering>
</event>
<event>
 9    1  0.1803370E-005  0.9835683E+02  0.7546771E-02  0.1286404E+00
         -2   -1    0    0    0  501 -0.00000000000E+00  0.00000000000E+00  0.27976263058E+02  0.27976263058E+02  0.00000000000E+00 0.  1.
          2   -1    0    0  502    0  0.00000000000E+00 -0.00000000000E+00 -0.66106226115E+03  0.66106226115E+03  0.00000000000E+00 0. -1.
         23    2    1    2    0    0 -0.14930665198E+02  0.26524831413E+02 -0.11922269718E+03  0.15281051752E+03  0.90611871721E+02 0.  0.
         23    2    1    2    0    0  0.29188377159E+02  0.14311795200E+02 -0.26338921225E+03  0.28204661179E+03  0.95496728992E+02 0.  0.
        -11    1    3    3    0    0 -0.85520340264E+01  0.49923645615E+02 -0.26890746750E+02  0.57346490200E+02  0.00000000000E+00 0.  1.
         11    1    3    3    0    0 -0.63786311713E+01 -0.23398814202E+02 -0.92331950431E+02  0.95464027320E+02  0.00000000000E+00 0. -1.
        -13    1    4    4    0    0  0.53251780215E+02 -0.18929527194E+02 -0.18671969547E+03  0.19508542686E+03  0.00000000000E+00 0. -1.
         13    1    4    4    0    0 -0.24063403057E+02  0.33241322394E+02 -0.76669516780E+02  0.86961184930E+02  0.00000000000E+00 0.  1.
         21    1    1    2  502  501 -0.14257711961E+02 -0.40836626613E+02 -0.25047408866E+03  0.25418139491E+03  0.00000000000E+00 0. -1.
<scales pt_clust_5="13000.00000" pt_clust_6="13000.00000" pt_clust_7="13000.00000" pt_clust_8="13000.00000" pt_clust_9="43.25405"></scales>
<clustering>
<clus scale="   43.254">  2  9  1 -1</clus>
<clus scale="   90.612">  5  6 -1 -1</clus>
<clus scale="   93.621">  1  5  2 -1</clus>
<clus scale="   95.497">  7  8 -1 -1</clus>
<clus scale="   43.254">  2  5  1 -1</clus>
</clustering>
</event>
<event>
 9    1  0.1803370E-005  0.2245203E+03  0.7546771E-02  0.1130828E+00
         -2   -1    0    0    0  501 -0.00000000000E+00  0.00000000000E+00  0.29756576179E+03  0.29756576179E+03  0.00000000000E+00 0. -1.
          2   -1    0    0  502    0  0.00000000000E+00 -0.00000000000E+00 -0.21781084668E+03  0.21781084668E+03  0.00000000000E+00 0.  1.
         23    2    1    2    0    0  0.21754530027E+03 -0.15799529897E+02  0.12352336878E+03  0.26721610764E+03  0.92578846049E+02 0.  0.
         23    2    1    2    0    0 -0.18282912468E+03 -0.46540740941E+01 -0.29864377868E+02  0.20553555405E+03  0.88909131563E+02 0.  0.
        -13    1    4    4    0    0 -0.77445761361E+02  0.41900093084E+02 -0.98707261883E+01  0.88605276302E+02  0.00000000000E+00 0.  1.
         13    1    4    4    0    0 -0.10538336332E+03 -0.46554167178E+02 -0.19993651679E+02  0.11693027775E+03  0.00000000000E+00 0. -1.
        -13    1    3    3    0    0  0.35423066341E+02 -0.33230456017E+02  0.50954993573E+02  0.70395086520E+02  0.00000000000E+00 0. -1.
         13    1    3    3    0    0  0.18212223393E+03  0.17430926120E+02  0.72568375203E+02  0.19682102112E+03  0.00000000000E+00 0.  1.
         21    1    1    2  502  501 -0.34716175583E+02  0.20453603991E+02 -0.13904075801E+02  0.42624946770E+02  0.00000000000E+00 0. -1.
<scales pt_clust_5="13000.00000" pt_clust_6="13000.00000" pt_clust_7="13000.00000" pt_clust_8="13000.00000" pt_clust_9="40.29346"></scales>
<clustering>
<clus scale="   40.293">  2  9  1 -1</clus>
<clus scale="   88.909">  5  6 -1 -1</clus>
<clus scale="   92.579">  7  8 -1 -1</clus>
<clus scale="  223.032">  2  5  1 -1</clus>
<clus scale="   40.293">  2  5  1 -1</clus>
</clustering>
</event>
<event>
 9    1  0.1803370E-005  0.1078686E+03  0.7546771E-02  0.1264974E+00
         -4   -1    0    0    0  501 -0.00000000000E+00  0.00000000000E+00  0.18660185596E+03  0.18660185596E+03  0.00000000000E+00 0.  1.
          4   -1    0    0  502    0  0.00000000000E+00 -0.00000000000E+00 -0.14133223884E+03  0.14133223884E+03  0.00000000000E+00 0. -1.
         23    2    1    2    0    0 -0.55342340268E+01  0.49421033537E+02  0.11167339759E+03  0.15358142358E+03  0.92969025139E+02 0.  0.
         23    2    1    2    0    0  0.30494943009E+02 -0.67457990301E+02 -0.21671649440E+02  0.12004491534E+03  0.91981516103E+02 0.  0.
        -11    1    4    4    0    0  0.51211343410E+02 -0.74560072494E+02 -0.31847683445E+02  0.95896199325E+02  0.00000000000E+00 0. -1.
         11    1    4    4    0    0 -0.20716400401E+02  0.71020821930E+01  0.10176034005E+02  0.24148716014E+02  0.00000000000E+00 0.  1.
        -13    1    3    3    0    0  0.26861190544E+02  0.10414517695E+01  0.85717687888E+02  0.89833903377E+02  0.00000000000E+00 0.  1.
         13    1    3    3    0    0 -0.32395424571E+02  0.48379581767E+02  0.25955709706E+02  0.63747520198E+02  0.00000000000E+00 0. -1.
         21    1    1    2  502  501 -0.24960708983E+02  0.18036956764E+02 -0.44732131031E+02  0.54307755881E+02  0.00000000000E+00 0. -1.
<scales pt_clust_5="13000.00000" pt_clust_6="13000.00000" pt_clust_7="13000.00000" pt_clust_8="13000.00000" pt_clust_9="30.79560"></scales>
<clustering>
<clus scale="   30.796">  2  9  1 -1</clus>
<clus scale="   91.982">  5  6 -1 -1</clus>
<clus scale="   92.969">  7  8 -1 -1</clus>
<clus scale="  107.019">  2  5  1 -1</clus>
<clus scale="   30.796">  2  5  1 -1</clus>
</clustering>
</event>
<event>
 9    1  0.1803370E-005  0.9358425E+02  0.7546771E-02  0.1294946E+00
          1   -1    0    0  502    0  0.00000000000E+00  0.00000000000E+00  0.12664310814E+03  0.12664310814E+03  0.00000000000E+00 0. -1.
         -1   -1    0    0    0  501 -0.00000000000E+00 -0.00000000000E+00 -0.14573442589E+03  0.14573442589E+03  0.00000000000E+00 0.  1.
         23    2    1    2    0    0 -0.11110727766E+02  0.84044040055E+01 -0.82331972385E+02  0.12320203377E+03  0.90587555274E+02 0.  0.
         23    2    1    2    0    0  0.35990278908E+02 -0.96752783645E+01  0.22437187139E+02  0.10136828169E+03  0.91559761789E+02 0.  0.
        -11    1    3    3    0    0  0.29279444935E+02 -0.86611228216E+01 -0.70267966036E+00  0.30541687952E+02  0.00000000000E+00 0. -1.
         11    1    3    3    0    0 -0.40390172701E+02  0.17065526827E+02 -0.81629292725E+02  0.92660345820E+02  0.00000000000E+00 0.  1.
        -13    1    4    4    0    0  0.19027255188E+02 -0.47832266007E+02 -0.45032020653E+01  0.51674374115E+02  0.00000000000E+00 0. -1.
         13    1    4    4    0    0  0.16963023720E+02  0.38156987642E+02  0.26940389204E+02  0.49693907576E+02  0.00000000000E+00 0.  1.
         21    1    1    2  502  501 -0.24879551143E+02  0.12708743590E+01  0.40803467500E+02  0.47807218563E+02  0.00000000000E+00 0.  1.
<scales pt_clust_5="13000.00000" pt_clust_6="13000.00000" pt_clust_7="13000.00000" pt_clust_8="13000.00000" pt_clust_9="24.91199"></scales>
<clustering>
<clus scale="   24.912">  1  9  2 -1</clus>
<clus scale="   90.588">  5  6 -1 -1</clus>
<clus scale="   91.560">  7  8 -1 -1</clus>
<clus scale="   92.633">  2  5  1 -1</clus>
<clus scale="   24.912">  1  5  2 -1</clus>
</clustering>
</event>
<event>
 9    1  0.1803370E-005  0.1161145E+03  0.7546771E-02  0.1249967E+00
         -1   -1    0    0    0  501 -0.00000000000E+00  0.00000000000E+00  0.86763953602E+02  0.86763953602E+02  0.00000000000E+00 0.  1.
          1   -1    0    0  502    0  0.00000000000E+00 -0.00000000000E+00 -0.31271736694E+03  0.31271736694E+03  0.00000000000E+00 0. -1.
         23    2    1    2    0    0  0.67687387508E+02 -0.10040254735E+02  0.15698443486E+02  0.11470357890E+03  0.90708768829E+02 0.  0.
         23    2    1    2    0    0 -0.85793112719E+02 -0.68534811713E+01 -0.20696978532E+03  0.24216246642E+03  0.91644638210E+02 0.  0.
        -11    1    4    4    0    0 -0.63020559815E+02 -0.12593502324E+02 -0.20893499422E+03  0.21859556050E+03  0.00000000000E+00 0. -1.
         11    1    4    4    0    0 -0.22772552904E+02  0.57400211524E+01  0.19652089013E+01  0.23566905919E+02  0.00000000000E+00 0.  1.
        -13    1    3    3    0    0  0.84386457372E+02 -0.28062213197E+02  0.10075231267E+02  0.89499007159E+02  0.00000000000E+00 0.  1.
         13    1    3    3    0    0 -0.16699069864E+02  0.18021958463E+02  0.56232122195E+01  0.25204571744E+02  0.00000000000E+00 0. -1.
         21    1    1    2  502  501  0.18105725211E+02  0.16893735906E+02 -0.34682071510E+02  0.42615275225E+02  0.00000000000E+00 0.  1.
<scales pt_clust_5="13000.00000" pt_clust_6="13000.00000" pt_clust_7="13000.00000" pt_clust_8="13000.00000" pt_clust_9="24.76319"></scales>
<clustering>
<clus scale="   24.763">  2  9  1 -1</clus>
<clus scale="   90.709">  7  8 -1 -1</clus>
<clus scale="   91.645">  5  6 -1 -1</clus>
<clus scale="  115.377">  1  7  2 -1</clus>
<clus scale="   24.763">  2  5  1 -1</clus>
</clustering>
</event>
<event>
 9    1  0.1803370E-005  0.9552201E+02  0.7546771E-02  0.1291223E+00
         -2   -1    0    0    0  501 -0.00000000000E+00  0.00000000000E+00  0.56708745704E+03  0.56708745704E+03  0.00000000000E+00 0.  1.
          2   -1    0    0  502    0  0.00000000000E+00 -0.00000000000E+00 -0.20235937024E+03  0.20235937024E+03  0.00000000000E+00 0. -1.
         23    2    1    2    0    0 -0.25857421640E+02  0.30849691760E+02  0.29583342974E+03  0.31206800502E+03  0.90822419422E+02 0.  0.
         23    2    1    2    0    0  0.25548497170E+02  0.15152990868E+01  0.25361325989E+03  0.26984602432E+03  0.88556024139E+02 0.  0.
        -11    1    3    3    0    0 -0.43815723430E+02  0.51397161564E+02  0.24764003083E+03  0.25668476914E+03  0.00000000000E+00 0.  1.
         11    1    3    3    0    0  0.17958301790E+02 -0.20547469804E+02  0.48193398910E+02  0.55383235884E+02  0.00000000000E+00 0. -1.
        -13    1    4    4    0    0  0.12146826177E+02  0.45026415351E+02  0.12582613187E+03  0.13419068122E+03  0.00000000000E+00 0.  1.
         13    1    4    4    0    0  0.13401670993E+02 -0.43511116264E+02  0.12778712802E+03  0.13565534310E+03  0.00000000000E+00 0. -1.
         21    1    1    2  502  501  0.30892447004E+00 -0.32364990847E+02 -0.18471860283E+03  0.18753279793E+03  0.00000000000E+00 0. -1.
<scales pt_clust_5="13000.00000" pt_clust_6="13000.00000" pt_clust_7="13000.00000" pt_clust_8="13000.00000" pt_clust_9="32.36647"></scales>
<clustering>
<clus scale="   32.366">  2  9  1 -1</clus>
<clus scale="   88.556">  7  8 -1 -1</clus>
<clus scale="   90.822">  5  6 -1 -1</clus>
<clus scale="   93.370">  2  7  1 -1</clus>
<clus scale="   32.366">  2  5  1 -1</clus>
</clustering>
</event>
<event>
 9    1  0.1803370E-005  0.1500273E+03  0.7546771E-02  0.1202757E+00
         -2   -1    0    0    0  501 -0.00000000000E+00  0.00000000000E+00  0.22448576738E+03  0.22448576738E+03  0.00000000000E+00 0.  1.
          2   -1    0    0  502    0  0.00000000000E+00 -0.00000000000E+00 -0.57348996238E+03  0.57348996238E+03  0.00000000000E+00 0. -1.
         23    2    1    2    0    0  0.18377813521E+02  0.11193487752E+03  0.18205366116E+03  0.23542159837E+03  0.97018722957E+02 0.  0.
         23    2    1    2    0    0 -0.35779407940E+01 -0.13371525648E+03 -0.47067778331E+03  0.49668172184E+03  0.85220805164E+02 0.  0.
        -11    1    4    4    0    0  0.18642204841E+02 -0.13478317285E+03 -0.41440120017E+03  0.43616784635E+03  0.00000000000E+00 0. -1.
         11    1    4    4    0    0 -0.22220145635E+02  0.10679163662E+01 -0.56276583133E+02  0.60513875488E+02  0.00000000000E+00 0.  1.
        -13    1    3    3    0    0 -0.53999234110E+01  0.12085948008E+03  0.16588426291E+03  0.20531381293E+03  0.00000000000E+00 0.  1.
         13    1    3    3    0    0  0.23777736932E+02 -0.89246025647E+01  0.16169398250E+02  0.30107785444E+02  0.00000000000E+00 0. -1.
         21    1    1    2  502  501 -0.14799872727E+02  0.21780378964E+02 -0.60380072856E+02  0.65872409540E+02  0.00000000000E+00 0. -1.
<scales pt_clust_5="13000.00000" pt_clust_6="13000.00000" pt_clust_7="13000.00000" pt_clust_8="13000.00000" pt_clust_9="26.33289"></scales>
<clustering>
<clus scale="   26.333">  2  9  1 -1</clus>
<clus scale="   85.221">  5  6 -1 -1</clus>
<clus scale="   97.019">  7  8 -1 -1</clus>
<clus scale="  142.682">  2  5  1 -1</clus>
<clus scale="   26.333">  2  5  1 -1</clus>
</clustering>
</event>
<event>
 9    1  0.1803370E-005  0.1026251E+03  0.7546771E-02  0.1276642E+00
         -1   -1    0    0    0  501 -0.00000000000E+00  0.00000000000E+00  0.24434087520E+03  0.24434087520E+03  0.00000000000E+00 0.  1.
          1   -1    0    0  502    0  0.00000000000E+00 -0.00000000000E+00 -0.10016263178E+03  0.10016263178E+03  0.00000000000E+00 0. -1.
         23    2    1    2    0    0  0.46026477927E+02 -0.20633321564E+02  0.17832902766E+03  0.20557169192E+03  0.88962395322E+02 0.  0.
         23    2    1    2    0    0 -0.15797103021E+02 -0.49772252438E+01 -0.30943016647E+02  0.99182538492E+02  0.92765211299E+02 0.  0.
        -11    1    4    4    0    0 -0.32525176891E+02 -0.18488066697E+02 -0.55252688462E+02  0.66727470537E+02  0.00000000000E+00 0. -1.
         11    1    4    4    0    0  0.16728073871E+02  0.13510841453E+02  0.24309671815E+02  0.32455067954E+02  0.00000000000E+00 0.  1.
        -13    1    3    3    0    0  0.41001544960E+02 -0.54256753631E+02  0.11179228735E+03  0.13085273216E+03  0.00000000000E+00 0. -1.
         13    1    3    3    0    0  0.50249329670E+01  0.33623432067E+02  0.66536740313E+02  0.74718959754E+02  0.00000000000E+00 0.  1.
         21    1    1    2  502  501 -0.30229374906E+02  0.25610546807E+02 -0.32077675917E+01  0.39749276571E+02  0.00000000000E+00 0.  1.
<scales pt_clust_5="13000.00000" pt_clust_6="13000.00000" pt_clust_7="13000.00000" pt_clust_8="13000.00000" pt_clust_9="39.61963"></scales>
<clustering>
<clus scale="   39.620">  2  9  1 -1</clus>
<clus scale="   88.962">  7  8 -1 -1</clus>
<clus scale="   92.765">  5  6 -1 -1</clus>
<clus scale="   99.201">  1  7  2 -1</clus>
<clus scale="   39.620">  2  5  1 -1</clus>
</clustering>
</event>
<event>
 9    1  0.1803370E-005  0.1094565E+03  0.7546771E-02  0.1264860E+00
         -4   -1    0    0    0  501 -0.00000000000E+00  0.00000000000E+00  0.37726978333E+02  0.37726978333E+02  0.00000000000E+00 0.  1.
          4   -1    0    0  502    0  0.00000000000E+00 -0.00000000000E+00 -0.42258150963E+03  0.42258150963E+03  0.00000000000E+00 0. -1.
         23    2    1    2    0    0 -0.37014846126E+02  0.49542884527E+01 -0.11808302933E+03  0.15890713026E+03  0.99565206898E+02 0.  0.
         23    2    1    2    0    0  0.56733175339E+02  0.80275623976E+01 -0.16874008637E+03  0.20056733863E+03  0.92037740271E+02 0.  0.
        -11    1    3    3    0    0 -0.71044359530E+02  0.10641722725E+02 -0.79819299935E+02  0.10738560390E+03  0.00000000000E+00 0. -1.
         11    1    3    3    0    0  0.34029513404E+02 -0.56874342726E+01 -0.38263729398E+02  0.51521526361E+02  0.00000000000E+00 0.  1.
        -11    1    4    4    0    0  0.66247935789E+02  0.35437667606E+02 -0.14406702228E+03  0.16248053481E+03  0.00000000000E+00 0.  1.
         11    1    4    4    0    0 -0.95147604502E+01 -0.27410105208E+02 -0.24673064092E+02  0.38086803825E+02  0.00000000000E+00 0. -1.
         21    1    1    2  502  501 -0.19718329213E+02 -0.12981850850E+02 -0.98031415588E+02  0.10083401906E+03  0.00000000000E+00 0. -1.
<scales pt_clust_5="13000.00000" pt_clust_6="13000.00000" pt_clust_7="13000.00000" pt_clust_8="13000.00000" pt_clust_9="23.60807"></scales>
<clustering>
<clus scale="   23.608">  2  9  1 -1</clus>
<clus scale="   92.038">  7  8 -1 -1</clus>
<clus scale="   99.565">  5  6 -1 -1</clus>
<clus scale="  102.657">  2  7  1 -1</clus>
<clus scale="   23.608">  2  5  1 -1</clus>
</clustering>
</event>
<event>
 9    1  0.1803370E-005  0.1060803E+03  0.7546771E-02  0.1268394E+00
          2   -1    0    0  502    0  0.00000000000E+00  0.00000000000E+00  0.23503175967E+03  0.23503175967E+03  0.00000000000E+00 0. -1.
         -2   -1    0    0    0  501 -0.00000000000E+00 -0.00000000000E+00 -0.94522959212E+02  0.94522959212E+02  0.00000000000E+00 0.  1.
         23    2    1    2    0    0  0.39331307321E+02  0.54992693415E+01 -0.32866117586E+01  0.10082894225E+03  0.92620084646E+02 0.  0.
         23    2    1    2    0    0 -0.68915596655E+02 -0.36333779705E+02  0.59545108182E+02  0.13425826404E+03  0.91706916562E+02 0.  0.
        -11    1    4    4    0    0 -0.33732996895E+02 -0.31015765036E+02 -0.17769039988E+02  0.49149074685E+02  0.00000000000E+00 0.  1.
         11    1    4    4    0    0 -0.35182599759E+02 -0.53180146690E+01  0.77314148170E+02  0.85109189358E+02  0.00000000000E+00 0. -1.
        -11    1    3    3    0    0  0.20656232107E+02  0.40902725308E+02 -0.28083115433E+02  0.53743597152E+02  0.00000000000E+00 0. -1.
         11    1    3    3    0    0  0.18675075214E+02 -0.35403455966E+02  0.24796503674E+02  0.47085345099E+02  0.00000000000E+00 0.  1.
         21    1    1    2  502  501  0.29584289333E+02  0.30834510364E+02  0.84250304034E+02  0.94467512588E+02  0.00000000000E+00 0. -1.
<scales pt_clust_5="13000.00000" pt_clust_6="13000.00000" pt_clust_7="13000.00000" pt_clust_8="13000.00000" pt_clust_9="42.73169"></scales>
<clustering>
<clus scale="   42.732">  1  9  2 -1</clus>
<clus scale="   91.707">  5  6 -1 -1</clus>
<clus scale="   92.620">  7  8 -1 -1</clus>
<clus scale="  105.284">  1  5  2 -1</clus>
<clus scale="   42.732">  1  5  2 -1</clus>
</clustering>
</event>
<event>
 9    1  0.1803370E-005  0.1009777E+03  0.7546771E-02  0.1281409E+00
         -1   -1    0    0    0  501 -0.00000000000E+00  0.00000000000E+00  0.61308664961E+03  0.61308664961E+03  0.00000000000E+00 0.  1.
          1   -1    0    0  502    0  0.00000000000E+00 -0.00000000000E+00 -0.37434363392E+02  0.37434363392E+02  0.00000000000E+00 0. -1.
         23    2    1    2    0    0  0.40590056352E+02 -0.28933047297E+02  0.33972124921E+03  0.35651626775E+03  0.95961701251E+02 0.  0.
         23    2    1    2    0    0 -0.16487541822E+02 -0.30630233562E+01  0.23695267182E+03  0.25393326559E+03  0.89745827453E+02 0.  0.
        -13    1    3    3    0    0  0.49295717933E+02  0.10692707304E+02  0.27877166403E+03  0.28329850416E+03  0.00000000000E+00 0.  1.
         13    1    3    3    0    0 -0.87056615811E+01 -0.39625754600E+02  0.60949585182E+02  0.73217763589E+02  0.00000000000E+00 0. -1.
        -13    1    4    4    0    0 -0.52960250713E+02 -0.19689921741E+01  0.11470919307E+03  0.12636005722E+03  0.00000000000E+00 0. -1.
         13    1    4    4    0    0  0.36472708890E+02 -0.10940311821E+01  0.12224347875E+03  0.12757320838E+03  0.00000000000E+00 0.  1.
         21    1    1    2  502  501 -0.24102514529E+02  0.31996070653E+02 -0.10216348150E+01  0.40071479653E+02  0.00000000000E+00 0. -1.
<scales pt_clust_5="13000.00000" pt_clust_6="13000.00000" pt_clust_7="13000.00000" pt_clust_8="13000.00000" pt_clust_9="40.05845"></scales>
<clustering>
<clus scale="   40.058">  2  9  1 -1</clus>
<clus scale="   89.746">  7  8 -1 -1</clus>
<clus scale="   95.090">  2  7  1 -1</clus>
<clus scale="   95.962">  5  6 -1 -1</clus>
<clus scale="   40.058">  2  5  1 -1</clus>
</clustering>
</event>
<event>
 9    1  0.1803370E-005  0.2220299E+03  0.7546771E-02  0.1132447E+00
          2   -1    0    0  502    0  0.00000000000E+00  0.00000000000E+00  0.53854745399E+03  0.53854745399E+03  0.00000000000E+00 0. -1.
         -2   -1    0    0    0  501 -0.00000000000E+00 -0.00000000000E+00 -0.37902568551E+03  0.37902568551E+03  0.00000000000E+00 0.  1.
         23    2    1    2    0    0  0.21970658584E+03  0.16277666871E+02 -0.30266563372E+03  0.38536020643E+03  0.91433344911E+02 0.  0.
         23    2    1    2    0    0 -0.10423596716E+03  0.21013232358E+02  0.20781684552E+03  0.25038238993E+03  0.90536219941E+02 0.  0.
        -11    1    4    4    0    0 -0.54707150281E+02 -0.13243506850E+02  0.32467362751E+02  0.64979938516E+02  0.00000000000E+00 0.  1.
         11    1    4    4    0    0 -0.49528816875E+02  0.34256739208E+02  0.17534948277E+03  0.18540245141E+03  0.00000000000E+00 0. -1.
        -13    1    3    3    0    0  0.67730304066E+02  0.47896491802E+02 -0.95691406225E+02  0.12664246224E+03  0.00000000000E+00 0.  1.
         13    1    3    3    0    0  0.15197628177E+03 -0.31618824931E+02 -0.20697422750E+03  0.25871774419E+03  0.00000000000E+00 0. -1.
         21    1    1    2  502  501 -0.11547061868E+03 -0.37290899229E+02  0.25437055668E+03  0.28183054315E+03  0.00000000000E+00 0.  1.
<scales pt_clust_5="13000.00000" pt_clust_6="13000.00000" pt_clust_7="13000.00000" pt_clust_8="13000.00000" pt_clust_9="121.34280"></scales>
<clustering>
<clus scale="   90.536">  5  6 -1 -1</clus>
<clus scale="   91.433">  7  8 -1 -1</clus>
<clus scale="  121.343">  1  9  2 -1</clus>
<clus scale="  221.662">  1  5  2 -1</clus>
<clus scale="  121.343">  1  5  2 -1</clus>
</clustering>
</event>
<event>
 9    1  0.1803370E-005  0.1115523E+03  0.7546771E-02  0.1259283E+00
         -1   -1    0    0    0  501 -0.00000000000E+00  0.00000000000E+00  0.63874251922E+02  0.63874251922E+02  0.00000000000E+00 0.  1.
          1   -1    0    0  502    0  0.00000000000E+00 -0.00000000000E+00 -0.43760223625E+03  0.43760223625E+03  0.00000000000E+00 0. -1.
         23    2    1    2    0    0 -0.58155448609E+01  0.19034243325E+02 -0.51328186951E+02  0.10641751545E+03  0.91071300849E+02 0.  0.
         23    2    1    2    0    0  0.80609340407E+01 -0.73415480739E+02 -0.31850227832E+03  0.34049202842E+03  0.95059500582E+02 0.  0.
        -11    1    3    3    0    0 -0.48202028733E+02  0.71944904300E+01 -0.32320563691E+02  0.58479185218E+02  0.00000000000E+00 0.  1.
         11    1    3    3    0    0  0.42386483872E+02  0.11839752895E+02 -0.19007623259E+02  0.47938330234E+02  0.00000000000E+00 0. -1.
        -13    1    4    4    0    0 -0.74050293377E+01  0.21389063096E+02 -0.85984454739E+02  0.88913738738E+02  0.00000000000E+00 0.  1.
         13    1    4    4    0    0  0.15465963378E+02 -0.94804543835E+02 -0.23251782358E+03  0.25157828968E+03  0.00000000000E+00 0. -1.
         21    1    1    2  502  501 -0.22453891798E+01  0.54381237414E+02 -0.38975190519E+01  0.54566944298E+02  0.00000000000E+00 0.  1.
<scales pt_clust_5="13000.00000" pt_clust_6="13000.00000" pt_clust_7="13000.00000" pt_clust_8="13000.00000" pt_clust_9="54.42757"></scales>
<clustering>
<clus scale="   54.428">  1  9  2 -1</clus>
<clus scale="   91.071">  5  6 -1 -1</clus>
<clus scale="   95.060">  7  8 -1 -1</clus>
<clus scale="  108.174">  1  5  2 -1</clus>
<clus scale="  111.552">  2  5  1 -1</clus>
</clustering>
</event>
<event>
 9    1  0.1803370E-005  0.1306071E+03  0.7546771E-02  0.1226566E+00
         -1   -1    0    0    0  501 -0.00000000000E+00  0.00000000000E+00  0.55085260846E+02  0.55085260846E+02  0.00000000000E+00 0.  1.
          1   -1    0    0  502    0  0.00000000000E+00 -0.00000000000E+00 -0.45511676813E+03  0.45511676813E+03  0.00000000000E+00 0. -1.
         23    2    1    2    0    0 -0.87655788790E+02  0.56056514633E+01 -0.98219447835E+02  0.16064647683E+03  0.91898149867E+02 0.  0.
         23    2    1    2    0    0  0.98156697175E+02 -0.28450043852E+02 -0.18737732676E+03  0.23239137935E+03  0.91931215682E+02 0.  0.
        -11    1    3    3    0    0 -0.46500298313E+02  0.18348587978E+02  0.35680012920E+01  0.50116654489E+02  0.00000000000E+00 0.  1.
         11    1    3    3    0    0 -0.41155490477E+02 -0.12742936515E+02 -0.10178744913E+03  0.11052982234E+03  0.00000000000E+00 0. -1.
        -13    1    4    4    0    0  0.15135698995E+02  0.31031911332E+02 -0.36953499095E+02  0.50573016524E+02  0.00000000000E+00 0.  1.
         13    1    4    4    0    0  0.83020998180E+02 -0.59481955184E+02 -0.15042382766E+03  0.18181836282E+03  0.00000000000E+00 0. -1.
         21    1    1    2  502  501 -0.10500908385E+02  0.22844392389E+02 -0.11443473269E+03  0.11716417280E+03  0.00000000000E+00 0.  1.
<scales pt_clust_5="13000.00000" pt_clust_6="13000.00000" pt_clust_7="13000.00000" pt_clust_8="13000.00000" pt_clust_9="25.14230"></scales>
<clustering>
<clus scale="   25.142">  2  9  1 -1</clus>
<clus scale="   91.898">  5  6 -1 -1</clus>
<clus scale="   91.931">  7  8 -1 -1</clus>
<clus scale="  130.584">  1  5  2 -1</clus>
<clus scale="   25.142">  2  5  1 -1</clus>
</clustering>
</event>
<event>
 9    1  0.1803370E-005  0.9283722E+02  0.7546771E-02  0.1296148E+00
          2   -1    0    0  502    0  0.00000000000E+00  0.00000000000E+00  0.47447630259E+03  0.47447630259E+03  0.00000000000E+00 0. -1.
         -2   -1    0    0    0  501 -0.00000000000E+00 -0.00000000000E+00 -0.51335920891E+02  0.51335920891E+02  0.00000000000E+00 0.  1.
         23    2    1    2    0    0  0.94290916156E+01  0.12108867002E+02  0.14199714421E+02  0.93264700070E+02  0.90890813401E+02 0.  0.
         23    2    1    2    0    0  0.63589117229E+01 -0.47059107606E+02  0.29923486778E+03  0.31633159158E+03  0.90935000796E+02 0.  0.
        -11    1    3    3    0    0 -0.99373163368E+01  0.43478219336E+02 -0.14115465766E+02  0.46779826703E+02  0.00000000000E+00 0.  1.
         11    1    3    3    0    0  0.19366407952E+02 -0.31369352335E+02  0.28315180187E+02  0.46484873366E+02  0.00000000000E+00 0. -1.
        -11    1    4    4    0    0  0.44923673839E+02 -0.36411052488E+02  0.22126370304E+03  0.22869527214E+03  0.00000000000E+00 0.  1.
         11    1    4    4    0    0 -0.38564762116E+02 -0.10648055117E+02  0.77971164738E+02  0.87636319442E+02  0.00000000000E+00 0. -1.
         21    1    1    2  502  501 -0.15788003339E+02  0.34950240604E+02  0.10970579950E+03  0.11621593183E+03  0.00000000000E+00 0.  1.
<scales pt_clust_5="13000.00000" pt_clust_6="13000.00000" pt_clust_7="13000.00000" pt_clust_8="13000.00000" pt_clust_9="38.35075"></scales>
<clustering>
<clus scale="   38.351">  1  9  2 -1</clus>
<clus scale="   90.891">  5  6 -1 -1</clus>
<clus scale="   90.935">  7  8 -1 -1</clus>
<clus scale="   92.794">  2  5  1 -1</clus>
<clus scale="   38.351">  1  5  2 -1</clus>
</clustering>
</event>
<event>
 9    1  0.1803370E-005  0.1112414E+03  0.7546771E-02  0.1259328E+00
          1   -1    0    0  502    0  0.00000000000E+00  0.00000000000E+00  0.34209311379E+03  0.34209311379E+03  0.00000000000E+00 0. -1.
         -1   -1    0    0    0  501 -0.00000000000E+00 -0.00000000000E+00 -0.57960424333E+02  0.57960424333E+02  0.00000000000E+00 0.  1.
         23    2    1    2    0    0  0.83727904312E+02  0.85526791224E+01  0.89413060245E+02  0.15176795205E+03  0.89192520134E+02 0.  0.
         23    2    1    2    0    0 -0.36297550525E+02  0.16461350155E+02  0.13311371900E+03  0.16661167167E+03  0.91933120940E+02 0.  0.
        -11    1    4    4    0    0 -0.20194887802E+02  0.52571270881E+02  0.10114540699E+03  0.11576685783E+03  0.00000000000E+00 0. -1.
         11    1    4    4    0    0 -0.16102662723E+02 -0.36109920727E+02  0.31968312011E+02  0.50844813841E+02  0.00000000000E+00 0.  1.
        -13    1    3    3    0    0  0.40780905360E+02  0.22901940507E+02  0.95248756125E+02  0.10611270736E+03  0.00000000000E+00 0. -1.
         13    1    3    3    0    0  0.42946998952E+02 -0.14349261385E+02 -0.58356958800E+01  0.45655244690E+02  0.00000000000E+00 0.  1.
         21    1    1    2  502  501 -0.47430353787E+02 -0.25014029277E+02  0.61605910210E+02  0.81673914402E+02  0.00000000000E+00 0. -1.
<scales pt_clust_5="13000.00000" pt_clust_6="13000.00000" pt_clust_7="13000.00000" pt_clust_8="13000.00000" pt_clust_9="53.62220"></scales>
<clustering>
<clus scale="   53.622">  1  9  2 -1</clus>
<clus scale="   89.193">  7  8 -1 -1</clus>
<clus scale="   91.933">  5  6 -1 -1</clus>
<clus scale="  108.987">  2  7  1 -1</clus>
<clus scale="   53.622">  1  5  2 -1</clus>
</clustering>
</event>
<event>
 9    1  0.1803370E-005  0.1911148E+03  0.7546771E-02  0.1160197E+00
          2   -1    0    0  502    0  0.00000000000E+00  0.00000000000E+00  0.14377735515E+03  0.14377735515E+03  0.00000000000E+00 0. -1.
         -2   -1    0    0    0  501 -0.00000000000E+00 -0.00000000000E+00 -0.38839728431E+03  0.38839728431E+03  0.00000000000E+00 0.  1.
         23    2    1    2    0    0 -0.16096964416E+02 -0.15320737937E+03 -0.24895579015E+03  0.30758393142E+03  0.94325373368E+02 0.  0.
         23    2    1    2    0    0 -0.14252752281E+02  0.14930720006E+03 -0.12715213277E+02  0.18956135128E+03  0.11522173542E+03 0.  0.
        -11    1    4    4    0    0 -0.54407977267E+02  0.13642229192E+03 -0.12323380577E+02  0.14738770448E+03  0.00000000000E+00 0. -1.
         11    1    4    4    0    0  0.40155224986E+02  0.12884908140E+02 -0.39183269939E+00  0.42173646799E+02  0.00000000000E+00 0.  1.
        -13    1    3    3    0    0  0.27438198162E+01 -0.12970104726E+03 -0.24496421540E+03  0.27719552131E+03  0.00000000000E+00 0.  1.
         13    1    3    3    0    0 -0.18840784232E+02 -0.23506332110E+02 -0.39915747442E+01  0.30388410105E+02  0.00000000000E+00 0. -1.
         21    1    1    2  502  501  0.30349716696E+02  0.39001793156E+01  0.17051074259E+02  0.35029356769E+02  0.00000000000E+00 0. -1.
<scales pt_clust_5="13000.00000" pt_clust_6="13000.00000" pt_clust_7="13000.00000" pt_clust_8="13000.00000" pt_clust_9="30.59929"></scales>
<clustering>
<clus scale="   30.599">  1  9  2 -1</clus>
<clus scale="   94.325">  7  8 -1 -1</clus>
<clus scale="  115.222">  5  6 -1 -1</clus>
<clus scale="  179.293">  2  7  1 -1</clus>
<clus scale="   30.599">  1  5  2 -1</clus>
</clustering>
</event>
<event>
 9    1  0.1803370E-005  0.1223388E+03  0.7546771E-02  0.1240944E+00
          2   -1    0    0  502    0  0.00000000000E+00  0.00000000000E+00  0.19920937339E+03  0.19920937339E+03  0.00000000000E+00 0. -1.
         -2   -1    0    0    0  501 -0.00000000000E+00 -0.00000000000E+00 -0.10187219649E+03  0.10187219649E+03  0.00000000000E+00 0.  1.
         23    2    1    2    0    0 -0.57642097898E+02  0.68534873031E+02  0.65518544881E+01  0.13163680032E+03  0.96258402902E+02 0.  0.
         23    2    1    2    0    0  0.27381333517E+02 -0.49901088328E+02  0.64851345262E+02  0.12545041806E+03  0.91061816191E+02 0.  0.
        -11    1    3    3    0    0 -0.63971174147E+01  0.66796944887E+02 -0.24797763681E+02  0.71537990194E+02  0.00000000000E+00 0.  1.
         11    1    3    3    0    0 -0.51244980483E+02  0.17379281442E+01  0.31349618169E+02  0.60098810124E+02  0.00000000000E+00 0. -1.
        -11    1    4    4    0    0 -0.12893341988E+02  0.20708846596E+02  0.24960457530E+02  0.34901562072E+02  0.00000000000E+00 0.  1.
         11    1    4    4    0    0  0.40274675505E+02 -0.70609934924E+02  0.39890887732E+02  0.90548855990E+02  0.00000000000E+00 0. -1.
         21    1    1    2  502  501  0.30260764381E+02 -0.18633784703E+02  0.25933977146E+02  0.43994351500E+02  0.00000000000E+00 0. -1.
<scales pt_clust_5="13000.00000" pt_clust_6="13000.00000" pt_clust_7="13000.00000" pt_clust_8="13000.00000" pt_clust_9="35.53775"></scales>
<clustering>
<clus scale="   35.538">  1  9  2 -1</clus>
<clus scale="   91.062">  7  8 -1 -1</clus>
<clus scale="   96.258">  5  6 -1 -1</clus>
<clus scale="  118.294">  1  7  2 -1</clus>
<clus scale="   35.538">  1  5  2 -1</clus>
</clustering>
</event>
<event>
 9    1  0.1803370E-005  0.3465550E+03  0.7546771E-02  0.1064148E+00
          1   -1    0    0  502    0  0.00000000000E+00  0.00000000000E+00  0.77002785234E+03  0.77002785234E+03  0.00000000000E+00 0. -1.
         -1   -1    0    0    0  501 -0.00000000000E+00 -0.00000000000E+00 -0.24881141019E+03  0.24881141019E+03  0.00000000000E+00 0.  1.
         23    2    1    2    0    0  0.33484969226E+03  0.10417325374E+03 -0.20973269651E+02  0.36280850674E+03  0.90629748517E+02 0.  0.
         23    2    1    2    0    0 -0.27609351188E+03 -0.77447961742E+02  0.41291866903E+03  0.51154015934E+03  0.94581675294E+02 0.  0.
        -13    1    3    3    0    0  0.13553322366E+03  0.86729905891E+02  0.54065861344E+01  0.16099864119E+03  0.00000000000E+00 0.  1.
         13    1    3    3    0    0  0.19931646860E+03  0.17443347853E+02 -0.26379855785E+02  0.20180986554E+03  0.00000000000E+00 0. -1.
        -13    1    4    4    0    0 -0.22140779768E+03 -0.99728330756E+02  0.33628406260E+03  0.41479407372E+03  0.00000000000E+00 0. -1.
         13    1    4    4    0    0 -0.54685714198E+02  0.22280369014E+02  0.76634606428E+02  0.96746085621E+02  0.00000000000E+00 0.  1.
         21    1    1    2  502  501 -0.58756180384E+02 -0.26725292002E+02  0.12927104277E+03  0.14449059646E+03  0.00000000000E+00 0. -1.
<scales pt_clust_5="13000.00000" pt_clust_6="13000.00000" pt_clust_7="13000.00000" pt_clust_8="13000.00000" pt_clust_9="64.54866"></scales>
<clustering>
<clus scale="   64.549">  1  9  2 -1</clus>
<clus scale="   90.630">  5  6 -1 -1</clus>
<clus scale="   94.582">  7  8 -1 -1</clus>
<clus scale="  345.497">  2  5  1 -1</clus>
<clus scale="   64.549">  1  5  2 -1</clus>
</clustering>
</event>
<event>
 9    1  0.1803370E-005  0.9361367E+02  0.7546771E-02  0.1295411E+00
          2   -1    0    0  502    0  0.00000000000E+00  0.00000000000E+00  0.33131160055E+03  0.33131160055E+03  0.00000000000E+00 0. -1.
         -2   -1    0    0    0  501 -0.00000000000E+00 -0.00000000000E+00 -0.14614632234E+03  0.14614632234E+03  0.00000000000E+00 0.  1.
         23    2    1    2    0    0 -0.32466575340E+02 -0.39405336428E+01 -0.54926245723E+02  0.11042624984E+03  0.90041423053E+02 0.  0.
         23    2    1    2    0    0 -0.70886407815E+00 -0.54079472396E+00 -0.28579638812E+02  0.96282922766E+02  0.91939167467E+02 0.  0.
        -13    1    3    3    0    0 -0.48501518521E+02 -0.19793062510E+02 -0.66841664731E+02  0.84923322865E+02  0.00000000000E+00 0.  1.
         13    1    3    3    0    0  0.16034943181E+02  0.15852528867E+02  0.11915419008E+02  0.25502926978E+02  0.00000000000E+00 0. -1.
        -13    1    4    4    0    0  0.40148168353E+02 -0.20663882914E+02 -0.63318771241E+01  0.45595659301E+02  0.00000000000E+00 0. -1.
         13    1    4    4    0    0 -0.40857032431E+02  0.20123088190E+02 -0.22247761688E+02  0.50687263465E+02  0.00000000000E+00 0.  1.
         21    1    1    2  502  501  0.33175439418E+02  0.44813283668E+01  0.26867116274E+03  0.27074875027E+03  0.00000000000E+00 0. -1.
<scales pt_clust_5="13000.00000" pt_clust_6="13000.00000" pt_clust_7="13000.00000" pt_clust_8="13000.00000" pt_clust_9="33.47674"></scales>
<clustering>
<clus scale="   33.477">  1  9  2 -1</clus>
<clus scale="   90.041">  5  6 -1 -1</clus>
<clus scale="   91.751">  2  5  1 -1</clus>
<clus scale="   91.939">  7  8 -1 -1</clus>
<clus scale="   33.477">  1  5  2 -1</clus>
</clustering>
</event>
<event>
 9    1  0.1803370E-005  0.1499671E+03  0.7546771E-02  0.1201425E+00
         -1   -1    0    0    0  501 -0.00000000000E+00  0.00000000000E+00  0.14846020183E+03  0.14846020183E+03  0.00000000000E+00 0.  1.
          1   -1    0    0  502    0  0.00000000000E+00 -0.00000000000E+00 -0.33671049701E+03  0.33671049701E+03  0.00000000000E+00 0. -1.
         23    2    1    2    0    0  0.69688721956E+02  0.85604577898E+02  0.36632268124E+02  0.14904139489E+03  0.93202749945E+02 0.  0.
         23    2    1    2    0    0 -0.10798160779E+03 -0.81829127217E+02 -0.69532924898E+02  0.17608521850E+03  0.88403296581E+02 0.  0.
        -11    1    4    4    0    0 -0.47210325992E+02 -0.80414254273E+02 -0.15050803616E+02  0.94455247922E+02  0.00000000000E+00 0.  1.
         11    1    4    4    0    0 -0.60771281797E+02 -0.14148729446E+01 -0.54482121282E+02  0.81629970575E+02  0.00000000000E+00 0. -1.
        -13    1    3    3    0    0 -0.21015977296E+02  0.20775918558E+01  0.66954816498E+01  0.22154393789E+02  0.00000000000E+00 0.  1.
         13    1    3    3    0    0  0.90704699252E+02  0.83526986042E+02  0.29936786474E+02  0.12688700110E+03  0.00000000000E+00 0. -1.
         21    1    1    2  502  501  0.38292885833E+02 -0.37754506807E+01 -0.15534963841E+03  0.16004408545E+03  0.00000000000E+00 0. -1.
<scales pt_clust_5="13000.00000" pt_clust_6="13000.00000" pt_clust_7="13000.00000" pt_clust_8="13000.00000" pt_clust_9="38.47855"></scales>
<clustering>
<clus scale="   38.479">  2  9  1 -1</clus>
<clus scale="   88.403">  5  6 -1 -1</clus>
<clus scale="   93.203">  7  8 -1 -1</clus>
<clus scale="  147.032">  2  5  1 -1</clus>
<clus scale="   38.479">  2  5  1 -1</clus>
</clustering>
</event>
<event>
 9    1  0.1803370E-005  0.1931081E+03  0.7546771E-02  0.1155728E+00
          1   -1    0    0  502    0  0.00000000000E+00  0.00000000000E+00  0.39413854310E+03  0.39413854310E+03  0.00000000000E+00 0. -1.
         -1   -1    0    0    0  501 -0.00000000000E+00 -0.00000000000E+00 -0.11263671467E+03  0.11263671467E+03  0.00000000000E+00 0.  1.
         23    2    1    2    0    0  0.72728689455E+02  0.14513373769E+03  0.94102444564E+02  0.20872569407E+03  0.91421448289E+02 0.  0.
         23    2    1    2    0    0 -0.69321075604E+02 -0.16629835382E+03  0.13892280914E+03  0.24504455350E+03  0.91031490679E+02 0.  0.
        -13    1    4    4    0    0 -0.83944011331E+02 -0.91548626359E+02  0.10027697651E+03  0.15963464550E+03  0.00000000000E+00 0.  1.
         13    1    4    4    0    0  0.14622935727E+02 -0.74749727461E+02  0.38645832627E+02  0.85409907998E+02  0.00000000000E+00 0. -1.
        -13    1    3    3    0    0  0.25923407030E+02  0.10932878335E+02  0.54256211433E+02  0.61116997143E+02  0.00000000000E+00 0.  1.
         13    1    3    3    0    0  0.46805282426E+02  0.13420085935E+03  0.39846233131E+02  0.14760869693E+03  0.00000000000E+00 0. -1.
         21    1    1    2  502  501 -0.34076138515E+01  0.21164616132E+02  0.48476574729E+02  0.53005010193E+02  0.00000000000E+00 0. -1.
<scales pt_clust_5="13000.00000" pt_clust_6="13000.00000" pt_clust_7="13000.00000" pt_clust_8="13000.00000" pt_clust_9="21.43718"></scales>
<clustering>
<clus scale="   21.437">  1  9  2 -1</clus>
<clus scale="   91.031">  5  6 -1 -1</clus>
<clus scale="   91.421">  7  8 -1 -1</clus>
<clus scale="  192.924">  1  5  2 -1</clus>
<clus scale="   21.437">  1  5  2 -1</clus>
</clustering>
</event>
<event>
 9    1  0.1803370E-005  0.1442675E+03  0.7546771E-02  0.1207794E+00
         -1   -1    0    0    0  501 -0.00000000000E+00  0.00000000000E+00  0.14768127488E+03  0.14768127488E+03  0.00000000000E+00 0.  1.
          1   -1    0    0  502    0  0.00000000000E+00 -0.00000000000E+00 -0.18313579728E+03  0.18313579728E+03  0.00000000000E+00 0. -1.
         23    2    1    2    0    0 -0.61849301832E+02  0.98223660877E+02  0.32336457078E+02  0.15184750944E+03  0.92405605742E+02 0.  0.
         23    2    1    2    0    0  0.37768019119E+02 -0.96430014477E+02 -0.44615491714E+02  0.14549974681E+03  0.91948155280E+02 0.  0.
        -11    1    3    3    0    0 -0.64734114102E+02  0.27508566621E+02  0.39572817773E+02  0.80704613701E+02  0.00000000000E+00 0.  1.
         11    1    3    3    0    0  0.28848122701E+01  0.70715094256E+02 -0.72363606955E+01  0.71142895736E+02  0.00000000000E+00 0. -1.
        -11    1    4    4    0    0  0.65395157251E+02 -0.49870380521E+02 -0.39153857906E+02  0.91085707079E+02  0.00000000000E+00 0. -1.
         11    1    4    4    0    0 -0.27627138132E+02 -0.46559633956E+02 -0.54616338081E+01  0.54414039727E+02  0.00000000000E+00 0.  1.
         21    1    1    2  502  501  0.24081282713E+02 -0.17936463998E+01 -0.23175487768E+02  0.33469815921E+02  0.00000000000E+00 0. -1.
<scales pt_clust_5="13000.00000" pt_clust_6="13000.00000" pt_clust_7="13000.00000" pt_clust_8="13000.00000" pt_clust_9="24.14799"></scales>
<clustering>
<clus scale="   24.148">  2  9  1 -1</clus>
<clus scale="   91.948">  7  8 -1 -1</clus>
<clus scale="   92.406">  5  6 -1 -1</clus>
<clus scale="  143.975">  2  7  1 -1</clus>
<clus scale="   24.148">  2  5  1 -1</clus>
</clustering>
</event>
<event>
 9    1  0.1803370E-005  0.1199162E+03  0.7546771E-02  0.1244709E+00
          1   -1    0    0  502    0  0.00000000000E+00  0.00000000000E+00  0.31056685717E+03  0.31056685717E+03  0.00000000000E+00 0. -1.
         -1   -1    0    0    0  501 -0.00000000000E+00 -0.00000000000E+00 -0.10977032445E+03  0.10977032445E+03  0.00000000000E+00 0.  1.
         23    2    1    2    0    0 -0.43558740090E+02  0.43402226061E+02 -0.43791055509E+02  0.12220182066E+03  0.96096364996E+02 0.  0.
         23    2    1    2    0    0  0.58679724700E+02 -0.59401386018E+02  0.14061176162E+03  0.19185464863E+03  0.10032299808E+03 0.  0.
        -11    1    3    3    0    0 -0.23251609798E+02  0.71268606221E+02 -0.45474696346E+02  0.87680098076E+02  0.00000000000E+00 0.  1.
         11    1    3    3    0    0 -0.20307130293E+02 -0.27866380159E+02  0.16836408370E+01  0.34521722587E+02  0.00000000000E+00 0. -1.
        -13    1    4    4    0    0  0.79662486668E+02 -0.63013588757E+02  0.85478891816E+02  0.13275339957E+03  0.00000000000E+00 0. -1.
         13    1    4    4    0    0 -0.20982761969E+02  0.36122027396E+01  0.55132869799E+02  0.59101249063E+02  0.00000000000E+00 0.  1.
         21    1    1    2  502  501 -0.15120984610E+02  0.15999159957E+02  0.10397582661E+03  0.10628071233E+03  0.00000000000E+00 0. -1.
<scales pt_clust_5="13000.00000" pt_clust_6="13000.00000" pt_clust_7="13000.00000" pt_clust_8="13000.00000" pt_clust_9="22.01402"></scales>
<clustering>
<clus scale="   22.014">  1  9  2 -1</clus>
<clus scale="   96.096">  5  6 -1 -1</clus>
<clus scale="  100.323">  7  8 -1 -1</clus>
<clus scale="  116.403">  2  5  1 -1</clus>
<clus scale="   22.014">  1  5  2 -1</clus>
</clustering>
</event>
<event>
 9    1  0.1803370E-005  0.1082869E+03  0.7546771E-02  0.1264124E+00
          2   -1    0    0  502    0  0.00000000000E+00  0.00000000000E+00  0.26068899971E+03  0.26068899971E+03  0.00000000000E+00 0. -1.
         -2   -1    0    0    0  501 -0.00000000000E+00 -0.00000000000E+00 -0.12520612871E+03  0.12520612871E+03  0.00000000000E+00 0.  1.
         23    2    1    2    0    0  0.47351125809E+02  0.42522043698E+02 -0.71679166802E+02  0.13192414377E+03  0.90641179602E+02 0.  0.
         23    2    1    2    0    0 -0.48299413978E+01 -0.41214610893E+02  0.17357557618E+03  0.19976940803E+03  0.89762816662E+02 0.  0.
        -11    1    4    4    0    0 -0.33121798241E+02 -0.12075167393E+01  0.13012394336E+03  0.13427863662E+03  0.00000000000E+00 0. -1.
         11    1    4    4    0    0  0.28291856843E+02 -0.40007094154E+02  0.43451632814E+02  0.65490771415E+02  0.00000000000E+00 0.  1.
        -13    1    3    3    0    0  0.72084867709E+02  0.44885189588E+02 -0.47716095284E+02  0.97405000622E+02  0.00000000000E+00 0.  1.
         13    1    3    3    0    0 -0.24733741901E+02 -0.23631458905E+01 -0.23963071517E+02  0.34519143145E+02  0.00000000000E+00 0. -1.
         21    1    1    2  502  501 -0.42521184411E+02 -0.13074328046E+01  0.33586461618E+02  0.54201576622E+02  0.00000000000E+00 0.  1.
<scales pt_clust_5="13000.00000" pt_clust_6="13000.00000" pt_clust_7="13000.00000" pt_clust_8="13000.00000" pt_clust_9="42.54128"></scales>
<clustering>
<clus scale="   42.541">  1  9  2 -1</clus>
<clus scale="   89.763">  5  6 -1 -1</clus>
<clus scale="   90.641">  7  8 -1 -1</clus>
<clus scale="  107.553">  1  5  2 -1</clus>
<clus scale="   42.541">  1  5  2 -1</clus>
</clustering>
</event>
<event>
 9    1  0.1803370E-005  0.1041004E+03  0.7546771E-02  0.1272644E+00
         -3   -1    0    0    0  501 -0.00000000000E+00  0.00000000000E+00  0.12295989116E+03  0.12295989116E+03  0.00000000000E+00 0.  1.
          3   -1    0    0  502    0  0.00000000000E+00 -0.00000000000E+00 -0.46657901530E+03  0.46657901530E+03  0.00000000000E+00 0. -1.
         23    2    1    2    0    0 -0.37380066457E+02  0.35992898653E+02  0.80179760566E+02  0.13082830354E+03  0.89411928072E+02 0.  0.
         23    2    1    2    0    0 -0.47530087176E+01 -0.57597735283E+02 -0.17606138456E+03  0.20648880772E+03  0.91103931743E+02 0.  0.
        -11    1    4    4    0    0  0.42039567746E+02 -0.23753920073E+02 -0.99424366033E+02  0.11052953694E+03  0.00000000000E+00 0. -1.
         11    1    4    4    0    0 -0.46792576464E+02 -0.33843815210E+02 -0.76637018527E+02  0.95959270781E+02  0.00000000000E+00 0.  1.
        -13    1    3    3    0    0 -0.34516290824E+02 -0.22508569377E+02  0.50461317471E+02  0.65148711334E+02  0.00000000000E+00 0.  1.
         13    1    3    3    0    0 -0.28637756331E+01  0.58501468030E+02  0.29718443095E+02  0.65679592208E+02  0.00000000000E+00 0. -1.
         21    1    1    2  502  501  0.42133075175E+02  0.21604836630E+02 -0.24773750015E+03  0.25222179519E+03  0.00000000000E+00 0. -1.
<scales pt_clust_5="13000.00000" pt_clust_6="13000.00000" pt_clust_7="13000.00000" pt_clust_8="13000.00000" pt_clust_9="47.34939"></scales>
<clustering>
<clus scale="   47.349">  2  9  1 -1</clus>
<clus scale="   89.412">  7  8 -1 -1</clus>
<clus scale="   91.104">  5  6 -1 -1</clus>
<clus scale="  102.623">  1  7  2 -1</clus>
<clus scale="   47.349">  2  5  1 -1</clus>
</clustering>
</event>
<event>
 9    1  0.1803370E-005  0.1373723E+03  0.7546771E-02  0.1219325E+00
         -1   -1    0    0    0  501 -0.00000000000E+00  0.00000000000E+00  0.27131355596E+03  0.27131355596E+03  0.00000000000E+00 0.  1.
          1   -1    0    0  502    0  0.00000000000E+00 -0.00000000000E+00 -0.55019781832E+03  0.55019781832E+03  0.00000000000E+00 0. -1.
         23    2    1    2    0    0  0.69653478370E+00 -0.90635985316E+02  0.22144357758E+03  0.25594849059E+03  0.90868062531E+02 0.  0.
         23    2    1    2    0    0  0.34924404483E+02  0.15251630737E+03 -0.30049408440E+03  0.35335648551E+03  0.10041500409E+03 0.  0.
        -13    1    4    4    0    0 -0.25105976043E+02  0.10478212201E+03 -0.19701248319E+03  0.22455182399E+03  0.00000000000E+00 0.  1.
         13    1    4    4    0    0  0.60030380525E+02  0.47734185359E+02 -0.10348160121E+03  0.12880466151E+03  0.00000000000E+00 0. -1.
        -13    1    3    3    0    0  0.40440927519E+02 -0.66637955004E+02  0.16768252846E+03  0.18491488857E+03  0.00000000000E+00 0.  1.
         13    1    3    3    0    0 -0.39744392735E+02 -0.23998030312E+02  0.53761049128E+02  0.71033602022E+02  0.00000000000E+00 0. -1.
         21    1    1    2  502  501 -0.35620939266E+02 -0.61880322052E+02 -0.19983375554E+03  0.21220639817E+03  0.00000000000E+00 0.  1.
<scales pt_clust_5="13000.00000" pt_clust_6="13000.00000" pt_clust_7="13000.00000" pt_clust_8="13000.00000" pt_clust_9="71.40046"></scales>
<clustering>
<clus scale="   71.400">  2  9  1 -1</clus>
<clus scale="   90.868">  7  8 -1 -1</clus>
<clus scale="  100.415">  5  6 -1 -1</clus>
<clus scale="  130.556">  1  7  2 -1</clus>
<clus scale="   71.400">  2  5  1 -1</clus>
</clustering>
</event>
<event>
 9    1  0.1803370E-005  0.1137025E+03  0.7546771E-02  0.1254990E+00
          2   -1    0    0  502    0  0.00000000000E+00  0.00000000000E+00  0.17359111805E+03  0.17359111805E+03  0.00000000000E+00 0. -1.
         -2   -1    0    0    0  501 -0.00000000000E+00 -0.00000000000E+00 -0.10278920104E+03  0.10278920104E+03  0.00000000000E+00 0.  1.
         23    2    1    2    0    0 -0.28739421102E+02  0.56275473677E+02  0.14563784425E+02  0.10957791031E+03  0.88330806342E+02 0.  0.
         23    2    1    2    0    0 -0.68304879661E+00 -0.78183812974E+02  0.42040562723E+02  0.12746758889E+03  0.91473505110E+02 0.  0.
        -13    1    4    4    0    0 -0.43645072785E+02 -0.30341244551E+02  0.53221336777E+01  0.53421050216E+02  0.00000000000E+00 0.  1.
         13    1    4    4    0    0  0.42962023988E+02 -0.47842568422E+02  0.36718429045E+02  0.74046538676E+02  0.00000000000E+00 0. -1.
        -13    1    3    3    0    0 -0.29572160929E+02 -0.17969511685E+01 -0.25444212040E+02  0.39053164556E+02  0.00000000000E+00 0.  1.
         13    1    3    3    0    0  0.83273982685E+00  0.58072424845E+02  0.40007996464E+02  0.70524745757E+02  0.00000000000E+00 0. -1.
         21    1    1    2  502  501  0.29422469898E+02  0.21908339297E+02  0.14197569854E+02  0.39334819886E+02  0.00000000000E+00 0. -1.
<scales pt_clust_5="13000.00000" pt_clust_6="13000.00000" pt_clust_7="13000.00000" pt_clust_8="13000.00000" pt_clust_9="36.68320"></scales>
<clustering>
<clus scale="   36.683">  1  9  2 -1</clus>
<clus scale="   88.331">  7  8 -1 -1</clus>
<clus scale="   91.474">  5  6 -1 -1</clus>
<clus scale="  111.190">  2  7  1 -1</clus>
<clus scale="   36.683">  1  5  2 -1</clus>
</clustering>
</event>
<event>
 9    1  0.1803370E-005  0.1124250E+03  0.7546771E-02  0.1257626E+00
         -1   -1    0    0    0  501 -0.00000000000E+00  0.00000000000E+00  0.54766771582E+02  0.54766771582E+02  0.00000000000E+00 0.  1.
          1   -1    0    0  502    0  0.00000000000E+00 -0.00000000000E+00 -0.69246337277E+03  0.69246337277E+03  0.00000000000E+00 0. -1.
         23    2    1    2    0    0 -0.57965418930E+02  0.23371227409E+02 -0.27736563194E+02  0.11338054701E+03  0.90441292788E+02 0.  0.
         23    2    1    2    0    0  0.97585626681E+02 -0.16634673585E+02 -0.49160597984E+03  0.50885829724E+03  0.86375114188E+02 0.  0.
        -11    1    3    3    0    0 -0.60927451855E+02 -0.20881390655E+02 -0.82348438118E+01  0.64930728610E+02  0.00000000000E+00 0.  1.
         11    1    3    3    0    0  0.29620329246E+01  0.44252618064E+02 -0.19501719382E+02  0.48449818404E+02  0.00000000000E+00 0. -1.
        -13    1    4    4    0    0  0.19734586998E+02  0.23455757780E+02 -0.49955504492E+02  0.58610399470E+02  0.00000000000E+00 0.  1.
         13    1    4    4    0    0  0.77851039683E+02 -0.40090431365E+02 -0.44165047535E+03  0.45024789777E+03  0.00000000000E+00 0. -1.
         21    1    1    2  502  501 -0.39620207751E+02 -0.67365538246E+01 -0.11835405815E+03  0.12499130010E+03  0.00000000000E+00 0.  1.
<scales pt_clust_5="13000.00000" pt_clust_6="13000.00000" pt_clust_7="13000.00000" pt_clust_8="13000.00000" pt_clust_9="40.18883"></scales>
<clustering>
<clus scale="   40.189">  2  9  1 -1</clus>
<clus scale="   86.375">  7  8 -1 -1</clus>
<clus scale="   90.441">  5  6 -1 -1</clus>
<clus scale="  109.181">  2  7  1 -1</clus>
<clus scale="   40.189">  2  5  1 -1</clus>
</clustering>
</event>
<event>
 9    1  0.1803370E-005  0.1311161E+03  0.7546771E-02  0.1227168E+00
          2   -1    0    0  502    0  0.00000000000E+00  0.00000000000E+00  0.35616097839E+03  0.35616097839E+03  0.00000000000E+00 0. -1.
         -2   -1    0    0    0  501 -0.00000000000E+00 -0.00000000000E+00 -0.16510573211E+03  0.16510573211E+03  0.00000000000E+00 0.  1.
         23    2    1    2    0    0 -0.95528541106E+02 -0.84867913702E+01 -0.91574591757E+02  0.16066658391E+03  0.90719995233E+02 0.  0.
         23    2    1    2    0    0  0.82882896025E+02  0.56262391797E+02  0.84507438044E+02  0.15640682182E+03  0.85361324047E+02 0.  0.
        -13    1    3    3    0    0 -0.37781979885E+01  0.24245264809E+02 -0.48088017162E+02  0.53986711701E+02  0.00000000000E+00 0.  1.
         13    1    3    3    0    0 -0.91750343117E+02 -0.32732056179E+02 -0.43486574595E+02  0.10667987221E+03  0.00000000000E+00 0. -1.
        -13    1    4    4    0    0  0.85706306751E+02  0.11977858431E+02  0.48100389058E+02  0.99008522548E+02  0.00000000000E+00 0.  1.
         13    1    4    4    0    0 -0.28234107262E+01  0.44284533366E+02  0.36407048986E+02  0.57398299273E+02  0.00000000000E+00 0. -1.
         21    1    1    2  502  501  0.12645645081E+02 -0.47775600427E+02  0.19812239999E+03  0.20419330477E+03  0.00000000000E+00 0. -1.
<scales pt_clust_5="13000.00000" pt_clust_6="13000.00000" pt_clust_7="13000.00000" pt_clust_8="13000.00000" pt_clust_9="49.42085"></scales>
<clustering>
<clus scale="   49.421">  1  9  2 -1</clus>
<clus scale="   85.361">  7  8 -1 -1</clus>
<clus scale="   90.720">  5  6 -1 -1</clus>
<clus scale="  127.467">  1  7  2 -1</clus>
<clus scale="   49.421">  1  5  2 -1</clus>
</clustering>
</event>
<event>
 9    1  0.1803370E-005  0.1057108E+03  0.7546771E-02  0.1269621E+00
          2   -1    0    0  502    0  0.00000000000E+00  0.00000000000E+00  0.19364872706E+03  0.19364872706E+03  0.00000000000E+00 0. -1.
         -2   -1    0    0    0  501 -0.00000000000E+00 -0.00000000000E+00 -0.20461063916E+03  0.20461063916E+03  0.00000000000E+00 0.  1.
         23    2    1    2    0    0 -0.37052978550E+02 -0.22370001459E+02 -0.11765274198E+03  0.15644691296E+03  0.93595559156E+02 0.  0.
         23    2    1    2    0    0  0.30602296839E+02  0.99708882481E+02  0.77125291081E+02  0.15876406437E+03  0.91538821244E+02 0.  0.
        -11    1    3    3    0    0 -0.16409700171E+02  0.23370825221E+02 -0.98791804879E+02  0.10283625062E+03  0.00000000000E+00 0.  1.
         11    1    3    3    0    0 -0.20643278380E+02 -0.45740826680E+02 -0.18860937105E+02  0.53610662336E+02  0.00000000000E+00 0. -1.
        -13    1    4    4    0    0  0.27777156766E+02 -0.78284609935E+01  0.29008764664E+02  0.40918989074E+02  0.00000000000E+00 0. -1.
         13    1    4    4    0    0  0.28251400735E+01  0.10753734347E+03  0.48116526417E+02  0.11784507530E+03  0.00000000000E+00 0.  1.
         21    1    1    2  502  501  0.64506817109E+01 -0.77338881021E+02  0.29565538806E+02  0.83048388889E+02  0.00000000000E+00 0. -1.
<scales pt_clust_5="13000.00000" pt_clust_6="13000.00000" pt_clust_7="13000.00000" pt_clust_8="13000.00000" pt_clust_9="77.60743"></scales>
<clustering>
<clus scale="   77.607">  1  9  2 -1</clus>
<clus scale="   91.539">  7  8 -1 -1</clus>
<clus scale="   93.596">  5  6 -1 -1</clus>
<clus scale="  103.894">  1  7  2 -1</clus>
<clus scale="   77.607">  1  5  2 -1</clus>
</clustering>
</event>
<event>
 9    1  0.1803370E-005  0.9519544E+02  0.7546771E-02  0.1293645E+00
          1   -1    0    0  502    0  0.00000000000E+00  0.00000000000E+00  0.61019616926E+03  0.61019616926E+03  0.00000000000E+00 0. -1.
         -1   -1    0    0    0  501 -0.00000000000E+00 -0.00000000000E+00 -0.21152768726E+02  0.21152768726E+02  0.00000000000E+00 0.  1.
         23    2    1    2    0    0  0.29340019171E+01 -0.22926347167E+02  0.15016582408E+03  0.17545909829E+03  0.87760439196E+02 0.  0.
         23    2    1    2    0    0  0.19046273264E+02  0.14926357330E+02  0.29811022220E+03  0.31319232620E+03  0.92920245075E+02 0.  0.
        -11    1    4    4    0    0 -0.29770244450E+02  0.29691286113E+02  0.17408291253E+03  0.17908852660E+03  0.00000000000E+00 0. -1.
         11    1    4    4    0    0  0.48816517715E+02 -0.14764928783E+02  0.12402730967E+03  0.13410379960E+03  0.00000000000E+00 0.  1.
        -13    1    3    3    0    0  0.72980075292E+01 -0.46763188369E+02  0.14232647661E+03  0.14998960846E+03  0.00000000000E+00 0.  1.
         13    1    3    3    0    0 -0.43640056121E+01  0.23836841202E+02  0.78393474711E+01  0.25469489831E+02  0.00000000000E+00 0. -1.
         21    1    1    2  502  501 -0.21980275182E+02  0.79999898363E+01  0.14076735425E+03  0.14269751349E+03  0.00000000000E+00 0. -1.
<scales pt_clust_5="13000.00000" pt_clust_6="13000.00000" pt_clust_7="13000.00000" pt_clust_8="13000.00000" pt_clust_9="23.39086"></scales>
<clustering>
<clus scale="   23.391">  1  9  2 -1</clus>
<clus scale="   87.760">  7  8 -1 -1</clus>
<clus scale="   90.166">  2  7  1 -1</clus>
<clus scale="   92.920">  5  6 -1 -1</clus>
<clus scale="   23.391">  1  5  2 -1</clus>
</clustering>
</event>
<event>
 9    1  0.1803370E-005  0.1172409E+03  0.7546771E-02  0.1253003E+00
         -1   -1    0    0    0  501 -0.00000000000E+00  0.00000000000E+00  0.32247867957E+02  0.32247867957E+02  0.00000000000E+00 0.  1.
          1   -1    0    0  502    0  0.00000000000E+00 -0.00000000000E+00 -0.58493721894E+03  0.58493721894E+03  0.00000000000E+00 0. -1.
         23    2    1    2    0    0  0.73277218365E+00 -0.43823924671E+02 -0.13335054397E+03  0.17912552139E+03  0.11127673391E+03 0.  0.
         23    2    1    2    0    0 -0.15541857450E+00  0.20325469410E+02 -0.36823455467E+03  0.38180874022E+03  0.98833587391E+02 0.  0.
        -13    1    4    4    0    0  0.23528260281E+02  0.47722142756E+02 -0.29877145748E+03  0.30347218282E+03  0.00000000000E+00 0. -1.
         13    1    4    4    0    0 -0.23683678856E+02 -0.27396673345E+02 -0.69463097186E+02  0.78336557399E+02  0.00000000000E+00 0.  1.
        -13    1    3    3    0    0 -0.31690798214E+02 -0.33908207684E+02 -0.53604102539E+01  0.46720522663E+02  0.00000000000E+00 0.  1.
         13    1    3    3    0    0  0.32423570398E+02 -0.99157169861E+01 -0.12799013371E+03  0.13240499873E+03  0.00000000000E+00 0. -1.
         21    1    1    2  502  501 -0.57735360915E+00  0.23498455260E+02 -0.51104252352E+02  0.56250825285E+02  0.00000000000E+00 0. -1.
<scales pt_clust_5="13000.00000" pt_clust_6="13000.00000" pt_clust_7="13000.00000" pt_clust_8="13000.00000" pt_clust_9="23.50555"></scales>
<clustering>
<clus scale="   23.506">  2  9  1 -1</clus>
<clus scale="   98.834">  5  6 -1 -1</clus>
<clus scale="  105.503">  2  5  1 -1</clus>
<clus scale="  111.277">  7  8 -1 -1</clus>
<clus scale="   23.506">  2  5  1 -1</clus>
</clustering>
</event>
<event>
 9    1  0.1803370E-005  0.1107259E+03  0.7546771E-02  0.1261884E+00
          1   -1    0    0  502    0  0.00000000000E+00  0.00000000000E+00  0.63572935806E+03  0.63572935806E+03  0.00000000000E+00 0. -1.
         -1   -1    0    0    0  501 -0.00000000000E+00 -0.00000000000E+00 -0.40873286094E+02  0.40873286094E+02  0.00000000000E+00 0.  1.
         23    2    1    2    0    0 -0.40347366559E+02  0.15909755158E+02  0.82103921408E+02  0.12983921316E+03  0.90753165603E+02 0.  0.
         23    2    1    2    0    0  0.77733227030E+02 -0.42670998769E+01  0.23217354279E+03  0.26346569164E+03  0.97205730144E+02 0.  0.
        -11    1    3    3    0    0 -0.51077466814E+02  0.35206216219E+02  0.22020936212E+02  0.65827858147E+02  0.00000000000E+00 0.  1.
         11    1    3    3    0    0  0.10730100255E+02 -0.19296461061E+02  0.60082985196E+02  0.64011355017E+02  0.00000000000E+00 0. -1.
        -13    1    4    4    0    0  0.98554054228E+02  0.94209845991E+01  0.17427590532E+03  0.20043389865E+03  0.00000000000E+00 0.  1.
         13    1    4    4    0    0 -0.20820827198E+02 -0.13688084476E+02  0.57897637475E+02  0.63031792986E+02  0.00000000000E+00 0. -1.
         21    1    1    2  502  501 -0.37385860471E+02 -0.11642655281E+02  0.28057860776E+03  0.28329773934E+03  0.00000000000E+00 0.  1.
<scales pt_clust_5="13000.00000" pt_clust_6="13000.00000" pt_clust_7="13000.00000" pt_clust_8="13000.00000" pt_clust_9="39.15679"></scales>
<clustering>
<clus scale="   39.157">  1  9  2 -1</clus>
<clus scale="   90.753">  5  6 -1 -1</clus>
<clus scale="   97.206">  7  8 -1 -1</clus>
<clus scale="  105.107">  2  5  1 -1</clus>
<clus scale="   39.157">  1  5  2 -1</clus>
</clustering>
</event>
<event>
 9    1  0.1803370E-005  0.1168191E+03  0.7546771E-02  0.1248674E+00
          1   -1    0    0  502    0  0.00000000000E+00  0.00000000000E+00  0.92475486063E+02  0.92475486063E+02  0.00000000000E+00 0. -1.
         -1   -1    0    0    0  501 -0.00000000000E+00 -0.00000000000E+00 -0.25731314172E+03  0.25731314172E+03  0.00000000000E+00 0.  1.
         23    2    1    2    0    0 -0.36080805728E+02 -0.81157194704E+02 -0.11981060048E+03  0.17465956243E+03  0.90901418958E+02 0.  0.
         23    2    1    2    0    0  0.16303846636E+02  0.53562215436E+02 -0.74086748129E+02  0.13044040073E+03  0.91603087041E+02 0.  0.
        -11    1    4    4    0    0  0.76620987993E+01 -0.25806529420E+02 -0.12891830037E+02  0.29847679984E+02  0.00000000000E+00 0.  1.
         11    1    4    4    0    0  0.86417478362E+01  0.79368744857E+02 -0.61194918092E+02  0.10059272074E+03  0.00000000000E+00 0. -1.
        -13    1    3    3    0    0 -0.20586677023E+02  0.85078491936E+00 -0.79215906815E+02  0.81851664603E+02  0.00000000000E+00 0.  1.
         13    1    3    3    0    0 -0.15494128705E+02 -0.82007979623E+02 -0.40594693663E+02  0.92807897831E+02  0.00000000000E+00 0. -1.
         21    1    1    2  502  501  0.19776959093E+02  0.27594979267E+02  0.29059692948E+02  0.44688664625E+02  0.00000000000E+00 0. -1.
<scales pt_clust_5="13000.00000" pt_clust_6="13000.00000" pt_clust_7="13000.00000" pt_clust_8="13000.00000" pt_clust_9="33.95013"></scales>
<clustering>
<clus scale="   33.950">  1  9  2 -1</clus>
<clus scale="   90.901">  7  8 -1 -1</clus>
<clus scale="   91.603">  5  6 -1 -1</clus>
<clus scale="  116.270">  2  7  1 -1</clus>
<clus scale="   33.950">  1  5  2 -1</clus>
</clustering>
</event>
<event>
 9    1  0.1803370E-005  0.1164697E+03  0.7546771E-02  0.1258068E+00
         -4   -1    0    0    0  501 -0.00000000000E+00  0.00000000000E+00  0.90808771055E+02  0.90808771055E+02  0.00000000000E+00 0.  1.
          4   -1    0    0  502    0  0.00000000000E+00 -0.00000000000E+00 -0.22446173975E+03  0.22446173975E+03  0.00000000000E+00 0. -1.
         23    2    1    2    0    0  0.84860126323E+01 -0.35508341650E+02  0.23477517955E+02  0.98239214749E+02  0.88129987678E+02 0.  0.
         23    2    1    2    0    0 -0.10754803348E+02  0.59838969443E+02 -0.12400923180E+03  0.17587131084E+03  0.10888553782E+03 0.  0.
        -11    1    3    3    0    0 -0.10743182292E+02 -0.60708124077E+02  0.24945225321E+02  0.66506815899E+02  0.00000000000E+00 0.  1.
         11    1    3    3    0    0  0.19229194924E+02  0.25199782428E+02 -0.14677073663E+01  0.31732398850E+02  0.00000000000E+00 0. -1.
        -13    1    4    4    0    0 -0.49235220321E+02  0.33262707839E+02 -0.21482301845E+02  0.63182307218E+02  0.00000000000E+00 0.  1.
         13    1    4    4    0    0  0.38480416973E+02  0.26576261604E+02 -0.10252692995E+03  0.11268900362E+03  0.00000000000E+00 0. -1.
         21    1    1    2  502  501  0.22687907155E+01 -0.24330627793E+02 -0.33121254852E+02  0.41159985218E+02  0.00000000000E+00 0. -1.
<scales pt_clust_5="13000.00000" pt_clust_6="13000.00000" pt_clust_7="13000.00000" pt_clust_8="13000.00000" pt_clust_9="24.43618"></scales>
<clustering>
<clus scale="   24.436">  2  9  1 -1</clus>
<clus scale="   88.130">  5  6 -1 -1</clus>
<clus scale="   97.345">  1  5  2 -1</clus>
<clus scale="  108.886">  7  8 -1 -1</clus>
<clus scale="   24.436">  2  5  1 -1</clus>
</clustering>
</event>
<event>
 9    1  0.1803370E-005  0.9315209E+02  0.7546771E-02  0.1296478E+00
          1   -1    0    0  502    0  0.00000000000E+00  0.00000000000E+00  0.32287073934E+02  0.32287073934E+02  0.00000000000E+00 0. -1.
         -1   -1    0    0    0  501 -0.00000000000E+00 -0.00000000000E+00 -0.36959390520E+03  0.36959390520E+03  0.00000000000E+00 0.  1.
         23    2    1    2    0    0 -0.23437913121E+02  0.92166779166E+01 -0.22578828400E+03  0.24469457755E+03  0.90888966142E+02 0.  0.
         23    2    1    2    0    0  0.41187576707E+01 -0.15342719548E+02 -0.88247394813E+02  0.12632696721E+03  0.88986160418E+02 0.  0.
        -13    1    4    4    0    0  0.29015204027E+02  0.14798252870E+02 -0.79995177080E+02  0.86371862946E+02  0.00000000000E+00 0.  1.
         13    1    4    4    0    0 -0.24896446357E+02 -0.30140972418E+02 -0.82522177337E+01  0.39955104267E+02  0.00000000000E+00 0. -1.
        -13    1    3    3    0    0  0.26239882244E+02 -0.97597642801E+01 -0.14697855216E+03  0.14962111888E+03  0.00000000000E+00 0.  1.
         13    1    3    3    0    0 -0.49677795365E+02  0.18976442197E+02 -0.78809731834E+02  0.95073458665E+02  0.00000000000E+00 0. -1.
         21    1    1    2  502  501  0.19319155450E+02  0.61260416315E+01 -0.23271152450E+02  0.30859434372E+02  0.00000000000E+00 0. -1.
<scales pt_clust_5="13000.00000" pt_clust_6="13000.00000" pt_clust_7="13000.00000" pt_clust_8="13000.00000" pt_clust_9="20.26717"></scales>
<clustering>
<clus scale="   20.267">  1  9  2 -1</clus>
<clus scale="   88.986">  5  6 -1 -1</clus>
<clus scale="   90.889">  7  8 -1 -1</clus>
<clus scale="   91.296">  1  5  2 -1</clus>
<clus scale="   20.267">  1  5  2 -1</clus>
</clustering>
</event>
<event>
 9    1  0.1803370E-005  0.1015392E+03  0.7546771E-02  0.1277118E+00
          2   -1    0    0  502    0  0.00000000000E+00  0.00000000000E+00  0.57609053840E+03  0.57609053840E+03  0.00000000000E+00 0. -1.
         -2   -1    0    0    0  501 -0.00000000000E+00 -0.00000000000E+00 -0.36529142516E+02  0.36529142516E+02  0.00000000000E+00 0.  1.
         23    2    1    2    0    0  0.20356628246E+02 -0.45293621518E+02  0.64111368862E+02  0.12160789667E+03  0.90621787946E+02 0.  0.
         23    2    1    2    0    0  0.14596944517E+01  0.33554606769E+02  0.34848226496E+03  0.36164962206E+03  0.90678099902E+02 0.  0.
        -11    1    3    3    0    0  0.41548821108E+02 -0.59743174840E+02  0.29486552130E+02  0.78517566391E+02  0.00000000000E+00 0.  1.
         11    1    3    3    0    0 -0.21192192862E+02  0.14449553322E+02  0.34624816732E+02  0.43090330276E+02  0.00000000000E+00 0. -1.
        -13    1    4    4    0    0  0.43152415359E+02  0.24355365301E+01  0.12753129526E+03  0.13465620692E+03  0.00000000000E+00 0.  1.
         13    1    4    4    0    0 -0.41692720907E+02  0.31119070239E+02  0.22095096970E+03  0.22699341515E+03  0.00000000000E+00 0. -1.
         21    1    1    2  502  501 -0.21816322698E+02  0.11739014749E+02  0.12696776206E+03  0.12936216219E+03  0.00000000000E+00 0.  1.
<scales pt_clust_5="13000.00000" pt_clust_6="13000.00000" pt_clust_7="13000.00000" pt_clust_8="13000.00000" pt_clust_9="24.77411"></scales>
<clustering>
<clus scale="   24.774">  1  9  2 -1</clus>
<clus scale="   90.622">  5  6 -1 -1</clus>
<clus scale="   90.678">  7  8 -1 -1</clus>
<clus scale="  101.489">  2  5  1 -1</clus>
<clus scale="   24.774">  1  5  2 -1</clus>
</clustering>
</event>
<event>
 9    1  0.1803370E-005  0.1077449E+03  0.7546771E-02  0.1266349E+00
         -1   -1    0    0    0  501 -0.00000000000E+00  0.00000000000E+00  0.33448405828E+02  0.33448405828E+02  0.00000000000E+00 0.  1.
          1   -1    0    0  502    0  0.00000000000E+00 -0.00000000000E+00 -0.68212590502E+03  0.68212590502E+03  0.00000000000E+00 0. -1.
         23    2    1    2    0    0 -0.25911787663E+02  0.59446226231E+02 -0.17193163495E+03  0.20519406953E+03  0.91317273940E+02 0.  0.
         23    2    1    2    0    0 -0.43548492975E+02 -0.53219022908E+02 -0.32046346974E+03  0.33924375930E+03  0.87525751325E+02 0.  0.
        -11    1    4    4    0    0 -0.71948975736E+00 -0.62373691140E+02 -0.13554135288E+03  0.14920607679E+03  0.00000000000E+00 0. -1.
         11    1    4    4    0    0 -0.42829003217E+02  0.91546682316E+01 -0.18492211687E+03  0.19003768251E+03  0.00000000000E+00 0.  1.
        -13    1    3    3    0    0 -0.20310092393E+02 -0.95579407355E+01 -0.30247394099E+01  0.22649572460E+02  0.00000000000E+00 0.  1.
         13    1    3    3    0    0 -0.56016952696E+01  0.69004166966E+02 -0.16890689554E+03  0.18254449707E+03  0.00000000000E+00 0. -1.
         21    1    1    2  502  501  0.69460280638E+02 -0.62272033225E+01 -0.15628239449E+03  0.17113648202E+03  0.00000000000E+00 0. -1.
<scales pt_clust_5="13000.00000" pt_clust_6="13000.00000" pt_clust_7="13000.00000" pt_clust_8="13000.00000" pt_clust_9="69.73886"></scales>
<clustering>
<clus scale="   69.739">  2  9  1 -1</clus>
<clus scale="   87.526">  5  6 -1 -1</clus>
<clus scale="   91.317">  7  8 -1 -1</clus>
<clus scale="  104.551">  2  5  1 -1</clus>
<clus scale="   69.739">  2  5  1 -1</clus>
</clustering>
</event>
<event>
 9    1  0.1803370E-005  0.9140738E+02  0.7546771E-02  0.1299806E+00
         -1   -1    0    0    0  501 -0.00000000000E+00  0.00000000000E+00  0.16044618367E+03  0.16044618367E+03  0.00000000000E+00 0.  1.
          1   -1    0    0  502    0  0.00000000000E+00 -0.00000000000E+00 -0.23153159049E+03  0.23153159049E+03  0.00000000000E+00 0. -1.
         23    2    1    2    0    0  0.74247494713E+01  0.95518138771E+01  0.12052309105E+03  0.15129504179E+03  0.90653241199E+02 0.  0.
         23    2    1    2    0    0  0.11631782196E+02 -0.17817484281E+02 -0.66808942719E+02  0.11416632365E+03  0.90098576712E+02 0.  0.
        -11    1    3    3    0    0 -0.10212155625E+02  0.26539651875E+02  0.12340440801E+03  0.12663841898E+03  0.00000000000E+00 0.  1.
         11    1    3    3    0    0  0.17636905096E+02 -0.16987837998E+02 -0.28813169561E+01  0.24656622815E+02  0.00000000000E+00 0. -1.
        -13    1    4    4    0    0 -0.28665925858E+02  0.23896311907E+01  0.51792657393E+01  0.29227905093E+02  0.00000000000E+00 0.  1.
         13    1    4    4    0    0  0.40297708054E+02 -0.20207115471E+02 -0.71988208459E+02  0.84938418558E+02  0.00000000000E+00 0. -1.
         21    1    1    2  502  501 -0.19056531667E+02  0.82656704035E+01 -0.12479955516E+03  0.12651640871E+03  0.00000000000E+00 0. -1.
<scales pt_clust_5="13000.00000" pt_clust_6="13000.00000" pt_clust_7="13000.00000" pt_clust_8="13000.00000" pt_clust_9="20.77192"></scales>
<clustering>
<clus scale="   20.772">  2  9  1 -1</clus>
<clus scale="   90.099">  7  8 -1 -1</clus>
<clus scale="   90.653">  5  6 -1 -1</clus>
<clus scale="   90.857">  2  7  1 -1</clus>
<clus scale="   20.772">  2  5  1 -1</clus>
</clustering>
</event>
<event>
 9    1  0.1803370E-005  0.1238137E+03  0.7546771E-02  0.1237003E+00
         -2   -1    0    0    0  501 -0.00000000000E+00  0.00000000000E+00  0.10934233235E+03  0.10934233235E+03  0.00000000000E+00 0.  1.
          2   -1    0    0  502    0  0.00000000000E+00 -0.00000000000E+00 -0.19336872158E+03  0.19336872158E+03  0.00000000000E+00 0. -1.
         23    2    1    2    0    0  0.13465796562E+02  0.67965093198E+02 -0.20071543344E+02  0.11655878756E+03  0.91556007638E+02 0.  0.
         23    2    1    2    0    0 -0.51571775767E+01 -0.10240792222E+03 -0.38753845930E+02  0.14267316773E+03  0.91322468224E+02 0.  0.
        -11    1    3    3    0    0 -0.11163341921E+02  0.77655931231E+02  0.69165034295E+01  0.78758503528E+02  0.00000000000E+00 0. -1.
         11    1    3    3    0    0  0.24629138483E+02 -0.96908380335E+01 -0.26988046774E+02  0.37800284032E+02  0.00000000000E+00 0.  1.
        -13    1    4    4    0    0 -0.22437074237E+02 -0.19733689201E+02 -0.49206140873E+02  0.57568090896E+02  0.00000000000E+00 0. -1.
         13    1    4    4    0    0  0.17279896661E+02 -0.82674233017E+02  0.10452294943E+02  0.85105076835E+02  0.00000000000E+00 0.  1.
         21    1    1    2  502  501 -0.83086189850E+01  0.34442829021E+02 -0.25200999951E+02  0.43479098644E+02  0.00000000000E+00 0. -1.
<scales pt_clust_5="13000.00000" pt_clust_6="13000.00000" pt_clust_7="13000.00000" pt_clust_8="13000.00000" pt_clust_9="35.43080"></scales>
<clustering>
<clus scale="   35.431">  2  9  1 -1</clus>
<clus scale="   91.322">  7  8 -1 -1</clus>
<clus scale="   91.556">  5  6 -1 -1</clus>
<clus scale="  123.641">  2  7  1 -1</clus>
<clus scale="   35.431">  2  5  1 -1</clus>
</clustering>
</event>
<event>
 9    1  0.1803370E-005  0.1054277E+03  0.7546771E-02  0.1270734E+00
          1   -1    0    0  502    0  0.00000000000E+00  0.00000000000E+00  0.17446827059E+03  0.17446827059E+03  0.00000000000E+00 0. -1.
         -1   -1    0    0    0  501 -0.00000000000E+00 -0.00000000000E+00 -0.78694650347E+02  0.78694650347E+02  0.00000000000E+00 0.  1.
         23    2    1    2    0    0  0.21521530460E+02 -0.44939653623E+02  0.28098952117E+02  0.10822345930E+03  0.91869566728E+02 0.  0.
         23    2    1    2    0    0 -0.41386231645E+02  0.37774162587E+02  0.45146411735E+02  0.11406110432E+03  0.88498754211E+02 0.  0.
        -11    1    4    4    0    0  0.20316598060E+02  0.17266889776E+02 -0.10325373993E+02  0.28592358899E+02  0.00000000000E+00 0.  1.
         11    1    4    4    0    0 -0.61702829706E+02  0.20507272811E+02  0.55471785728E+02  0.85468745420E+02  0.00000000000E+00 0. -1.
        -11    1    3    3    0    0  0.20910086853E+02 -0.70716069412E+02  0.55168193709E+01  0.73948830290E+02  0.00000000000E+00 0.  1.
         11    1    3    3    0    0  0.61144360764E+00  0.25776415788E+02  0.22582132746E+02  0.34274629007E+02  0.00000000000E+00 0. -1.
         21    1    1    2  502  501  0.19864701185E+02  0.71654910361E+01  0.22528256396E+02  0.30878357327E+02  0.00000000000E+00 0. -1.
<scales pt_clust_5="13000.00000" pt_clust_6="13000.00000" pt_clust_7="13000.00000" pt_clust_8="13000.00000" pt_clust_9="21.11754"></scales>
<clustering>
<clus scale="   21.118">  1  9  2 -1</clus>
<clus scale="   88.499">  5  6 -1 -1</clus>
<clus scale="   91.870">  7  8 -1 -1</clus>
<clus scale="  102.504">  1  5  2 -1</clus>
<clus scale="   21.118">  1  5  2 -1</clus>
</clustering>
</event>
<event>
 9    1  0.1803370E-005  0.1172104E+03  0.7546771E-02  0.1252285E+00
          3   -1    0    0  502    0  0.00000000000E+00  0.00000000000E+00  0.25708962543E+03  0.25708962543E+03  0.00000000000E+00 0. -1.
         -3   -1    0    0    0  501 -0.00000000000E+00 -0.00000000000E+00 -0.70269631615E+02  0.70269631615E+02  0.00000000000E+00 0.  1.
         23    2    1    2    0    0 -0.77905049955E+02 -0.83947652656E+01  0.41311305196E+02  0.11711939508E+03  0.76620231496E+02 0.  0.
         23    2    1    2    0    0  0.64157628188E+02  0.34886819137E+02  0.88736210446E+02  0.14609989937E+03  0.90209612280E+02 0.  0.
        -11    1    3    3    0    0 -0.10979221772E+02  0.29900587952E+02  0.17891621619E+02  0.36533526996E+02  0.00000000000E+00 0. -1.
         11    1    3    3    0    0 -0.66925828183E+02 -0.38295353217E+02  0.23419683577E+02  0.80585868084E+02  0.00000000000E+00 0.  1.
        -13    1    4    4    0    0  0.26324162232E+02 -0.30596750083E+02  0.33403716362E+02  0.52392088140E+02  0.00000000000E+00 0.  1.
         13    1    4    4    0    0  0.37833465956E+02  0.65483569221E+02  0.55332494085E+02  0.93707811231E+02  0.00000000000E+00 0. -1.
         21    1    1    2  502  501  0.13747421767E+02 -0.26492053872E+02  0.56772478168E+02  0.64139962589E+02  0.00000000000E+00 0.  1.
<scales pt_clust_5="13000.00000" pt_clust_6="13000.00000" pt_clust_7="13000.00000" pt_clust_8="13000.00000" pt_clust_9="29.84662"></scales>
<clustering>
<clus scale="   29.847">  1  9  2 -1</clus>
<clus scale="   76.620">  5  6 -1 -1</clus>
<clus scale="   90.210">  7  8 -1 -1</clus>
<clus scale="  107.104">  2  5  1 -1</clus>
<clus scale="   29.847">  1  5  2 -1</clus>
</clustering>
</event>
<event>
 9    1  0.1803370E-005  0.1093978E+03  0.7546771E-02  0.1262544E+00
          1   -1    0    0  502    0  0.00000000000E+00  0.00000000000E+00  0.29447245088E+03  0.29447245088E+03  0.00000000000E+00 0. -1.
         -1   -1    0    0    0  501 -0.00000000000E+00 -0.00000000000E+00 -0.86151667619E+02  0.86151667619E+02  0.00000000000E+00 0.  1.
         23    2    1    2    0    0  0.52832238334E+02 -0.11801238271E+02 -0.58146814267E+01  0.10391907852E+03  0.88514686512E+02 0.  0.
         23    2    1    2    0    0 -0.75004636320E+02  0.22624582807E+02  0.89340053347E+02  0.14949397634E+03  0.90715139941E+02 0.  0.
        -11    1    3    3    0    0  0.22851648753E+02 -0.48497661112E+02 -0.14956605932E+02  0.55658970931E+02  0.00000000000E+00 0.  1.
         11    1    3    3    0    0  0.29980589580E+02  0.36696422841E+02  0.91419245052E+01  0.48260107590E+02  0.00000000000E+00 0. -1.
        -13    1    4    4    0    0 -0.59500651370E+02 -0.27121485091E+02  0.34838635725E+02  0.74092057646E+02  0.00000000000E+00 0.  1.
         13    1    4    4    0    0 -0.15503984950E+02  0.49746067898E+02  0.54501417622E+02  0.75401918699E+02  0.00000000000E+00 0. -1.
         21    1    1    2  502  501  0.22172397987E+02 -0.10823344536E+02  0.12479541134E+03  0.12721106363E+03  0.00000000000E+00 0.  1.
<scales pt_clust_5="13000.00000" pt_clust_6="13000.00000" pt_clust_7="13000.00000" pt_clust_8="13000.00000" pt_clust_9="24.67306"></scales>
<clustering>
<clus scale="   24.673">  1  9  2 -1</clus>
<clus scale="   88.515">  5  6 -1 -1</clus>
<clus scale="   90.715">  7  8 -1 -1</clus>
<clus scale="  107.580">  2  5  1 -1</clus>
<clus scale="   24.673">  1  5  2 -1</clus>
</clustering>
</event>
<event>
 9    1  0.1803370E-005  0.2266954E+03  0.7546771E-02  0.1129783E+00
         -2   -1    0    0    0  501 -0.00000000000E+00  0.00000000000E+00  0.33689726288E+03  0.33689726288E+03  0.00000000000E+00 0.  1.
          2   -1    0    0  502    0  0.00000000000E+00 -0.00000000000E+00 -0.46676274018E+03  0.46676274018E+03  0.00000000000E+00 0. -1.
         23    2    1    2    0    0  0.20361972255E+03 -0.23130956729E+02  0.24201813991E+03  0.32954613141E+03  0.89620533974E+02 0.  0.
         23    2    1    2    0    0 -0.19664675528E+03 -0.44512072815E+01 -0.19353585296E+03  0.29351120539E+03  0.10001470743E+03 0.  0.
        -13    1    4    4    0    0 -0.17872000507E+03  0.18219005179E+02 -0.12421922894E+03  0.21841059773E+03  0.00000000000E+00 0. -1.
         13    1    4    4    0    0 -0.17926750214E+02 -0.22670212461E+02 -0.69316624022E+02  0.75100607668E+02  0.00000000000E+00 0.  1.
        -13    1    3    3    0    0  0.50690486721E+02 -0.44122796040E+02  0.53541597284E+02  0.85924671743E+02  0.00000000000E+00 0. -1.
         13    1    3    3    0    0  0.15292923583E+03  0.20991839312E+02  0.18847654263E+03  0.24362145967E+03  0.00000000000E+00 0.  1.
         21    1    1    2  502  501 -0.69729672711E+01  0.27582164010E+02 -0.17834776425E+03  0.18060266625E+03  0.00000000000E+00 0. -1.
<scales pt_clust_5="13000.00000" pt_clust_6="13000.00000" pt_clust_7="13000.00000" pt_clust_8="13000.00000" pt_clust_9="28.44992"></scales>
<clustering>
<clus scale="   28.450">  2  9  1 -1</clus>
<clus scale="   89.621">  7  8 -1 -1</clus>
<clus scale="  100.015">  5  6 -1 -1</clus>
<clus scale="  222.305">  1  7  2 -1</clus>
<clus scale="   28.450">  2  5  1 -1</clus>
</clustering>
</event>
<event>
 9    1  0.1803370E-005  0.1792993E+03  0.7546771E-02  0.1168509E+00
         -1   -1    0    0    0  501 -0.00000000000E+00  0.00000000000E+00  0.28774041923E+03  0.28774041923E+03  0.00000000000E+00 0.  1.
          1   -1    0    0  502    0  0.00000000000E+00 -0.00000000000E+00 -0.93119599704E+03  0.93119599704E+03  0.00000000000E+00 0. -1.
         23    2    1    2    0    0  0.12900377623E+03 -0.85028476676E+02  0.24877490825E+03  0.30712489399E+03  0.92546903837E+02 0.  0.
         23    2    1    2    0    0 -0.10622701008E+03  0.71312877944E+02 -0.69147848257E+03  0.70930654548E+03  0.92755481646E+02 0.  0.
        -11    1    4    4    0    0 -0.10506409130E+03  0.24088681686E+02 -0.53923403423E+03  0.54990187446E+03  0.00000000000E+00 0. -1.
         11    1    4    4    0    0 -0.11629187798E+01  0.47224196258E+02 -0.15224444834E+03  0.15940467102E+03  0.00000000000E+00 0.  1.
        -13    1    3    3    0    0  0.90576368755E+02 -0.90016400028E+02  0.13016518084E+03  0.18234583942E+03  0.00000000000E+00 0.  1.
         13    1    3    3    0    0  0.38427407477E+02  0.49879233520E+01  0.11860972741E+03  0.12477905457E+03  0.00000000000E+00 0. -1.
         21    1    1    2  502  501 -0.22776766153E+02  0.13715598732E+02 -0.20075200349E+03  0.20250497680E+03  0.00000000000E+00 0. -1.
<scales pt_clust_5="13000.00000" pt_clust_6="13000.00000" pt_clust_7="13000.00000" pt_clust_8="13000.00000" pt_clust_9="26.58757"></scales>
<clustering>
<clus scale="   26.588">  2  9  1 -1</clus>
<clus scale="   92.547">  7  8 -1 -1</clus>
<clus scale="   92.755">  5  6 -1 -1</clus>
<clus scale="  179.192">  1  7  2 -1</clus>
<clus scale="   26.588">  2  5  1 -1</clus>
</clustering>
</event>
<event>
 9    1  0.2963984E-005  0.9554931E+02  0.7546771E-02  0.1291226E+00
         -1   -1    0    0    0  501 -0.00000000000E+00  0.00000000000E+00  0.66614017212E+02  0.66614017212E+02  0.00000000000E+00 0.  1.
          1   -1    0    0  502    0  0.00000000000E+00 -0.00000000000E+00 -0.66405117824E+03  0.66405117824E+03  0.00000000000E+00 0. -1.
         23    2    1    2    0    0 -0.58146662405E+01 -0.19202074356E+02  0.20200426336E+02  0.98215600370E+02  0.93998494290E+02 0.  0.
         23    2    1    2    0    0  0.15972611636E+02 -0.18842723252E+02 -0.38745261197E+03  0.39892076736E+03  0.91695580964E+02 0.  0.
        -13    1    3    3    0    0  0.10117666776E+02 -0.55337004049E+02  0.76159450697E+01  0.56767541935E+02  0.00000000000E+00 0.  1.
         13    1    3    3    0    0 -0.15932333016E+02  0.36134929693E+02  0.12584481266E+02  0.41448058434E+02  0.00000000000E+00 0. -1.
        -13    1    4    4    0    0  0.22800854190E+02 -0.53775189415E+02 -0.21231546286E+03  0.22020332812E+03  0.00000000000E+00 0.  1.
         13    1    4    4    0    0 -0.68282425541E+01  0.34932466163E+02 -0.17513714911E+03  0.17871743924E+03  0.00000000000E+00 0. -1.
         21    1    1    2  502  501 -0.10157945396E+02  0.38044797608E+02 -0.23018497540E+03  0.23352882773E+03  0.00000000000E+00 0. -1.
<scales pt_clust_5="13000.00000" pt_clust_6="13000.00000" pt_clust_7="13000.00000" pt_clust_8="13000.00000" pt_clust_9="39.37754"></scales>
<clustering>
<clus scale="   39.378">  2  9  1 -1</clus>
<clus scale="   91.696">  7  8 -1 -1</clus>
<clus scale="   93.285">  2  7  1 -1</clus>
<clus scale="   93.998">  5  6 -1 -1</clus>
<clus scale="   39.378">  2  5  1 -1</clus>
</clustering>
</event>
<event>
 9    1  0.1803370E-005  0.1891792E+03  0.7546771E-02  0.1159209E+00
          4   -1    0    0  502    0  0.00000000000E+00  0.00000000000E+00  0.56027101633E+03  0.56027101633E+03  0.00000000000E+00 0. -1.
         -4   -1    0    0    0  501 -0.00000000000E+00 -0.00000000000E+00 -0.10903433150E+03  0.10903433150E+03  0.00000000000E+00 0.  1.
         23    2    1    2    0    0  0.14094724873E+03  0.99186234234E+02  0.11447275561E+03  0.22600202987E+03  0.90933325803E+02 0.  0.
         23    2    1    2    0    0 -0.73893587984E+02 -0.15301041306E+03  0.17593030584E+03  0.26092818243E+03  0.90882314148E+02 0.  0.
        -13    1    3    3    0    0  0.87992622832E+02  0.15973922790E+02  0.25064372061E+02  0.92876749668E+02  0.00000000000E+00 0.  1.
         13    1    3    3    0    0  0.52954625901E+02  0.83212311443E+02  0.89408383546E+02  0.13312528020E+03  0.00000000000E+00 0. -1.
        -13    1    4    4    0    0  0.43297181985E+01 -0.89690267741E+02  0.63170842712E+02  0.10978909762E+03  0.00000000000E+00 0.  1.
         13    1    4    4    0    0 -0.78223306182E+02 -0.63320145317E+02  0.11275946313E+03  0.15113908481E+03  0.00000000000E+00 0. -1.
         21    1    1    2  502  501 -0.67053660750E+02  0.53824178824E+02  0.16083362339E+03  0.18237513553E+03  0.00000000000E+00 0. -1.
<scales pt_clust_5="13000.00000" pt_clust_6="13000.00000" pt_clust_7="13000.00000" pt_clust_8="13000.00000" pt_clust_9="85.98393"></scales>
<clustering>
<clus scale="   85.984">  1  9  2 -1</clus>
<clus scale="   90.882">  7  8 -1 -1</clus>
<clus scale="   90.933">  5  6 -1 -1</clus>
<clus scale="  189.155">  1  7  2 -1</clus>
<clus scale="   85.984">  1  5  2 -1</clus>
</clustering>
</event>
<event>
 9    1  0.1803370E-005  0.1305212E+03  0.7546771E-02  0.1244605E+00
         -2   -1    0    0    0  501 -0.00000000000E+00  0.00000000000E+00  0.38424170122E+02  0.38424170122E+02  0.00000000000E+00 0.  1.
          2   -1    0    0  502    0  0.00000000000E+00 -0.00000000000E+00 -0.82336569170E+03  0.82336569170E+03  0.00000000000E+00 0. -1.
         23    2    1    2    0    0  0.11216855647E+01  0.22992351716E+02 -0.13519960771E+03  0.16267201195E+03  0.87483387749E+02 0.  0.
         23    2    1    2    0    0  0.48435927615E+02  0.59813302840E+02 -0.15987909524E+03  0.19984005693E+03  0.91929608820E+02 0.  0.
        -13    1    3    3    0    0 -0.20343952181E+02 -0.28302460517E+02 -0.52401207872E+02  0.62934825400E+02  0.00000000000E+00 0.  1.
         13    1    3    3    0    0  0.21465637746E+02  0.51294812233E+02 -0.82798399840E+02  0.99737186555E+02  0.00000000000E+00 0. -1.
        -13    1    4    4    0    0 -0.78743361083E+01  0.59499855138E+02 -0.58165157134E+02  0.83578845620E+02  0.00000000000E+00 0.  1.
         13    1    4    4    0    0  0.56310263723E+02  0.31344770216E+00 -0.10171393811E+03  0.11626121131E+03  0.00000000000E+00 0. -1.
         21    1    1    2  502  501 -0.49557613179E+02 -0.82805654557E+02 -0.48986281863E+03  0.49927779294E+03  0.00000000000E+00 0. -1.
<scales pt_clust_5="13000.00000" pt_clust_6="13000.00000" pt_clust_7="13000.00000" pt_clust_8="13000.00000" pt_clust_9="92.65384"></scales>
<clustering>
<clus scale="   87.483">  5  6 -1 -1</clus>
<clus scale="   90.461">  1  5  2 -1</clus>
<clus scale="   91.930">  7  8 -1 -1</clus>
<clus scale="   92.654">  2  9  1 -1</clus>
<clus scale="   92.654">  2  5  1 -1</clus>
</clustering>
</event>
<event>
 9    1  0.1803370E-005  0.9367046E+02  0.7546771E-02  0.1294357E+00
         -1   -1    0    0    0  501 -0.00000000000E+00  0.00000000000E+00  0.22808012938E+03  0.22808012938E+03  0.00000000000E+00 0.  1.
          1   -1    0    0  502    0  0.00000000000E+00 -0.00000000000E+00 -0.92967522866E+02  0.92967522866E+02  0.00000000000E+00 0. -1.
         23    2    1    2    0    0 -0.21784541024E+02  0.69515356980E+01  0.15657595166E+03  0.18279725253E+03  0.91520035066E+02 0.  0.
         23    2    1    2    0    0 -0.33744712763E+01 -0.28306760810E+02  0.53379450135E+01  0.95737687584E+02  0.91238979625E+02 0.  0.
        -13    1    3    3    0    0  0.35892755070E+02  0.67225790945E+01  0.65583161996E+02  0.75064199679E+02  0.00000000000E+00 0.  1.
         13    1    3    3    0    0 -0.57677296093E+02  0.22895660356E+00  0.90992789660E+02  0.10773305285E+03  0.00000000000E+00 0. -1.
        -13    1    4    4    0    0 -0.32862394406E+02 -0.44132541386E+02 -0.14409867380E+02  0.56879367553E+02  0.00000000000E+00 0. -1.
         13    1    4    4    0    0  0.29487923129E+02  0.15825780576E+02  0.19747812394E+02  0.38858320032E+02  0.00000000000E+00 0.  1.
         21    1    1    2  502  501  0.25159012300E+02  0.21355225112E+02 -0.26801290151E+02  0.42512712137E+02  0.00000000000E+00 0. -1.
<scales pt_clust_5="13000.00000" pt_clust_6="13000.00000" pt_clust_7="13000.00000" pt_clust_8="13000.00000" pt_clust_9="33.00033"></scales>
<clustering>
<clus scale="   33.000">  2  9  1 -1</clus>
<clus scale="   91.239">  7  8 -1 -1</clus>
<clus scale="   91.520">  5  6 -1 -1</clus>
<clus scale="   93.396">  2  7  1 -1</clus>
<clus scale="   33.000">  2  5  1 -1</clus>
</clustering>
</event>
<event>
 9    1  0.1803370E-005  0.1085433E+03  0.7546771E-02  0.1263297E+00
          1   -1    0    0  502    0  0.00000000000E+00  0.00000000000E+00  0.45134897846E+03  0.45134897846E+03  0.00000000000E+00 0. -1.
         -1   -1    0    0    0  501 -0.00000000000E+00 -0.00000000000E+00 -0.10142236561E+03  0.10142236561E+03  0.00000000000E+00 0.  1.
         23    2    1    2    0    0 -0.61913792330E+02  0.18677263274E+02 -0.55682003052E+02  0.12412450913E+03  0.90134624084E+02 0.  0.
         23    2    1    2    0    0  0.24846068101E+02 -0.22630257730E+02  0.23343582491E+03  0.25248465880E+03  0.90148560232E+02 0.  0.
        -13    1    3    3    0    0 -0.22166467089E+02 -0.36310481819E+02 -0.15547471075E+02  0.45293787763E+02  0.00000000000E+00 0. -1.
         13    1    3    3    0    0 -0.39747325242E+02  0.54987745093E+02 -0.40134531977E+02  0.78830721367E+02  0.00000000000E+00 0.  1.
        -13    1    4    4    0    0 -0.13665509052E+02  0.23053615864E+02  0.28959633230E+02  0.39457264209E+02  0.00000000000E+00 0.  1.
         13    1    4    4    0    0  0.38511577153E+02 -0.45683873594E+02  0.20447619168E+03  0.21302739459E+03  0.00000000000E+00 0. -1.
         21    1    1    2  502  501  0.37067724229E+02  0.39529944558E+01  0.17217279099E+03  0.17616217614E+03  0.00000000000E+00 0. -1.
<scales pt_clust_5="13000.00000" pt_clust_6="13000.00000" pt_clust_7="13000.00000" pt_clust_8="13000.00000" pt_clust_9="37.27791"></scales>
<clustering>
<clus scale="   37.278">  1  9  2 -1</clus>
<clus scale="   90.135">  5  6 -1 -1</clus>
<clus scale="   90.149">  7  8 -1 -1</clus>
<clus scale="  108.532">  2  5  1 -1</clus>
<clus scale="   37.278">  1  5  2 -1</clus>
</clustering>
</event>
<event>
 9    1  0.1803370E-005  0.1374865E+03  0.7546771E-02  0.1217770E+00
         -1   -1    0    0    0  501 -0.00000000000E+00  0.00000000000E+00  0.21891841226E+03  0.21891841226E+03  0.00000000000E+00 0.  1.
          1   -1    0    0  502    0  0.00000000000E+00 -0.00000000000E+00 -0.40384617789E+03  0.40384617789E+03  0.00000000000E+00 0. -1.
         23    2    1    2    0    0  0.89130716600E+02  0.34444792383E+02  0.14771485637E+03  0.19956683251E+03  0.94215250792E+02 0.  0.
         23    2    1    2    0    0 -0.12295463694E+03 -0.24861034542E+02 -0.91310350756E+02  0.17931833836E+03  0.89897566893E+02 0.  0.
        -13    1    4    4    0    0 -0.25204269387E+02  0.10997198479E+02  0.14315367284E+02  0.31001988810E+02  0.00000000000E+00 0.  1.
         13    1    4    4    0    0 -0.97750367549E+02 -0.35858233021E+02 -0.10562571804E+03  0.14831634955E+03  0.00000000000E+00 0. -1.
        -13    1    3    3    0    0  0.24855944886E+02 -0.21530427709E+02  0.92101240953E+02  0.97795786712E+02  0.00000000000E+00 0.  1.
         13    1    3    3    0    0  0.64274771714E+02  0.55975220092E+02  0.55613615421E+02  0.10177104580E+03  0.00000000000E+00 0. -1.
         21    1    1    2  502  501  0.33823920336E+02 -0.95837578410E+01 -0.24133227125E+03  0.24387941927E+03  0.00000000000E+00 0. -1.
<scales pt_clust_5="13000.00000" pt_clust_6="13000.00000" pt_clust_7="13000.00000" pt_clust_8="13000.00000" pt_clust_9="35.15545"></scales>
<clustering>
<clus scale="   35.155">  2  9  1 -1</clus>
<clus scale="   89.898">  5  6 -1 -1</clus>
<clus scale="   94.215">  7  8 -1 -1</clus>
<clus scale="  134.564">  2  5  1 -1</clus>
<clus scale="   35.155">  2  5  1 -1</clus>
</clustering>
</event>
<event>
 9    1  0.1803370E-005  0.1139944E+03  0.7546771E-02  0.1254813E+00
          2   -1    0    0  502    0  0.00000000000E+00  0.00000000000E+00  0.26450263351E+03  0.26450263351E+03  0.00000000000E+00 0. -1.
         -2   -1    0    0    0  501 -0.00000000000E+00 -0.00000000000E+00 -0.67642450159E+02  0.67642450159E+02  0.00000000000E+00 0.  1.
         23    2    1    2    0    0 -0.32016943870E+02  0.60383161909E+02  0.40369397807E+02  0.12530073322E+03  0.96950371480E+02 0.  0.
         23    2    1    2    0    0  0.36941983115E+02 -0.32155477293E+02  0.10970958164E+03  0.15198508296E+03  0.93083770349E+02 0.  0.
        -11    1    3    3    0    0 -0.29940125910E+02  0.16794475521E+02 -0.27926790136E+02  0.44253487488E+02  0.00000000000E+00 0.  1.
         11    1    3    3    0    0 -0.20768179599E+01  0.43588686388E+02  0.68296187943E+02  0.81047245736E+02  0.00000000000E+00 0. -1.
        -13    1    4    4    0    0 -0.31193193038E+02 -0.16346576599E+02  0.38149199398E+02  0.51919045379E+02  0.00000000000E+00 0.  1.
         13    1    4    4    0    0  0.68135176153E+02 -0.15808900694E+02  0.71560382239E+02  0.10006603758E+03  0.00000000000E+00 0. -1.
         21    1    1    2  502  501 -0.49250392451E+01 -0.28227684616E+02  0.46781203912E+02  0.54859267493E+02  0.00000000000E+00 0.  1.
<scales pt_clust_5="13000.00000" pt_clust_6="13000.00000" pt_clust_7="13000.00000" pt_clust_8="13000.00000" pt_clust_9="28.65411"></scales>
<clustering>
<clus scale="   28.654">  1  9  2 -1</clus>
<clus scale="   93.084">  7  8 -1 -1</clus>
<clus scale="   96.950">  5  6 -1 -1</clus>
<clus scale="  110.725">  1  7  2 -1</clus>
<clus scale="   28.654">  1  5  2 -1</clus>
</clustering>
</event>
<event>
 9    1  0.1803370E-005  0.1116472E+03  0.7546771E-02  0.1260786E+00
          1   -1    0    0  502    0  0.00000000000E+00  0.00000000000E+00  0.61458451842E+03  0.61458451842E+03  0.00000000000E+00 0. -1.
         -1   -1    0    0    0  501 -0.00000000000E+00 -0.00000000000E+00 -0.48476600914E+02  0.48476600914E+02  0.00000000000E+00 0.  1.
         23    2    1    2    0    0  0.58078932733E+02  0.21019375681E+02  0.17121400666E+03  0.20417804261E+03  0.92517352017E+02 0.  0.
         23    2    1    2    0    0 -0.24510741197E+02  0.76472116728E+02  0.18758501331E+03  0.22734821203E+03  0.10025124050E+03 0.  0.
        -11    1    3    3    0    0  0.66039140356E+02  0.43782411847E+02  0.15781972283E+03  0.17659312716E+03  0.00000000000E+00 0. -1.
         11    1    3    3    0    0 -0.79602076236E+01 -0.22763036166E+02  0.13394283834E+02  0.27584915449E+02  0.00000000000E+00 0.  1.
        -13    1    4    4    0    0 -0.74737103130E+01 -0.24514301431E+02  0.45150609607E+02  0.51917096108E+02  0.00000000000E+00 0. -1.
         13    1    4    4    0    0 -0.17037030884E+02  0.10098641816E+03  0.14243440370E+03  0.17543111592E+03  0.00000000000E+00 0.  1.
         21    1    1    2  502  501 -0.33568191536E+02 -0.97491492409E+02  0.20730889753E+03  0.23153486470E+03  0.00000000000E+00 0. -1.
<scales pt_clust_5="13000.00000" pt_clust_6="13000.00000" pt_clust_7="13000.00000" pt_clust_8="13000.00000" pt_clust_9="103.10875"></scales>
<clustering>
<clus scale="   92.517">  5  6 -1 -1</clus>
<clus scale="  100.251">  7  8 -1 -1</clus>
<clus scale="  103.109">  1  9  2 -1</clus>
<clus scale="  104.758">  2  5  1 -1</clus>
<clus scale="  103.109">  1  5  2 -1</clus>
</clustering>
</event>
<event>
 9    1  0.1803370E-005  0.1503502E+03  0.7546771E-02  0.1201223E+00
         -2   -1    0    0    0  501 -0.00000000000E+00  0.00000000000E+00  0.48667125608E+02  0.48667125608E+02  0.00000000000E+00 0.  1.
          2   -1    0    0  502    0  0.00000000000E+00 -0.00000000000E+00 -0.92858450189E+03  0.92858450189E+03  0.00000000000E+00 0. -1.
         23    2    1    2    0    0 -0.73872320211E+02 -0.90406950355E+02 -0.19295040852E+03  0.24553029343E+03  0.97081040773E+02 0.  0.
         23    2    1    2    0    0  0.15723608456E+02  0.12179640593E+03 -0.27641977126E+03  0.31589015300E+03  0.91088432053E+02 0.  0.
        -11    1    4    4    0    0 -0.31181947964E+02  0.51527838227E+02 -0.67112244239E+02  0.90174748782E+02  0.00000000000E+00 0.  1.
         11    1    4    4    0    0  0.46905556420E+02  0.70268567706E+02 -0.20930752703E+03  0.22571540421E+03  0.00000000000E+00 0. -1.
        -11    1    3    3    0    0 -0.78193402606E+02 -0.46396954262E+02 -0.17613761859E+03  0.19822044863E+03  0.00000000000E+00 0. -1.
         11    1    3    3    0    0  0.43210823960E+01 -0.44009996094E+02 -0.16812789938E+02  0.47309844797E+02  0.00000000000E+00 0.  1.
         21    1    1    2  502  501  0.58148711755E+02 -0.31389455577E+02 -0.41054719649E+03  0.41583118106E+03  0.00000000000E+00 0.  1.
<scales pt_clust_5="13000.00000" pt_clust_6="13000.00000" pt_clust_7="13000.00000" pt_clust_8="13000.00000" pt_clust_9="66.08003"></scales>
<clustering>
<clus scale="   66.080">  2  9  1 -1</clus>
<clus scale="   91.088">  5  6 -1 -1</clus>
<clus scale="   97.081">  7  8 -1 -1</clus>
<clus scale="  146.552">  2  5  1 -1</clus>
<clus scale="   66.080">  2  5  1 -1</clus>
</clustering>
</event>
<event>
 9    1  0.1803370E-005  0.9253750E+02  0.7546771E-02  0.1297006E+00
         -1   -1    0    0    0  501 -0.00000000000E+00  0.00000000000E+00  0.33944606509E+03  0.33944606509E+03  0.00000000000E+00 0.  1.
          1   -1    0    0  502    0  0.00000000000E+00 -0.00000000000E+00 -0.53658650680E+02  0.53658650680E+02  0.00000000000E+00 0. -1.
         23    2    1    2    0    0 -0.60822418711E+01  0.17541369970E+02  0.21901740981E+03  0.23723211735E+03  0.89251097345E+02 0.  0.
         23    2    1    2    0    0 -0.16437961671E+02 -0.48392292330E+02  0.51099999443E+02  0.11458715256E+03  0.88921229458E+02 0.  0.
        -11    1    4    4    0    0  0.12205370355E+02  0.22748928930E+02  0.11256875766E+02  0.28163843576E+02  0.00000000000E+00 0.  1.
         11    1    4    4    0    0 -0.28643332026E+02 -0.71141221260E+02  0.39843123676E+02  0.86423308986E+02  0.00000000000E+00 0. -1.
        -11    1    3    3    0    0 -0.35120962334E+02  0.35723908762E+02  0.17139105680E+03  0.17856252128E+03  0.00000000000E+00 0.  1.
         11    1    3    3    0    0  0.29038720463E+02 -0.18182538791E+02  0.47626353005E+02  0.58669596075E+02  0.00000000000E+00 0. -1.
         21    1    1    2  502  501  0.22520203542E+02  0.30850922360E+02  0.15670005163E+02  0.41285445860E+02  0.00000000000E+00 0.  1.
<scales pt_clust_5="13000.00000" pt_clust_6="13000.00000" pt_clust_7="13000.00000" pt_clust_8="13000.00000" pt_clust_9="38.19606"></scales>
<clustering>
<clus scale="   38.196">  2  9  1 -1</clus>
<clus scale="   88.921">  5  6 -1 -1</clus>
<clus scale="   89.251">  7  8 -1 -1</clus>
<clus scale="   92.219">  2  5  1 -1</clus>
<clus scale="   38.196">  2  5  1 -1</clus>
</clustering>
</event>
<event>
 9    1  0.1803370E-005  0.1257119E+03  0.7546771E-02  0.1234591E+00
         -3   -1    0    0    0  501 -0.00000000000E+00  0.00000000000E+00  0.81488341558E+02  0.81488341558E+02  0.00000000000E+00 0.  1.
          3   -1    0    0  502    0  0.00000000000E+00 -0.00000000000E+00 -0.49456346891E+03  0.49456346891E+03  0.00000000000E+00 0. -1.
         23    2    1    2    0    0 -0.87198085462E+02  0.44388154183E+02 -0.52462219884E+02  0.14347600092E+03  0.90880492877E+02 0.  0.
         23    2    1    2    0    0  0.10856913830E+02 -0.89804923634E+02 -0.12264236161E+03  0.17856667954E+03  0.93070474867E+02 0.  0.
        -13    1    4    4    0    0  0.41120509286E+02 -0.40411278997E+02 -0.10182104216E+03  0.11701065072E+03  0.00000000000E+00 0.  1.
         13    1    4    4    0    0 -0.30263595456E+02 -0.49393644638E+02 -0.20821319452E+02  0.61556028821E+02  0.00000000000E+00 0. -1.
        -13    1    3    3    0    0 -0.44517786054E+02 -0.11049685802E+02 -0.57237884698E+02  0.73349194107E+02  0.00000000000E+00 0. -1.
         13    1    3    3    0    0 -0.42680299408E+02  0.55437839985E+02  0.47756648139E+01  0.70126806816E+02  0.00000000000E+00 0.  1.
         21    1    1    2  502  501  0.76341171632E+02  0.45416769451E+02 -0.23797054585E+03  0.25400913000E+03  0.00000000000E+00 0. -1.
<scales pt_clust_5="13000.00000" pt_clust_6="13000.00000" pt_clust_7="13000.00000" pt_clust_8="13000.00000" pt_clust_9="88.82937"></scales>
<clustering>
<clus scale="   88.829">  2  9  1 -1</clus>
<clus scale="   90.880">  7  8 -1 -1</clus>
<clus scale="   93.070">  5  6 -1 -1</clus>
<clus scale="  124.099">  1  7  2 -1</clus>
<clus scale="   88.829">  2  5  1 -1</clus>
</clustering>
</event>
<event>
 9    1  0.1803370E-005  0.1424982E+03  0.7546771E-02  0.1210744E+00
          1   -1    0    0  502    0  0.00000000000E+00  0.00000000000E+00  0.75737912646E+03  0.75737912646E+03  0.00000000000E+00 0. -1.
         -1   -1    0    0    0  501 -0.00000000000E+00 -0.00000000000E+00 -0.14533762154E+03  0.14533762154E+03  0.00000000000E+00 0.  1.
         23    2    1    2    0    0 -0.10573963347E+03 -0.25676120286E+02 -0.96304175842E+02  0.17178613029E+03  0.91628854827E+02 0.  0.
         23    2    1    2    0    0  0.10317182714E+03  0.55659241974E+02  0.52366803159E+03  0.54381724214E+03  0.88128363192E+02 0.  0.
        -11    1    4    4    0    0  0.17306374678E+02  0.24270143360E+02  0.32044067823E+02  0.43764971677E+02  0.00000000000E+00 0.  1.
         11    1    4    4    0    0  0.85865452466E+02  0.31389098614E+02  0.49162396377E+03  0.50005227046E+03  0.00000000000E+00 0. -1.
        -13    1    3    3    0    0 -0.91799185506E+02 -0.55003370477E+02 -0.58540623582E+02  0.12198141593E+03  0.00000000000E+00 0.  1.
         13    1    3    3    0    0 -0.13940447963E+02  0.29327250191E+02 -0.37763552261E+02  0.49804714360E+02  0.00000000000E+00 0. -1.
         21    1    1    2  502  501  0.25678063245E+01 -0.29983121688E+02  0.18467764917E+03  0.18711337558E+03  0.00000000000E+00 0. -1.
<scales pt_clust_5="13000.00000" pt_clust_6="13000.00000" pt_clust_7="13000.00000" pt_clust_8="13000.00000" pt_clust_9="30.09288"></scales>
<clustering>
<clus scale="   30.093">  1  9  2 -1</clus>
<clus scale="   88.128">  5  6 -1 -1</clus>
<clus scale="   91.629">  7  8 -1 -1</clus>
<clus scale="  140.273">  1  5  2 -1</clus>
<clus scale="   30.093">  1  5  2 -1</clus>
</clustering>
</event>
<event>
 9    1  0.1803370E-005  0.1028427E+03  0.7546771E-02  0.1276069E+00
          2   -1    0    0  502    0  0.00000000000E+00  0.00000000000E+00  0.53781277226E+03  0.53781277226E+03  0.00000000000E+00 0. -1.
         -2   -1    0    0    0  501 -0.00000000000E+00 -0.00000000000E+00 -0.36299882827E+02  0.36299882827E+02  0.00000000000E+00 0.  1.
         23    2    1    2    0    0  0.58954079247E+02  0.31473872287E+02  0.14470476877E+03  0.18491939016E+03  0.93752454145E+02 0.  0.
         23    2    1    2    0    0 -0.18116261306E+02  0.14464273161E+02  0.19545669946E+03  0.21653081473E+03  0.90248868370E+02 0.  0.
        -11    1    4    4    0    0 -0.41875803514E+02  0.31884272651E+02  0.69534147013E+02  0.87207725365E+02  0.00000000000E+00 0.  1.
         11    1    4    4    0    0  0.23759542208E+02 -0.17419999490E+02  0.12592255245E+03  0.12932308937E+03  0.00000000000E+00 0. -1.
        -11    1    3    3    0    0  0.11094030836E+02 -0.29201719829E+02  0.16768138278E+02  0.35454032527E+02  0.00000000000E+00 0. -1.
         11    1    3    3    0    0  0.47860048411E+02  0.60675592116E+02  0.12793663049E+03  0.14946535764E+03  0.00000000000E+00 0.  1.
         21    1    1    2  502  501 -0.40837817941E+02 -0.45938145448E+02  0.16135142120E+03  0.17266245019E+03  0.00000000000E+00 0.  1.
<scales pt_clust_5="13000.00000" pt_clust_6="13000.00000" pt_clust_7="13000.00000" pt_clust_8="13000.00000" pt_clust_9="61.46577"></scales>
<clustering>
<clus scale="   61.466">  1  9  2 -1</clus>
<clus scale="   90.249">  5  6 -1 -1</clus>
<clus scale="   93.752">  7  8 -1 -1</clus>
<clus scale="   99.659">  1  5  2 -1</clus>
<clus scale="   61.466">  1  5  2 -1</clus>
</clustering>
</event>
<event>
 9    1  0.1803370E-005  0.1223576E+03  0.7546771E-02  0.1241527E+00
          1   -1    0    0  502    0  0.00000000000E+00  0.00000000000E+00  0.82120135958E+03  0.82120135958E+03  0.00000000000E+00 0. -1.
         -1   -1    0    0    0  501 -0.00000000000E+00 -0.00000000000E+00 -0.40367053918E+02  0.40367053918E+02  0.00000000000E+00 0.  1.
         23    2    1    2    0    0  0.67235016607E+02  0.29644220202E+02  0.80078058816E+02  0.14140715700E+03  0.90466354498E+02 0.  0.
         23    2    1    2    0    0 -0.81954205240E+02 -0.17410186175E+01  0.62917264419E+03  0.64193430883E+03  0.97477780825E+02 0.  0.
        -11    1    3    3    0    0  0.81240487319E+02  0.13929542112E+02  0.86416986149E+02  0.11942338305E+03  0.00000000000E+00 0.  1.
         11    1    3    3    0    0 -0.14005470711E+02  0.15714678090E+02 -0.63389273324E+01  0.21983773949E+02  0.00000000000E+00 0. -1.
        -13    1    4    4    0    0 -0.39535294956E+02 -0.48200583878E+02  0.25499814867E+03  0.26250788876E+03  0.00000000000E+00 0.  1.
         13    1    4    4    0    0 -0.42418910284E+02  0.46459565260E+02  0.37417449552E+03  0.37942642008E+03  0.00000000000E+00 0. -1.
         21    1    1    2  502  501  0.14719188632E+02 -0.27903201585E+02  0.71583602648E+02  0.78226947663E+02  0.00000000000E+00 0. -1.
<scales pt_clust_5="13000.00000" pt_clust_6="13000.00000" pt_clust_7="13000.00000" pt_clust_8="13000.00000" pt_clust_9="31.54747"></scales>
<clustering>
<clus scale="   31.547">  1  9  2 -1</clus>
<clus scale="   90.466">  5  6 -1 -1</clus>
<clus scale="   97.478">  7  8 -1 -1</clus>
<clus scale="  116.849">  2  5  1 -1</clus>
<clus scale="   31.547">  1  5  2 -1</clus>
</clustering>
</event>
<event>
 9    1  0.1803370E-005  0.1048703E+03  0.7546771E-02  0.1270810E+00
         -1   -1    0    0    0  501 -0.00000000000E+00  0.00000000000E+00  0.49847082643E+02  0.49847082643E+02  0.00000000000E+00 0.  1.
          1   -1    0    0  502    0  0.00000000000E+00 -0.00000000000E+00 -0.46932361273E+03  0.46932361273E+03  0.00000000000E+00 0. -1.
         23    2    1    2    0    0  0.64637098766E+02  0.76699414346E+00 -0.64267302600E+02  0.12938767492E+03  0.91827781317E+02 0.  0.
         23    2    1    2    0    0 -0.21033443627E+02  0.19414686553E+02 -0.14764896406E+03  0.17673410134E+03  0.92819126187E+02 0.  0.
        -11    1    3    3    0    0  0.35775642422E+02 -0.40706467883E+02 -0.56460726844E+02  0.78260633744E+02  0.00000000000E+00 0. -1.
         11    1    3    3    0    0  0.28861456344E+02  0.41473462026E+02 -0.78065757562E+01  0.51127041180E+02  0.00000000000E+00 0.  1.
        -13    1    4    4    0    0  0.13042555266E+02  0.44510986299E+02 -0.40667526184E+02  0.61686172155E+02  0.00000000000E+00 0.  1.
         13    1    4    4    0    0 -0.34075998893E+02 -0.25096299746E+02 -0.10698143787E+03  0.11504792919E+03  0.00000000000E+00 0. -1.
         21    1    1    2  502  501 -0.43603655139E+02 -0.20181680697E+02 -0.20756026343E+03  0.21304891910E+03  0.00000000000E+00 0. -1.
<scales pt_clust_5="13000.00000" pt_clust_6="13000.00000" pt_clust_7="13000.00000" pt_clust_8="13000.00000" pt_clust_9="48.04767"></scales>
<clustering>
<clus scale="   48.048">  2  9  1 -1</clus>
<clus scale="   91.828">  5  6 -1 -1</clus>
<clus scale="   92.819">  7  8 -1 -1</clus>
<clus scale="  103.994">  1  5  2 -1</clus>
<clus scale="   48.048">  2  5  1 -1</clus>
</clustering>
</event>
<event>
 9    1  0.1803370E-005  0.9481189E+02  0.7546771E-02  0.1293013E+00
          2   -1    0    0  502    0  0.00000000000E+00  0.00000000000E+00  0.15180241271E+03  0.15180241271E+03  0.00000000000E+00 0. -1.
         -2   -1    0    0    0  501 -0.00000000000E+00 -0.00000000000E+00 -0.15268612470E+03  0.15268612470E+03  0.00000000000E+00 0.  1.
         23    2    1    2    0    0  0.33554341060E+01 -0.16014687199E+02 -0.74863478872E+02  0.11806540507E+03  0.89817427383E+02 0.  0.
         23    2    1    2    0    0 -0.52884342496E+02  0.76815904543E+01  0.13099971333E+02  0.10749973420E+03  0.92351627439E+02 0.  0.
        -11    1    3    3    0    0 -0.39157283584E+02  0.10764241957E+02 -0.27731612959E+02  0.49175238890E+02  0.00000000000E+00 0. -1.
         11    1    3    3    0    0  0.42512717690E+02 -0.26778929156E+02 -0.47131865912E+02  0.68890166181E+02  0.00000000000E+00 0.  1.
        -13    1    4    4    0    0 -0.36617607378E+02 -0.40938451298E+02  0.11988756284E+02  0.56218646746E+02  0.00000000000E+00 0. -1.
         13    1    4    4    0    0 -0.16266735118E+02  0.48620041752E+02  0.11112150491E+01  0.51281087452E+02  0.00000000000E+00 0.  1.
         21    1    1    2  502  501  0.49528908390E+02  0.83330967447E+01  0.60879795552E+02  0.78923398141E+02  0.00000000000E+00 0. -1.
<scales pt_clust_5="13000.00000" pt_clust_6="13000.00000" pt_clust_7="13000.00000" pt_clust_8="13000.00000" pt_clust_9="50.22503"></scales>
<clustering>
<clus scale="   50.225">  1  9  2 -1</clus>
<clus scale="   89.817">  5  6 -1 -1</clus>
<clus scale="   92.345">  2  5  1 -1</clus>
<clus scale="   92.352">  7  8 -1 -1</clus>
<clus scale="   50.225">  1  5  2 -1</clus>
</clustering>
</event>
<event>
 9    1  0.1803370E-005  0.9148682E+02  0.7546771E-02  0.1299406E+00
         -1   -1    0    0    0  501 -0.00000000000E+00  0.00000000000E+00  0.28975323535E+03  0.28975323535E+03  0.00000000000E+00 0.  1.
          1   -1    0    0  502    0  0.00000000000E+00 -0.00000000000E+00 -0.85806888890E+02  0.85806888890E+02  0.00000000000E+00 0. -1.
         23    2    1    2    0    0 -0.22511983999E+02  0.69209389085E+01  0.18330536817E+03  0.20596310421E+03  0.90913439479E+02 0.  0.
         23    2    1    2    0    0 -0.35581949183E+02  0.55752103904E+01  0.41807558980E+02  0.10651704731E+03  0.91109007800E+02 0.  0.
        -11    1    3    3    0    0  0.14213463299E+02  0.26403084252E+02  0.16852102001E+02  0.34396783844E+02  0.00000000000E+00 0. -1.
         11    1    3    3    0    0 -0.36725447297E+02 -0.19482145344E+02  0.16645326616E+03  0.17156632036E+03  0.00000000000E+00 0.  1.
        -11    1    4    4    0    0 -0.31927670287E+02  0.34738195657E+02 -0.87985716396E+01  0.47995137570E+02  0.00000000000E+00 0. -1.
         11    1    4    4    0    0 -0.36542788966E+01 -0.29162985267E+02  0.50606130619E+02  0.58521909745E+02  0.00000000000E+00 0.  1.
         21    1    1    2  502  501  0.58093933182E+02 -0.12496149299E+02 -0.21166580686E+02  0.63079972715E+02  0.00000000000E+00 0. -1.
<scales pt_clust_5="13000.00000" pt_clust_6="13000.00000" pt_clust_7="13000.00000" pt_clust_8="13000.00000" pt_clust_9="59.42271"></scales>
<clustering>
<clus scale="   59.423">  2  9  1 -1</clus>
<clus scale="   90.913">  5  6 -1 -1</clus>
<clus scale="   91.109">  7  8 -1 -1</clus>
<clus scale="   91.292">  1  5  2 -1</clus>
<clus scale="   59.423">  2  5  1 -1</clus>
</clustering>
</event>
<event>
 9    1  0.1803370E-005  0.1411569E+03  0.7546771E-02  0.1230309E+00
          1   -1    0    0  502    0  0.00000000000E+00  0.00000000000E+00  0.69306023931E+02  0.69306023931E+02  0.00000000000E+00 0. -1.
         -1   -1    0    0    0  501 -0.00000000000E+00 -0.00000000000E+00 -0.55240532774E+03  0.55240532774E+03  0.00000000000E+00 0.  1.
         23    2    1    2    0    0 -0.24638680118E+02 -0.19635026319E+02 -0.15047829956E+03  0.17834586912E+03  0.90393205369E+02 0.  0.
         23    2    1    2    0    0 -0.77819196597E+02 -0.29861896187E+02 -0.30090305248E+03  0.32524016645E+03  0.91054701587E+02 0.  0.
        -11    1    3    3    0    0  0.29394963408E+02 -0.12084214610E+02 -0.21690246568E+02  0.38478031559E+02  0.00000000000E+00 0. -1.
         11    1    3    3    0    0 -0.54033643526E+02 -0.75508117095E+01 -0.12878805299E+03  0.13986783756E+03  0.00000000000E+00 0.  1.
        -13    1    4    4    0    0 -0.13869280899E+02  0.31497906263E+02 -0.72816529488E+02  0.80540188840E+02  0.00000000000E+00 0. -1.
         13    1    4    4    0    0 -0.63949915699E+02 -0.61359802450E+02 -0.22808652299E+03  0.24469997761E+03  0.00000000000E+00 0.  1.
         21    1    1    2  502  501  0.10245787672E+03  0.49496922506E+02 -0.31717951770E+02  0.11812531610E+03  0.00000000000E+00 0. -1.
<scales pt_clust_5="13000.00000" pt_clust_6="13000.00000" pt_clust_7="13000.00000" pt_clust_8="13000.00000" pt_clust_9="107.86241"></scales>
<clustering>
<clus scale="   90.393">  5  6 -1 -1</clus>
<clus scale="   91.055">  7  8 -1 -1</clus>
<clus scale="   95.726">  2  5  1 -1</clus>
<clus scale="  107.862">  1  9  2 -1</clus>
<clus scale="  107.862">  1  5  2 -1</clus>
</clustering>
</event>
<event>
 9    1  0.1803370E-005  0.1276229E+03  0.7546771E-02  0.1247367E+00
          1   -1    0    0  502    0  0.00000000000E+00  0.00000000000E+00  0.11641048844E+03  0.11641048844E+03  0.00000000000E+00 0. -1.
         -1   -1    0    0    0  501 -0.00000000000E+00 -0.00000000000E+00 -0.54573665018E+03  0.54573665018E+03  0.00000000000E+00 0.  1.
         23    2    1    2    0    0  0.43037179339E+01  0.23988338274E+02 -0.22577438811E+03  0.24362504136E+03  0.88233350225E+02 0.  0.
         23    2    1    2    0    0  0.87593311683E+02 -0.10477819537E+02 -0.27460002106E+03  0.30158001059E+03  0.88107651582E+02 0.  0.
        -11    1    4    4    0    0  0.64083034041E+02  0.33573048075E+02 -0.19049304883E+03  0.20376797212E+03  0.00000000000E+00 0.  1.
         11    1    4    4    0    0  0.23510277642E+02 -0.44050867611E+02 -0.84106972232E+02  0.97812038472E+02  0.00000000000E+00 0. -1.
        -13    1    3    3    0    0  0.41557634963E+02 -0.15951874405E+01 -0.14739878883E+03  0.15315346746E+03  0.00000000000E+00 0.  1.
         13    1    3    3    0    0 -0.37253917029E+02  0.25583525714E+02 -0.78375599275E+02  0.90471573899E+02  0.00000000000E+00 0. -1.
         21    1    1    2  502  501 -0.91897029617E+02 -0.13510518737E+02  0.71048247435E+02  0.11694208666E+03  0.00000000000E+00 0. -1.
<scales pt_clust_5="13000.00000" pt_clust_6="13000.00000" pt_clust_7="13000.00000" pt_clust_8="13000.00000" pt_clust_9="92.32905"></scales>
<clustering>
<clus scale="   88.108">  5  6 -1 -1</clus>
<clus scale="   88.233">  7  8 -1 -1</clus>
<clus scale="   91.537">  2  7  1 -1</clus>
<clus scale="   92.329">  1  9  2 -1</clus>
<clus scale="   92.329">  1  5  2 -1</clus>
</clustering>
</event>
<event>
 9    1  0.1803370E-005  0.9832624E+02  0.7546771E-02  0.1284231E+00
         -2   -1    0    0    0  501 -0.00000000000E+00  0.00000000000E+00  0.15002652513E+03  0.15002652513E+03  0.00000000000E+00 0.  1.
          2   -1    0    0  502    0  0.00000000000E+00 -0.00000000000E+00 -0.26784278982E+03  0.26784278982E+03  0.00000000000E+00 0. -1.
         23    2    1    2    0    0  0.35061638917E+01  0.31322012537E+02  0.78431119900E+02  0.12521507768E+03  0.92379724261E+02 0.  0.
         23    2    1    2    0    0 -0.43679679951E+02 -0.27567350916E+02 -0.14149945071E+02  0.10614019931E+03  0.91638680077E+02 0.  0.
        -11    1    4    4    0    0 -0.22130906055E+02 -0.32211740844E+02 -0.50361528434E+02  0.63746817938E+02  0.00000000000E+00 0. -1.
         11    1    4    4    0    0 -0.21548773897E+02  0.46443899281E+01  0.36211583363E+02  0.42393381369E+02  0.00000000000E+00 0.  1.
        -13    1    3    3    0    0  0.31542970870E+02 -0.97997154018E+01  0.84901374845E+00  0.33041099521E+02  0.00000000000E+00 0. -1.
         13    1    3    3    0    0 -0.28036806978E+02  0.41121727939E+02  0.77582106152E+02  0.92173978156E+02  0.00000000000E+00 0.  1.
         21    1    1    2  502  501  0.40173516059E+02 -0.37546616215E+01 -0.18209743952E+03  0.18651403796E+03  0.00000000000E+00 0. -1.
<scales pt_clust_5="13000.00000" pt_clust_6="13000.00000" pt_clust_7="13000.00000" pt_clust_8="13000.00000" pt_clust_9="40.34859"></scales>
<clustering>
<clus scale="   40.349">  2  9  1 -1</clus>
<clus scale="   91.639">  5  6 -1 -1</clus>
<clus scale="   92.380">  7  8 -1 -1</clus>
<clus scale="   97.630">  2  5  1 -1</clus>
<clus scale="   40.349">  2  5  1 -1</clus>
</clustering>
</event>
<event>
 9    1  0.1803370E-005  0.9834402E+02  0.7546771E-02  0.1284412E+00
          1   -1    0    0  502    0  0.00000000000E+00  0.00000000000E+00  0.12803576940E+03  0.12803576940E+03  0.00000000000E+00 0. -1.
         -1   -1    0    0    0  501 -0.00000000000E+00 -0.00000000000E+00 -0.39494003696E+03  0.39494003696E+03  0.00000000000E+00 0.  1.
         23    2    1    2    0    0  0.34606950103E+02  0.97700744803E+01 -0.25540887614E+03  0.27425676205E+03  0.93220073846E+02 0.  0.
         23    2    1    2    0    0 -0.24314327985E+02  0.27275470674E+02 -0.10697607665E+03  0.14578765096E+03  0.92059873734E+02 0.  0.
        -11    1    3    3    0    0  0.90894246428E+01 -0.37402245771E+02 -0.16234093694E+03  0.16684161782E+03  0.00000000000E+00 0.  1.
         11    1    3    3    0    0  0.25517525461E+02  0.47172320251E+02 -0.93067939194E+02  0.10741514423E+03  0.00000000000E+00 0. -1.
        -13    1    4    4    0    0  0.32211518362E+02  0.14362311461E+02 -0.65854365779E+02  0.74703784361E+02  0.00000000000E+00 0.  1.
         13    1    4    4    0    0 -0.56525846347E+02  0.12913159214E+02 -0.41121710868E+02  0.71083866600E+02  0.00000000000E+00 0. -1.
         21    1    1    2  502  501 -0.10292622118E+02 -0.37045545155E+02  0.95480685228E+02  0.10293139335E+03  0.00000000000E+00 0.  1.
<scales pt_clust_5="13000.00000" pt_clust_6="13000.00000" pt_clust_7="13000.00000" pt_clust_8="13000.00000" pt_clust_9="38.44880"></scales>
<clustering>
<clus scale="   38.449">  1  9  2 -1</clus>
<clus scale="   92.060">  7  8 -1 -1</clus>
<clus scale="   93.220">  5  6 -1 -1</clus>
<clus scale="   97.245">  1  7  2 -1</clus>
<clus scale="   38.449">  1  5  2 -1</clus>
</clustering>
</event>
<event>
 9    1  0.1803370E-005  0.1240684E+03  0.7546771E-02  0.1237368E+00
         -3   -1    0    0    0  501 -0.00000000000E+00  0.00000000000E+00  0.80021680939E+02  0.80021680939E+02  0.00000000000E+00 0.  1.
          3   -1    0    0  502    0  0.00000000000E+00 -0.00000000000E+00 -0.54512277397E+03  0.54512277397E+03  0.00000000000E+00 0. -1.
         23    2    1    2    0    0  0.34965880031E+02 -0.42601832486E+02 -0.72481623701E+02  0.12713993669E+03  0.88732456462E+02 0.  0.
         23    2    1    2    0    0 -0.73856322265E+02  0.87310760853E+02 -0.57033188147E+02  0.15722672127E+03  0.91594388655E+02 0.  0.
        -13    1    4    4    0    0 -0.83681772944E+02  0.53783627870E+02 -0.68130021590E+02  0.12056955500E+03  0.00000000000E+00 0.  1.
         13    1    4    4    0    0  0.98254506794E+01  0.33527132983E+02  0.11096833443E+02  0.36657166278E+02  0.00000000000E+00 0. -1.
        -13    1    3    3    0    0 -0.21103308043E+02  0.18183331762E+00  0.56869310851E+01  0.21856894997E+02  0.00000000000E+00 0.  1.
         13    1    3    3    0    0  0.56069188074E+02 -0.42783665803E+02 -0.78168554786E+02  0.10528304169E+03  0.00000000000E+00 0. -1.
         21    1    1    2  502  501  0.38890442234E+02 -0.44708928367E+02 -0.33558628118E+03  0.34077779695E+03  0.00000000000E+00 0. -1.
<scales pt_clust_5="13000.00000" pt_clust_6="13000.00000" pt_clust_7="13000.00000" pt_clust_8="13000.00000" pt_clust_9="59.25669"></scales>
<clustering>
<clus scale="   59.257">  2  9  1 -1</clus>
<clus scale="   88.732">  7  8 -1 -1</clus>
<clus scale="   91.594">  5  6 -1 -1</clus>
<clus scale="  121.971">  1  7  2 -1</clus>
<clus scale="   59.257">  2  5  1 -1</clus>
</clustering>
</event>
<event>
 9    1  0.1803370E-005  0.1181488E+03  0.7546771E-02  0.1248219E+00
          2   -1    0    0  502    0  0.00000000000E+00  0.00000000000E+00  0.91450917662E+02  0.91450917662E+02  0.00000000000E+00 0. -1.
         -2   -1    0    0    0  501 -0.00000000000E+00 -0.00000000000E+00 -0.62245488259E+03  0.62245488259E+03  0.00000000000E+00 0.  1.
         23    2    1    2    0    0  0.39386197891E+02  0.51362639983E+02 -0.51574798612E+03  0.52877498666E+03  0.97044360748E+02 0.  0.
         23    2    1    2    0    0 -0.35502774290E+02 -0.78321915856E+02 -0.55039764191E+02  0.13691636437E+03  0.91224698985E+02 0.  0.
        -13    1    4    4    0    0 -0.53804602406E+02 -0.13864702521E+02 -0.10739205092E+02  0.56590597647E+02  0.00000000000E+00 0.  1.
         13    1    4    4    0    0  0.18301828116E+02 -0.64457213336E+02 -0.44300559099E+02  0.80325766724E+02  0.00000000000E+00 0. -1.
        -13    1    3    3    0    0 -0.25088124728E+01  0.69022314530E+02 -0.26001029296E+03  0.26902737126E+03  0.00000000000E+00 0.  1.
         13    1    3    3    0    0  0.41895010364E+02 -0.17659674547E+02 -0.25573769316E+03  0.25974761539E+03  0.00000000000E+00 0. -1.
         21    1    1    2  502  501 -0.38834236008E+01  0.26959275873E+02  0.39783785385E+02  0.48214449224E+02  0.00000000000E+00 0.  1.
<scales pt_clust_5="13000.00000" pt_clust_6="13000.00000" pt_clust_7="13000.00000" pt_clust_8="13000.00000" pt_clust_9="27.23754"></scales>
<clustering>
<clus scale="   27.238">  1  9  2 -1</clus>
<clus scale="   91.225">  5  6 -1 -1</clus>
<clus scale="   97.044">  7  8 -1 -1</clus>
<clus scale="  113.417">  1  5  2 -1</clus>
<clus scale="   27.238">  1  5  2 -1</clus>
</clustering>
</event>
<event>
 9    1  0.1803370E-005  0.9488170E+02  0.7546771E-02  0.1294039E+00
         -1   -1    0    0    0  501 -0.00000000000E+00  0.00000000000E+00  0.37790473246E+03  0.37790473246E+03  0.00000000000E+00 0.  1.
          1   -1    0    0  502    0  0.00000000000E+00 -0.00000000000E+00 -0.33487861708E+02  0.33487861708E+02  0.00000000000E+00 0. -1.
         23    2    1    2    0    0 -0.39421021655E+00 -0.24619302019E+02  0.15291061073E+03  0.17917894500E+03  0.90095360712E+02 0.  0.
         23    2    1    2    0    0 -0.34544011704E+00 -0.10718372642E+02  0.15043726485E+03  0.17802914311E+03  0.94593880878E+02 0.  0.
        -11    1    3    3    0    0  0.15512198883E+02 -0.55929449329E+02  0.88953064432E+02  0.10621383756E+03  0.00000000000E+00 0.  1.
         11    1    3    3    0    0 -0.15906409100E+02  0.31310147310E+02  0.63957546302E+02  0.72965107442E+02  0.00000000000E+00 0. -1.
        -13    1    4    4    0    0  0.32363636596E+02  0.26390197821E+02  0.44016795291E+02  0.60673930007E+02  0.00000000000E+00 0. -1.
         13    1    4    4    0    0 -0.32709076713E+02 -0.37108570463E+02  0.10642046956E+03  0.11735521310E+03  0.00000000000E+00 0.  1.
         21    1    1    2  502  501  0.73965033359E+00  0.35337674661E+02  0.41068995171E+02  0.54184506064E+02  0.00000000000E+00 0. -1.
<scales pt_clust_5="13000.00000" pt_clust_6="13000.00000" pt_clust_7="13000.00000" pt_clust_8="13000.00000" pt_clust_9="35.34541"></scales>
<clustering>
<clus scale="   35.345">  2  9  1 -1</clus>
<clus scale="   90.095">  5  6 -1 -1</clus>
<clus scale="   90.398">  1  5  2 -1</clus>
<clus scale="   94.594">  7  8 -1 -1</clus>
<clus scale="   35.345">  2  5  1 -1</clus>
</clustering>
</event>
<event>
 9    1  0.1803370E-005  0.9318151E+02  0.7546771E-02  0.1295717E+00
         -2   -1    0    0    0  501 -0.00000000000E+00  0.00000000000E+00  0.67701325852E+02  0.67701325852E+02  0.00000000000E+00 0.  1.
          2   -1    0    0  502    0  0.00000000000E+00 -0.00000000000E+00 -0.23123743718E+03  0.23123743718E+03  0.00000000000E+00 0. -1.
         23    2    1    2    0    0  0.27685530394E+02  0.21739000634E+02 -0.36310168830E+02  0.10433859553E+03  0.91263582087E+02 0.  0.
         23    2    1    2    0    0 -0.84155933066E+01  0.11889278817E+02 -0.41838260546E+02  0.10082784811E+03  0.90573935258E+02 0.  0.
        -11    1    3    3    0    0  0.44167973183E+02  0.48960551832E+02 -0.22842851204E+02  0.69783532025E+02  0.00000000000E+00 0.  1.
         11    1    3    3    0    0 -0.16482442789E+02 -0.27221551198E+02 -0.13467317625E+02  0.34555063506E+02  0.00000000000E+00 0. -1.
        -11    1    4    4    0    0 -0.42901229311E+02  0.23763179466E+02 -0.41669496758E+02  0.64354884312E+02  0.00000000000E+00 0. -1.
         11    1    4    4    0    0  0.34485636004E+02 -0.11873900649E+02 -0.16876378742E+00  0.36472963801E+02  0.00000000000E+00 0.  1.
         21    1    1    2  502  501 -0.19269937087E+02 -0.33628279451E+02 -0.85387681951E+02  0.93772319387E+02  0.00000000000E+00 0.  1.
<scales pt_clust_5="13000.00000" pt_clust_6="13000.00000" pt_clust_7="13000.00000" pt_clust_8="13000.00000" pt_clust_9="38.75812"></scales>
<clustering>
<clus scale="   38.758">  2  9  1 -1</clus>
<clus scale="   90.574">  7  8 -1 -1</clus>
<clus scale="   91.264">  5  6 -1 -1</clus>
<clus scale="   92.506">  2  7  1 -1</clus>
<clus scale="   38.758">  2  5  1 -1</clus>
</clustering>
</event>
<event>
 9    1  0.2855936E-005  0.1550910E+03  0.7546771E-02  0.1194502E+00
          1   -1    0    0  502    0  0.00000000000E+00  0.00000000000E+00  0.96135759802E+03  0.96135759802E+03  0.00000000000E+00 0. -1.
         -1   -1    0    0    0  501 -0.00000000000E+00 -0.00000000000E+00 -0.73746000343E+02  0.73746000343E+02  0.00000000000E+00 0.  1.
         23    2    1    2    0    0  0.95943034608E+02 -0.80080487986E+02  0.34815142761E+02  0.15872364352E+03  0.91450261894E+02 0.  0.
         23    2    1    2    0    0 -0.73708118651E+02  0.10975279746E+03  0.75424600915E+03  0.77108499866E+03  0.90589566381E+02 0.  0.
        -11    1    3    3    0    0  0.59102318452E+01 -0.30950197397E+02  0.45777849654E+02  0.55573888457E+02  0.00000000000E+00 0. -1.
         11    1    3    3    0    0  0.90032802763E+02 -0.49130290589E+02 -0.10962706893E+02  0.10314975506E+03  0.00000000000E+00 0.  1.
        -11    1    4    4    0    0 -0.27485693401E+02  0.10889750943E+03  0.47959218566E+03  0.49256755420E+03  0.00000000000E+00 0.  1.
         11    1    4    4    0    0 -0.46222425250E+02  0.85528803176E+00  0.27465382349E+03  0.27851744447E+03  0.00000000000E+00 0. -1.
         21    1    1    2  502  501 -0.22234915956E+02 -0.29672309472E+02  0.98550445768E+02  0.10529495618E+03  0.00000000000E+00 0. -1.
<scales pt_clust_5="13000.00000" pt_clust_6="13000.00000" pt_clust_7="13000.00000" pt_clust_8="13000.00000" pt_clust_9="37.07880"></scales>
<clustering>
<clus scale="   37.079">  1  9  2 -1</clus>
<clus scale="   90.590">  7  8 -1 -1</clus>
<clus scale="   91.450">  5  6 -1 -1</clus>
<clus scale="  154.585">  1  7  2 -1</clus>
<clus scale="   37.079">  1  5  2 -1</clus>
</clustering>
</event>
<event>
 9    1  0.1803370E-005  0.1603972E+03  0.7546771E-02  0.1188482E+00
         -1   -1    0    0    0  501 -0.00000000000E+00  0.00000000000E+00  0.12068063608E+03  0.12068063608E+03  0.00000000000E+00 0.  1.
          1   -1    0    0  502    0  0.00000000000E+00 -0.00000000000E+00 -0.32390712386E+03  0.32390712386E+03  0.00000000000E+00 0. -1.
         23    2    1    2    0    0  0.96920278084E+02 -0.82988827825E+02  0.85552304153E+01  0.15625994858E+03  0.89795844641E+02 0.  0.
         23    2    1    2    0    0 -0.12037867516E+03  0.81995628506E+02 -0.19129229135E+03  0.25716534274E+03  0.91252201327E+02 0.  0.
        -13    1    3    3    0    0  0.29010154579E+02 -0.32884309400E+01 -0.32591869840E+02  0.43756517531E+02  0.00000000000E+00 0. -1.
         13    1    3    3    0    0  0.67910123506E+02 -0.79700396885E+02  0.41147100256E+02  0.11250343105E+03  0.00000000000E+00 0.  1.
        -13    1    4    4    0    0 -0.66336001257E+02  0.85997776477E+02 -0.85221882050E+02  0.13805380039E+03  0.00000000000E+00 0. -1.
         13    1    4    4    0    0 -0.54042673905E+02 -0.40021479712E+01 -0.10607040930E+03  0.11911154235E+03  0.00000000000E+00 0.  1.
         21    1    1    2  502  501  0.23458397078E+02  0.99319931862E+00 -0.20489426843E+02  0.31162468623E+02  0.00000000000E+00 0.  1.
<scales pt_clust_5="13000.00000" pt_clust_6="13000.00000" pt_clust_7="13000.00000" pt_clust_8="13000.00000" pt_clust_9="23.47941"></scales>
<clustering>
<clus scale="   23.479">  2  9  1 -1</clus>
<clus scale="   89.796">  5  6 -1 -1</clus>
<clus scale="   91.252">  7  8 -1 -1</clus>
<clus scale="  159.573">  1  5  2 -1</clus>
<clus scale="   23.479">  2  5  1 -1</clus>
</clustering>
</event>
<event>
 9    1  0.1803370E-005  0.1069766E+03  0.7546771E-02  0.1267474E+00
         -1   -1    0    0    0  501 -0.00000000000E+00  0.00000000000E+00  0.46986283005E+03  0.46986283005E+03  0.00000000000E+00 0.  1.
          1   -1    0    0  502    0  0.00000000000E+00 -0.00000000000E+00 -0.12528145196E+03  0.12528145196E+03  0.00000000000E+00 0. -1.
         23    2    1    2    0    0 -0.43300871205E+02  0.13682511353E+01  0.22819358784E+03  0.24942811902E+03  0.90913340425E+02 0.  0.
         23    2    1    2    0    0  0.58253770484E+02 -0.30676526755E+02  0.21398799128E+03  0.24271925305E+03  0.93740195858E+02 0.  0.
        -11    1    3    3    0    0 -0.47035538056E+02 -0.35172751611E+02  0.17648574042E+03  0.18600183028E+03  0.00000000000E+00 0. -1.
         11    1    3    3    0    0  0.37346668515E+01  0.36541002746E+02  0.51707847419E+02  0.63426288736E+02  0.00000000000E+00 0.  1.
        -11    1    4    4    0    0  0.25146453522E+02  0.16582649981E+02  0.16286733814E+03  0.16562940028E+03  0.00000000000E+00 0.  1.
         11    1    4    4    0    0  0.33107316963E+02 -0.47259176736E+02  0.51120653139E+02  0.77089852767E+02  0.00000000000E+00 0. -1.
         21    1    1    2  502  501 -0.14952899280E+02  0.29308275620E+02 -0.97600201031E+02  0.10299690994E+03  0.00000000000E+00 0. -1.
<scales pt_clust_5="13000.00000" pt_clust_6="13000.00000" pt_clust_7="13000.00000" pt_clust_8="13000.00000" pt_clust_9="32.90234"></scales>
<clustering>
<clus scale="   32.902">  2  9  1 -1</clus>
<clus scale="   90.913">  5  6 -1 -1</clus>
<clus scale="   93.740">  7  8 -1 -1</clus>
<clus scale="  104.508">  1  5  2 -1</clus>
<clus scale="   32.902">  2  5  1 -1</clus>
</clustering>
</event>
<event>
 9    1  0.1803370E-005  0.1088452E+03  0.7546771E-02  0.1264298E+00
         -1   -1    0    0    0  501 -0.00000000000E+00  0.00000000000E+00  0.14675567915E+03  0.14675567915E+03  0.00000000000E+00 0.  1.
          1   -1    0    0  502    0  0.00000000000E+00 -0.00000000000E+00 -0.18814328537E+03  0.18814328537E+03  0.00000000000E+00 0. -1.
         23    2    1    2    0    0  0.44661079646E+02  0.33445357589E+02  0.91860818055E+02  0.14135754713E+03  0.91816895265E+02 0.  0.
         23    2    1    2    0    0 -0.68893363352E+02 -0.27861209868E+02 -0.10366231398E+03  0.15489268907E+03  0.87882462739E+02 0.  0.
        -11    1    3    3    0    0  0.71985030848E+01  0.56076267355E+02  0.25875721997E+02  0.62176516435E+02  0.00000000000E+00 0.  1.
         11    1    3    3    0    0  0.37462576562E+02 -0.22630909766E+02  0.65985096058E+02  0.79181030691E+02  0.00000000000E+00 0. -1.
        -13    1    4    4    0    0 -0.24782509985E+02  0.14393074384E+02  0.60791587962E+01  0.29296579374E+02  0.00000000000E+00 0.  1.
         13    1    4    4    0    0 -0.44110853367E+02 -0.42254284251E+02 -0.10974147278E+03  0.12559610969E+03  0.00000000000E+00 0. -1.
         21    1    1    2  502  501  0.24232283706E+02 -0.55841477215E+01 -0.29586110292E+02  0.38648728331E+02  0.00000000000E+00 0. -1.
<scales pt_clust_5="13000.00000" pt_clust_6="13000.00000" pt_clust_7="13000.00000" pt_clust_8="13000.00000" pt_clust_9="24.86737"></scales>
<clustering>
<clus scale="   24.867">  2  9  1 -1</clus>
<clus scale="   87.882">  7  8 -1 -1</clus>
<clus scale="   91.817">  5  6 -1 -1</clus>
<clus scale="  105.547">  2  7  1 -1</clus>
<clus scale="   24.867">  2  5  1 -1</clus>
</clustering>
</event>
<event>
 9    1  0.1803370E-005  0.1002217E+03  0.7546771E-02  0.1280617E+00
         -1   -1    0    0    0  501 -0.00000000000E+00  0.00000000000E+00  0.96241635042E+02  0.96241635042E+02  0.00000000000E+00 0.  1.
          1   -1    0    0  502    0  0.00000000000E+00 -0.00000000000E+00 -0.47384391167E+03  0.47384391167E+03  0.00000000000E+00 0. -1.
         23    2    1    2    0    0  0.41692128249E+02 -0.65922606115E+01  0.56607381309E+02  0.11440390445E+03  0.90012034064E+02 0.  0.
         23    2    1    2    0    0 -0.61478549165E+02  0.17752828515E+02 -0.29286512881E+03  0.31252321030E+03  0.88351561248E+02 0.  0.
        -11    1    3    3    0    0 -0.53433879115E+01 -0.35738454928E+02  0.12856623154E+01  0.36158565826E+02  0.00000000000E+00 0. -1.
         11    1    3    3    0    0  0.47035516160E+02  0.29146194317E+02  0.55321718993E+02  0.78245338621E+02  0.00000000000E+00 0.  1.
        -13    1    4    4    0    0 -0.82984052292E+02  0.11331159708E+02 -0.19698033748E+03  0.21404672730E+03  0.00000000000E+00 0. -1.
         13    1    4    4    0    0  0.21505503127E+02  0.64216688071E+01 -0.95884791324E+02  0.98476482991E+02  0.00000000000E+00 0.  1.
         21    1    1    2  502  501  0.19786420916E+02 -0.11160567904E+02 -0.14134452913E+03  0.14315843197E+03  0.00000000000E+00 0. -1.
<scales pt_clust_5="13000.00000" pt_clust_6="13000.00000" pt_clust_7="13000.00000" pt_clust_8="13000.00000" pt_clust_9="22.71697"></scales>
<clustering>
<clus scale="   22.717">  2  9  1 -1</clus>
<clus scale="   88.352">  7  8 -1 -1</clus>
<clus scale="   90.012">  5  6 -1 -1</clus>
<clus scale="   98.733">  2  7  1 -1</clus>
<clus scale="   22.717">  2  5  1 -1</clus>
</clustering>
</event>
<event>
 9    1  0.1803370E-005  0.1172889E+03  0.7546771E-02  0.1248732E+00
          2   -1    0    0  502    0  0.00000000000E+00  0.00000000000E+00  0.27633964744E+03  0.27633964744E+03  0.00000000000E+00 0. -1.
         -2   -1    0    0    0  501 -0.00000000000E+00 -0.00000000000E+00 -0.12593154866E+03  0.12593154866E+03  0.00000000000E+00 0.  1.
         23    2    1    2    0    0 -0.47982783552E+02 -0.26902179358E+02  0.14845253468E+01  0.10961832018E+03  0.94804522744E+02 0.  0.
         23    2    1    2    0    0  0.64056502058E+02  0.53391257360E+02 -0.15923152033E+02  0.12491952032E+03  0.91637754053E+02 0.  0.
        -11    1    4    4    0    0  0.39301627437E+01  0.61634671448E+02  0.15038770357E+01  0.61778155928E+02  0.00000000000E+00 0. -1.
         11    1    4    4    0    0  0.60126339314E+02 -0.82434140880E+01 -0.17427029068E+02  0.63141364392E+02  0.00000000000E+00 0.  1.
        -13    1    3    3    0    0 -0.12634030883E+02 -0.53820627130E+02 -0.21834803472E+02  0.59439358035E+02  0.00000000000E+00 0.  1.
         13    1    3    3    0    0 -0.35348752669E+02  0.26918447772E+02  0.23319328819E+02  0.50178962148E+02  0.00000000000E+00 0. -1.
         21    1    1    2  502  501 -0.16073718506E+02 -0.26489078002E+02  0.16484672547E+03  0.16773335559E+03  0.00000000000E+00 0. -1.
<scales pt_clust_5="13000.00000" pt_clust_6="13000.00000" pt_clust_7="13000.00000" pt_clust_8="13000.00000" pt_clust_9="30.98444"></scales>
<clustering>
<clus scale="   30.984">  1  9  2 -1</clus>
<clus scale="   91.638">  5  6 -1 -1</clus>
<clus scale="   94.805">  7  8 -1 -1</clus>
<clus scale="  114.744">  1  5  2 -1</clus>
<clus scale="   30.984">  1  5  2 -1</clus>
</clustering>
</event>
<event>
 9    1  0.1803370E-005  0.3326185E+03  0.7546771E-02  0.1070426E+00
         -1   -1    0    0    0  501 -0.00000000000E+00  0.00000000000E+00  0.21707478525E+03  0.21707478525E+03  0.00000000000E+00 0.  1.
          1   -1    0    0  502    0  0.00000000000E+00 -0.00000000000E+00 -0.12418036114E+04  0.12418036114E+04  0.00000000000E+00 0. -1.
         23    2    1    2    0    0  0.28405172483E+03 -0.13720500496E+03  0.31286021918E+02  0.32952338794E+03  0.89979176849E+02 0.  0.
         23    2    1    2    0    0 -0.26141840590E+03  0.19197725951E+03 -0.87686387207E+03  0.94065593825E+03  0.10367493868E+03 0.  0.
        -11    1    4    4    0    0 -0.69547343240E+02  0.13963597399E+02 -0.28151975172E+03  0.29031910997E+03  0.00000000000E+00 0.  1.
         11    1    4    4    0    0 -0.19187106266E+03  0.17801366211E+03 -0.59534412035E+03  0.65033682828E+03  0.00000000000E+00 0. -1.
        -13    1    3    3    0    0  0.13918222516E+03 -0.37808044842E+02 -0.22082170687E+02  0.14590669045E+03  0.00000000000E+00 0. -1.
         13    1    3    3    0    0  0.14486949966E+03 -0.99396960119E+02  0.53368192605E+02  0.18361669749E+03  0.00000000000E+00 0.  1.
         21    1    1    2  502  501 -0.22633318929E+02 -0.54772254550E+02 -0.17915097597E+03  0.18869907044E+03  0.00000000000E+00 0. -1.
<scales pt_clust_5="13000.00000" pt_clust_6="13000.00000" pt_clust_7="13000.00000" pt_clust_8="13000.00000" pt_clust_9="59.26438"></scales>
<clustering>
<clus scale="   59.264">  2  9  1 -1</clus>
<clus scale="   89.979">  7  8 -1 -1</clus>
<clus scale="  103.675">  5  6 -1 -1</clus>
<clus scale="  328.607">  1  7  2 -1</clus>
<clus scale="   59.264">  2  5  1 -1</clus>
</clustering>
</event>
<event>
 9    1  0.1803370E-005  0.9591816E+02  0.7546771E-02  0.1289352E+00
          1   -1    0    0  502    0  0.00000000000E+00  0.00000000000E+00  0.25008808043E+03  0.25008808043E+03  0.00000000000E+00 0. -1.
         -1   -1    0    0    0  501 -0.00000000000E+00 -0.00000000000E+00 -0.19310975379E+03  0.19310975379E+03  0.00000000000E+00 0.  1.
         23    2    1    2    0    0  0.73957092923E+01 -0.41934974861E+02 -0.11527201874E+03  0.15227110967E+03  0.89920041719E+02 0.  0.
         23    2    1    2    0    0 -0.51302717395E+01  0.11295862871E+02 -0.22359053940E+02  0.93907167923E+02  0.90358799727E+02 0.  0.
        -11    1    4    4    0    0  0.38555902973E+02 -0.93261159390E+01 -0.22486760329E+02  0.45598119289E+02  0.00000000000E+00 0.  1.
         11    1    4    4    0    0 -0.43686174712E+02  0.20621978810E+02  0.12770638932E+00  0.48309048634E+02  0.00000000000E+00 0. -1.
        -13    1    3    3    0    0 -0.66300276984E+01 -0.61691389662E+02 -0.41560513947E+02  0.74679723789E+02  0.00000000000E+00 0. -1.
         13    1    3    3    0    0  0.14025736991E+02  0.19756414801E+02 -0.73711504789E+02  0.77591385876E+02  0.00000000000E+00 0.  1.
         21    1    1    2  502  501 -0.22654375528E+01  0.30639111991E+02  0.19460939932E+03  0.19701955663E+03  0.00000000000E+00 0. -1.
<scales pt_clust_5="13000.00000" pt_clust_6="13000.00000" pt_clust_7="13000.00000" pt_clust_8="13000.00000" pt_clust_9="30.72275"></scales>
<clustering>
<clus scale="   30.723">  1  9  2 -1</clus>
<clus scale="   89.920">  7  8 -1 -1</clus>
<clus scale="   90.359">  5  6 -1 -1</clus>
<clus scale="   95.505">  2  7  1 -1</clus>
<clus scale="   30.723">  1  5  2 -1</clus>
</clustering>
</event>
<event>
 9    1  0.1803370E-005  0.1915328E+03  0.7546771E-02  0.1157960E+00
         -1   -1    0    0    0  501 -0.00000000000E+00  0.00000000000E+00  0.84576808872E+02  0.84576808872E+02  0.00000000000E+00 0.  1.
          1   -1    0    0  502    0  0.00000000000E+00 -0.00000000000E+00 -0.87532785713E+03  0.87532785713E+03  0.00000000000E+00 0. -1.
         23    2    1    2    0    0  0.94343403336E+02  0.99530074053E+02 -0.14531844198E+03  0.22268856846E+03  0.98314981314E+02 0.  0.
         23    2    1    2    0    0 -0.12970988862E+03 -0.16708840545E+03 -0.27286918596E+03  0.35692881326E+03  0.90539464588E+02 0.  0.
        -11    1    3    3    0    0  0.44380531925E+01  0.69251362289E+02 -0.87170694904E+02  0.11141892813E+03  0.00000000000E+00 0. -1.
         11    1    3    3    0    0  0.89905350143E+02  0.30278711764E+02 -0.58147747077E+02  0.11126964034E+03  0.00000000000E+00 0.  1.
        -13    1    4    4    0    0 -0.92061641451E+02 -0.71388791393E+02 -0.19797740325E+03  0.22971015990E+03  0.00000000000E+00 0. -1.
         13    1    4    4    0    0 -0.37648247171E+02 -0.95699614060E+02 -0.74891782711E+02  0.12721865336E+03  0.00000000000E+00 0.  1.
         21    1    1    2  502  501  0.35366485286E+02  0.67558331401E+02 -0.37256342032E+03  0.38028728427E+03  0.00000000000E+00 0. -1.
<scales pt_clust_5="13000.00000" pt_clust_6="13000.00000" pt_clust_7="13000.00000" pt_clust_8="13000.00000" pt_clust_9="76.25560"></scales>
<clustering>
<clus scale="   76.256">  2  9  1 -1</clus>
<clus scale="   90.539">  7  8 -1 -1</clus>
<clus scale="   98.315">  5  6 -1 -1</clus>
<clus scale="  187.660">  2  7  1 -1</clus>
<clus scale="   76.256">  2  5  1 -1</clus>
</clustering>
</event>
<event>
 9    1  0.1803370E-005  0.1012841E+03  0.7546771E-02  0.1279221E+00
         -2   -1    0    0    0  501 -0.00000000000E+00  0.00000000000E+00  0.11859269089E+03  0.11859269089E+03  0.00000000000E+00 0.  1.
          2   -1    0    0  502    0  0.00000000000E+00 -0.00000000000E+00 -0.72663569381E+03  0.72663569381E+03  0.00000000000E+00 0. -1.
         23    2    1    2    0    0 -0.31419720748E+02 -0.38144445453E+02  0.47220596676E+02  0.11742537186E+03  0.95481598415E+02 0.  0.
         23    2    1    2    0    0  0.30001478780E+02 -0.50515672771E+02 -0.57613851570E+02  0.12361111510E+03  0.92241151118E+02 0.  0.
        -11    1    3    3    0    0 -0.24684016749E+02 -0.15351673001E+01 -0.25629350554E+02  0.35616302887E+02  0.00000000000E+00 0. -1.
         11    1    3    3    0    0 -0.67357039988E+01 -0.36609278153E+02  0.72849947230E+02  0.81809068976E+02  0.00000000000E+00 0.  1.
        -13    1    4    4    0    0 -0.26557854394E+02 -0.45148398858E+02 -0.31079417360E+02  0.60906713365E+02  0.00000000000E+00 0.  1.
         13    1    4    4    0    0  0.56559333174E+02 -0.53672739123E+01 -0.26534434209E+02  0.62704401737E+02  0.00000000000E+00 0. -1.
         21    1    1    2  502  501  0.14182419678E+01  0.88660118223E+02 -0.59764974803E+03  0.60419189774E+03  0.00000000000E+00 0. -1.
<scales pt_clust_5="13000.00000" pt_clust_6="13000.00000" pt_clust_7="13000.00000" pt_clust_8="13000.00000" pt_clust_9="88.67146"></scales>
<clustering>
<clus scale="   88.671">  2  9  1 -1</clus>
<clus scale="   92.241">  7  8 -1 -1</clus>
<clus scale="   95.482">  5  6 -1 -1</clus>
<clus scale="   98.235">  2  7  1 -1</clus>
<clus scale="   88.671">  2  5  1 -1</clus>
</clustering>
</event>
<event>
 9    1  0.1803370E-005  0.1018493E+03  0.7546771E-02  0.1276707E+00
         -2   -1    0    0    0  501 -0.00000000000E+00  0.00000000000E+00  0.34992341118E+02  0.34992341118E+02  0.00000000000E+00 0.  1.
          2   -1    0    0  502    0  0.00000000000E+00 -0.00000000000E+00 -0.80474116530E+03  0.80474116530E+03  0.00000000000E+00 0. -1.
         23    2    1    2    0    0 -0.34615322106E+02  0.40538228648E+02 -0.13859151540E+03  0.17438557228E+03  0.91439330543E+02 0.  0.
         23    2    1    2    0    0  0.52061723420E+02  0.26348357787E+02 -0.19169491989E+03  0.22048235488E+03  0.91982973958E+02 0.  0.
        -11    1    3    3    0    0 -0.50721905924E+02  0.60943068091E+02 -0.11172845379E+03  0.13700371044E+03  0.00000000000E+00 0.  1.
         11    1    3    3    0    0  0.16106583817E+02 -0.20404839443E+02 -0.26863061616E+02  0.37381861836E+02  0.00000000000E+00 0. -1.
        -11    1    4    4    0    0  0.41726442218E+02 -0.29163517157E+02 -0.10956563096E+03  0.12081487574E+03  0.00000000000E+00 0. -1.
         11    1    4    4    0    0  0.10335281202E+02  0.55511874944E+02 -0.82129288934E+02  0.99667479140E+02  0.00000000000E+00 0.  1.
         21    1    1    2  502  501 -0.17446401314E+02 -0.66886586435E+02 -0.43946238889E+03  0.44486557926E+03  0.00000000000E+00 0. -1.
<scales pt_clust_5="13000.00000" pt_clust_6="13000.00000" pt_clust_7="13000.00000" pt_clust_8="13000.00000" pt_clust_9="69.12447"></scales>
<clustering>
<clus scale="   69.124">  2  9  1 -1</clus>
<clus scale="   91.439">  5  6 -1 -1</clus>
<clus scale="   91.983">  7  8 -1 -1</clus>
<clus scale="  101.359">  1  5  2 -1</clus>
<clus scale="   69.124">  2  5  1 -1</clus>
</clustering>
</event>
<event>
 9    1  0.1803370E-005  0.9959249E+02  0.7546771E-02  0.1285435E+00
         -1   -1    0    0    0  501 -0.00000000000E+00  0.00000000000E+00  0.39967871180E+03  0.39967871180E+03  0.00000000000E+00 0.  1.
          1   -1    0    0  502    0  0.00000000000E+00 -0.00000000000E+00 -0.11482688459E+03  0.11482688459E+03  0.00000000000E+00 0. -1.
         23    2    1    2    0    0  0.16807376830E+02 -0.29604408074E+02  0.34870384063E+03  0.36083973367E+03  0.86325176091E+02 0.  0.
         23    2    1    2    0    0 -0.19273419636E+01  0.74074821482E+01 -0.12344356607E+02  0.95638647817E+02  0.94529267306E+02 0.  0.
        -11    1    4    4    0    0  0.39871105301E+02  0.20686286627E+02 -0.23060056321E+02  0.50491520971E+02  0.00000000000E+00 0. -1.
         11    1    4    4    0    0 -0.41798447265E+02 -0.13278804479E+02  0.10715699714E+02  0.45147126847E+02  0.00000000000E+00 0.  1.
        -13    1    3    3    0    0 -0.27448386251E+02 -0.23930090986E+01  0.45307097109E+02  0.53027101078E+02  0.00000000000E+00 0.  1.
         13    1    3    3    0    0  0.44255763081E+02 -0.27211398975E+02  0.30339674352E+03  0.30781263259E+03  0.00000000000E+00 0. -1.
         21    1    1    2  502  501 -0.14880034867E+02  0.22196925925E+02 -0.51507656820E+02  0.58027214901E+02  0.00000000000E+00 0.  1.
<scales pt_clust_5="13000.00000" pt_clust_6="13000.00000" pt_clust_7="13000.00000" pt_clust_8="13000.00000" pt_clust_9="26.72300"></scales>
<clustering>
<clus scale="   26.723">  2  9  1 -1</clus>
<clus scale="   86.325">  7  8 -1 -1</clus>
<clus scale="   91.842">  1  7  2 -1</clus>
<clus scale="   94.529">  5  6 -1 -1</clus>
<clus scale="   26.723">  2  5  1 -1</clus>
</clustering>
</event>
<event>
 9    1  0.1803370E-005  0.1346917E+03  0.7546771E-02  0.1221026E+00
         -2   -1    0    0    0  501 -0.00000000000E+00  0.00000000000E+00  0.64244976141E+03  0.64244976141E+03  0.00000000000E+00 0.  1.
          2   -1    0    0  502    0  0.00000000000E+00 -0.00000000000E+00 -0.41550189402E+02  0.41550189402E+02  0.00000000000E+00 0. -1.
         23    2    1    2    0    0 -0.11255846011E+03 -0.13001138659E+02  0.38128735426E+03  0.40844807100E+03  0.92797325599E+02 0.  0.
         23    2    1    2    0    0  0.73615199622E+02  0.27979374677E+02  0.18745127117E+03  0.22287122324E+03  0.91277379810E+02 0.  0.
        -13    1    4    4    0    0  0.39826865937E+02  0.54470430392E+02  0.67398030585E+02  0.95371387556E+02  0.00000000000E+00 0. -1.
         13    1    4    4    0    0  0.33788333685E+02 -0.26491055716E+02  0.12005324058E+03  0.12749983569E+03  0.00000000000E+00 0.  1.
        -13    1    3    3    0    0 -0.45269266736E+02 -0.51784967286E+02  0.17680024542E+03  0.18970850304E+03  0.00000000000E+00 0.  1.
         13    1    3    3    0    0 -0.67289193373E+02  0.38783828627E+02  0.20448710884E+03  0.21873956796E+03  0.00000000000E+00 0. -1.
         21    1    1    2  502  501  0.38943260487E+02 -0.14978236018E+02  0.32160946587E+02  0.52680656573E+02  0.00000000000E+00 0. -1.
<scales pt_clust_5="13000.00000" pt_clust_6="13000.00000" pt_clust_7="13000.00000" pt_clust_8="13000.00000" pt_clust_9="41.72439"></scales>
<clustering>
<clus scale="   41.724">  2  9  1 -1</clus>
<clus scale="   91.277">  5  6 -1 -1</clus>
<clus scale="   92.797">  7  8 -1 -1</clus>
<clus scale="  133.649">  2  5  1 -1</clus>
<clus scale="   41.724">  2  5  1 -1</clus>
</clustering>
</event>
<event>
 9    1  0.1803370E-005  0.9557895E+02  0.7546771E-02  0.1291606E+00
          1   -1    0    0  502    0  0.00000000000E+00  0.00000000000E+00  0.10819206300E+03  0.10819206300E+03  0.00000000000E+00 0. -1.
         -1   -1    0    0    0  501 -0.00000000000E+00 -0.00000000000E+00 -0.21033675888E+03  0.21033675888E+03  0.00000000000E+00 0.  1.
         23    2    1    2    0    0  0.10549274311E+01  0.28767068774E+01 -0.89111904661E+02  0.12909010921E+03  0.93348467737E+02 0.  0.
         23    2    1    2    0    0  0.60331374821E+02  0.23568741458E+02 -0.39015896933E+02  0.11772566209E+03  0.90231540710E+02 0.  0.
        -11    1    4    4    0    0  0.39350736588E+02 -0.30305090324E+02 -0.32927149967E+02  0.59590906811E+02  0.00000000000E+00 0.  1.
         11    1    4    4    0    0  0.20980638233E+02  0.53873831782E+02 -0.60887469658E+01  0.58134755277E+02  0.00000000000E+00 0. -1.
        -11    1    3    3    0    0  0.44048851947E+02  0.17552008479E+02 -0.52505113555E+02  0.70747164670E+02  0.00000000000E+00 0.  1.
         11    1    3    3    0    0 -0.42993924516E+02 -0.14675301601E+02 -0.36606791106E+02  0.58342944539E+02  0.00000000000E+00 0. -1.
         21    1    1    2  502  501 -0.61386302252E+02 -0.26445448335E+02  0.25983105713E+02  0.71713050586E+02  0.00000000000E+00 0. -1.
<scales pt_clust_5="13000.00000" pt_clust_6="13000.00000" pt_clust_7="13000.00000" pt_clust_8="13000.00000" pt_clust_9="66.84041"></scales>
<clustering>
<clus scale="   66.840">  1  9  2 -1</clus>
<clus scale="   90.232">  5  6 -1 -1</clus>
<clus scale="   92.537">  1  5  2 -1</clus>
<clus scale="   93.348">  7  8 -1 -1</clus>
<clus scale="   66.840">  1  5  2 -1</clus>
</clustering>
</event>
<event>
 9    1  0.1803370E-005  0.1395488E+03  0.7546771E-02  0.1214982E+00
         -1   -1    0    0    0  501 -0.00000000000E+00  0.00000000000E+00  0.83168619540E+02  0.83168619540E+02  0.00000000000E+00 0.  1.
          1   -1    0    0  502    0  0.00000000000E+00 -0.00000000000E+00 -0.32407044934E+03  0.32407044934E+03  0.00000000000E+00 0. -1.
         23    2    1    2    0    0 -0.40785094484E+02 -0.95567950648E+02 -0.91828720931E+02  0.16551200202E+03  0.90360675641E+02 0.  0.
         23    2    1    2    0    0  0.79586808492E+02  0.69945948382E+02 -0.98475382608E+02  0.17300887485E+03  0.94911400875E+02 0.  0.
        -11    1    4    4    0    0  0.38484052966E+02  0.57901462103E+02 -0.44248841338E+01  0.69664777656E+02  0.00000000000E+00 0.  1.
         11    1    4    4    0    0  0.41102755526E+02  0.12044486280E+02 -0.94050498474E+02  0.10334409719E+03  0.00000000000E+00 0. -1.
        -13    1    3    3    0    0  0.23037330967E+02 -0.36077180894E+02 -0.61793381536E+01  0.43248882290E+02  0.00000000000E+00 0. -1.
         13    1    3    3    0    0 -0.63822425451E+02 -0.59490769753E+02 -0.85649382777E+02  0.12226311973E+03  0.00000000000E+00 0.  1.
         21    1    1    2  502  501 -0.38801714008E+02  0.25622002265E+02 -0.50597726260E+02  0.68718192007E+02  0.00000000000E+00 0.  1.
<scales pt_clust_5="13000.00000" pt_clust_6="13000.00000" pt_clust_7="13000.00000" pt_clust_8="13000.00000" pt_clust_9="46.49796"></scales>
<clustering>
<clus scale="   46.498">  2  9  1 -1</clus>
<clus scale="   90.361">  7  8 -1 -1</clus>
<clus scale="   94.911">  5  6 -1 -1</clus>
<clus scale="  136.495">  1  7  2 -1</clus>
<clus scale="   46.498">  2  5  1 -1</clus>
</clustering>
</event>
<event>
 9    1  0.1803370E-005  0.9913692E+02  0.7546771E-02  0.1283586E+00
          1   -1    0    0  502    0  0.00000000000E+00  0.00000000000E+00  0.50623656512E+03  0.50623656512E+03  0.00000000000E+00 0. -1.
         -1   -1    0    0    0  501 -0.00000000000E+00 -0.00000000000E+00 -0.37481953037E+02  0.37481953037E+02  0.00000000000E+00 0.  1.
         23    2    1    2    0    0  0.35476261905E+02  0.55567236739E+01  0.54952372341E+02  0.10974023123E+03  0.87941530508E+02 0.  0.
         23    2    1    2    0    0 -0.49987984039E+02 -0.21583610582E+02  0.30062646776E+03  0.31875586485E+03  0.90908621536E+02 0.  0.
        -13    1    3    3    0    0  0.13204186943E+02  0.26061822322E+02  0.70058900569E+02  0.75906644535E+02  0.00000000000E+00 0. -1.
         13    1    3    3    0    0  0.22272074962E+02 -0.20505098648E+02 -0.15106528228E+02  0.33833586697E+02  0.00000000000E+00 0.  1.
        -13    1    4    4    0    0  0.24196980637E+02 -0.12739609046E+02  0.47230593585E+02  0.54575823227E+02  0.00000000000E+00 0.  1.
         13    1    4    4    0    0 -0.74184964676E+02 -0.88440015358E+01  0.25339587417E+03  0.26418004163E+03  0.00000000000E+00 0. -1.
         21    1    1    2  502  501  0.14511722134E+02  0.16026886908E+02  0.11317577198E+03  0.11522242207E+03  0.00000000000E+00 0.  1.
<scales pt_clust_5="13000.00000" pt_clust_6="13000.00000" pt_clust_7="13000.00000" pt_clust_8="13000.00000" pt_clust_9="21.62062"></scales>
<clustering>
<clus scale="   21.621">  1  9  2 -1</clus>
<clus scale="   87.942">  5  6 -1 -1</clus>
<clus scale="   90.909">  7  8 -1 -1</clus>
<clus scale="   96.423">  2  5  1 -1</clus>
<clus scale="   21.621">  1  5  2 -1</clus>
</clustering>
</event>
<event>
 9    1  0.1803370E-005  0.1031456E+03  0.7546771E-02  0.1275902E+00
         -1   -1    0    0    0  501 -0.00000000000E+00  0.00000000000E+00  0.70495826740E+02  0.70495826740E+02  0.00000000000E+00 0.  1.
          1   -1    0    0  502    0  0.00000000000E+00 -0.00000000000E+00 -0.48549862388E+03  0.48549862388E+03  0.00000000000E+00 0. -1.
         23    2    1    2    0    0 -0.59046595904E+01  0.50060262768E+02 -0.15065209362E+02  0.11067046330E+03  0.97365784552E+02 0.  0.
         23    2    1    2    0    0 -0.26741191537E+02 -0.28745401724E+01 -0.97335639839E+02  0.13733018395E+03  0.93069857291E+02 0.  0.
        -13    1    4    4    0    0 -0.37161603573E+02 -0.35033696788E+02 -0.88839807990E+02  0.10247368528E+03  0.00000000000E+00 0.  1.
         13    1    4    4    0    0  0.10420412036E+02  0.32159156615E+02 -0.84958318490E+01  0.34856498677E+02  0.00000000000E+00 0. -1.
        -13    1    3    3    0    0  0.43162152000E+02  0.91851331949E+01  0.32099455192E+01  0.44245245929E+02  0.00000000000E+00 0. -1.
         13    1    3    3    0    0 -0.49066811591E+02  0.40875129573E+02 -0.18275154881E+02  0.66425217374E+02  0.00000000000E+00 0.  1.
         21    1    1    2  502  501  0.32645851128E+02 -0.47185722595E+02 -0.30260194794E+03  0.30799380336E+03  0.00000000000E+00 0. -1.
<scales pt_clust_5="13000.00000" pt_clust_6="13000.00000" pt_clust_7="13000.00000" pt_clust_8="13000.00000" pt_clust_9="57.37808"></scales>
<clustering>
<clus scale="   57.378">  2  9  1 -1</clus>
<clus scale="   93.070">  5  6 -1 -1</clus>
<clus scale="   97.366">  7  8 -1 -1</clus>
<clus scale="   99.101">  2  5  1 -1</clus>
<clus scale="   57.378">  2  5  1 -1</clus>
</clustering>
</event>
<event>
 9    1  0.1803370E-005  0.9349394E+02  0.7546771E-02  0.1296052E+00
          2   -1    0    0  502    0  0.00000000000E+00  0.00000000000E+00  0.84332341675E+02  0.84332341675E+02  0.00000000000E+00 0. -1.
         -2   -1    0    0    0  501 -0.00000000000E+00 -0.00000000000E+00 -0.25035057850E+03  0.25035057850E+03  0.00000000000E+00 0.  1.
         23    2    1    2    0    0 -0.34413138127E+02 -0.36024235109E+02 -0.11882478670E+03  0.15682944880E+03  0.89409935057E+02 0.  0.
         23    2    1    2    0    0  0.97496298745E+01 -0.20084876326E+02  0.85677916528E+01  0.94993124342E+02  0.91933829893E+02 0.  0.
        -11    1    3    3    0    0 -0.58906466384E+02 -0.31977316705E+02 -0.11291548901E+03  0.13131042694E+03  0.00000000000E+00 0.  1.
         11    1    3    3    0    0  0.24493328257E+02 -0.40469184039E+01 -0.59092976935E+01  0.25519021864E+02  0.00000000000E+00 0. -1.
        -13    1    4    4    0    0 -0.35700677499E+02 -0.26313815404E+02 -0.10065414296E+02  0.45478212585E+02  0.00000000000E+00 0.  1.
         13    1    4    4    0    0  0.45450307373E+02  0.62289390780E+01  0.18633205949E+02  0.49514911757E+02  0.00000000000E+00 0. -1.
         21    1    1    2  502  501  0.24663508252E+02  0.56109111435E+02 -0.55761241779E+02  0.82860347031E+02  0.00000000000E+00 0.  1.
<scales pt_clust_5="13000.00000" pt_clust_6="13000.00000" pt_clust_7="13000.00000" pt_clust_8="13000.00000" pt_clust_9="61.29046"></scales>
<clustering>
<clus scale="   61.290">  2  9  1 -1</clus>
<clus scale="   89.410">  5  6 -1 -1</clus>
<clus scale="   91.013">  2  5  1 -1</clus>
<clus scale="   91.934">  7  8 -1 -1</clus>
<clus scale="   93.494">  1  5  2 -1</clus>
</clustering>
</event>
<event>
 9    1  0.1803370E-005  0.9231310E+02  0.7546771E-02  0.1301017E+00
         -1   -1    0    0    0  501 -0.00000000000E+00  0.00000000000E+00  0.98272169827E+02  0.98272169827E+02  0.00000000000E+00 0.  1.
          1   -1    0    0  502    0  0.00000000000E+00 -0.00000000000E+00 -0.21633901021E+03  0.21633901021E+03  0.00000000000E+00 0. -1.
         23    2    1    2    0    0 -0.12917668332E+02 -0.32946475659E+02  0.22026929686E+02  0.97228935910E+02  0.87840445885E+02 0.  0.
         23    2    1    2    0    0 -0.23339219364E+02  0.21719684327E+02 -0.17714162351E+02  0.89251954443E+02  0.81459535822E+02 0.  0.
        -11    1    4    4    0    0 -0.18295835346E+02  0.52383745886E+02 -0.17479686202E+02  0.58175027750E+02  0.00000000000E+00 0.  1.
         11    1    4    4    0    0 -0.50433840184E+01 -0.30664061559E+02 -0.23447614831E+00  0.31076926693E+02  0.00000000000E+00 0. -1.
        -13    1    3    3    0    0 -0.41296371524E+02  0.50444375732E+01 -0.61709016333E+01  0.42058491157E+02  0.00000000000E+00 0.  1.
         13    1    3    3    0    0  0.28378703192E+02 -0.37990913233E+02  0.28197831319E+02  0.55170444753E+02  0.00000000000E+00 0. -1.
         21    1    1    2  502  501  0.36256887696E+02  0.11226791332E+02 -0.12237960772E+03  0.12813028968E+03  0.00000000000E+00 0. -1.
<scales pt_clust_5="13000.00000" pt_clust_6="13000.00000" pt_clust_7="13000.00000" pt_clust_8="13000.00000" pt_clust_9="37.95527"></scales>
<clustering>
<clus scale="   37.955">  2  9  1 -1</clus>
<clus scale="   81.460">  5  6 -1 -1</clus>
<clus scale="   86.264">  2  5  1 -1</clus>
<clus scale="   87.840">  7  8 -1 -1</clus>
<clus scale="   37.955">  2  5  1 -1</clus>
</clustering>
</event>
<event>
 9    1  0.1803370E-005  0.1419685E+03  0.7546771E-02  0.1210780E+00
         -2   -1    0    0    0  501 -0.00000000000E+00  0.00000000000E+00  0.64476384092E+02  0.64476384092E+02  0.00000000000E+00 0.  1.
          2   -1    0    0  502    0  0.00000000000E+00 -0.00000000000E+00 -0.44297129626E+03  0.44297129626E+03  0.00000000000E+00 0. -1.
         23    2    1    2    0    0 -0.11033986676E+03  0.78369299541E+01 -0.79203527214E+02  0.16377394827E+03  0.91172384759E+02 0.  0.
         23    2    1    2    0    0  0.10472925547E+03  0.19037475870E+02 -0.23454602156E+03  0.27334824076E+03  0.91524762013E+02 0.  0.
        -11    1    4    4    0    0  0.79508630616E+02  0.54602280280E+02 -0.17001305443E+03  0.19546731192E+03  0.00000000000E+00 0.  1.
         11    1    4    4    0    0  0.25220624850E+02 -0.35564804410E+02 -0.64532967134E+02  0.77880928844E+02  0.00000000000E+00 0. -1.
        -13    1    3    3    0    0 -0.15739669377E+02 -0.16707145485E+02 -0.59908369965E+02  0.64155114326E+02  0.00000000000E+00 0. -1.
         13    1    3    3    0    0 -0.94600197382E+02  0.24544075439E+02 -0.19295157249E+02  0.99618833948E+02  0.00000000000E+00 0.  1.
         21    1    1    2  502  501  0.56106112929E+01 -0.26874405824E+02 -0.64745363396E+02  0.70325491315E+02  0.00000000000E+00 0. -1.
<scales pt_clust_5="13000.00000" pt_clust_6="13000.00000" pt_clust_7="13000.00000" pt_clust_8="13000.00000" pt_clust_9="27.45383"></scales>
<clustering>
<clus scale="   27.454">  2  9  1 -1</clus>
<clus scale="   91.172">  7  8 -1 -1</clus>
<clus scale="   91.525">  5  6 -1 -1</clus>
<clus scale="  141.742">  1  7  2 -1</clus>
<clus scale="   27.454">  2  5  1 -1</clus>
</clustering>
</event>
<event>
 9    1  0.1803370E-005  0.1812721E+03  0.7546771E-02  0.1167174E+00
         -2   -1    0    0    0  501 -0.00000000000E+00  0.00000000000E+00  0.12525040288E+03  0.12525040288E+03  0.00000000000E+00 0.  1.
          2   -1    0    0  502    0  0.00000000000E+00 -0.00000000000E+00 -0.10558775579E+04  0.10558775579E+04  0.00000000000E+00 0. -1.
         23    2    1    2    0    0  0.10076417747E+03 -0.14059920204E+03  0.88222727183E+01  0.19735951279E+03  0.94611784239E+02 0.  0.
         23    2    1    2    0    0  0.25664632828E+02  0.11548568639E+03 -0.34682000168E+03  0.37728302412E+03  0.89792814775E+02 0.  0.
        -11    1    4    4    0    0 -0.23154766554E+02  0.10049435994E+02 -0.26763615409E+02  0.36788931593E+02  0.00000000000E+00 0.  1.
         11    1    4    4    0    0  0.48819399382E+02  0.10543625040E+03 -0.32005638627E+03  0.34049409253E+03  0.00000000000E+00 0. -1.
        -13    1    3    3    0    0  0.76466445674E+02 -0.39092078775E+02 -0.21766086996E+02  0.88594979994E+02  0.00000000000E+00 0. -1.
         13    1    3    3    0    0  0.24297731796E+02 -0.10150712327E+03  0.30588359714E+02  0.10876453280E+03  0.00000000000E+00 0.  1.
         21    1    1    2  502  501 -0.12642881030E+03  0.25113515651E+02 -0.59262942606E+03  0.60648542388E+03  0.00000000000E+00 0. -1.
<scales pt_clust_5="13000.00000" pt_clust_6="13000.00000" pt_clust_7="13000.00000" pt_clust_8="13000.00000" pt_clust_9="128.89892"></scales>
<clustering>
<clus scale="   89.793">  5  6 -1 -1</clus>
<clus scale="   94.612">  7  8 -1 -1</clus>
<clus scale="  128.899">  2  9  1 -1</clus>
<clus scale="  178.804">  2  5  1 -1</clus>
<clus scale="  128.899">  2  5  1 -1</clus>
</clustering>
</event>
<event>
 9    1  0.1803370E-005  0.1157179E+03  0.7546771E-02  0.1251645E+00
         -2   -1    0    0    0  501 -0.00000000000E+00  0.00000000000E+00  0.73056992843E+02  0.73056992843E+02  0.00000000000E+00 0.  1.
          2   -1    0    0  502    0  0.00000000000E+00 -0.00000000000E+00 -0.44488769852E+03  0.44488769852E+03  0.00000000000E+00 0. -1.
         23    2    1    2    0    0  0.74192068904E+01  0.67245946196E+02  0.70207755802E+01  0.11155982133E+03  0.88426469653E+02 0.  0.
         23    2    1    2    0    0  0.28423758151E+01 -0.85522430039E+02 -0.33305600774E+03  0.35602064328E+03  0.92207532295E+02 0.  0.
        -11    1    4    4    0    0  0.31749115363E+02 -0.90666245589E+02 -0.26613466135E+03  0.28294174734E+03  0.00000000000E+00 0. -1.
         11    1    4    4    0    0 -0.28906739547E+02  0.51438155503E+01 -0.66921346386E+02  0.73078895940E+02  0.00000000000E+00 0.  1.
        -13    1    3    3    0    0  0.26425701909E+02  0.10122733349E+01 -0.24258269871E+02  0.35886015045E+02  0.00000000000E+00 0.  1.
         13    1    3    3    0    0 -0.19006495019E+02  0.66233672861E+02  0.31279045451E+02  0.75673806286E+02  0.00000000000E+00 0. -1.
         21    1    1    2  502  501 -0.10261582705E+02  0.18276483843E+02 -0.45795473516E+02  0.50364226747E+02  0.00000000000E+00 0.  1.
<scales pt_clust_5="13000.00000" pt_clust_6="13000.00000" pt_clust_7="13000.00000" pt_clust_8="13000.00000" pt_clust_9="20.96020"></scales>
<clustering>
<clus scale="   20.960">  2  9  1 -1</clus>
<clus scale="   88.426">  7  8 -1 -1</clus>
<clus scale="   92.208">  5  6 -1 -1</clus>
<clus scale="  112.728">  1  7  2 -1</clus>
<clus scale="   20.960">  2  5  1 -1</clus>
</clustering>
</event>
<event>
 9    1  0.1803370E-005  0.9314048E+02  0.7546771E-02  0.1296122E+00
         -2   -1    0    0    0  501 -0.00000000000E+00  0.00000000000E+00  0.32874932107E+02  0.32874932107E+02  0.00000000000E+00 0.  1.
          2   -1    0    0  502    0  0.00000000000E+00 -0.00000000000E+00 -0.41067054979E+03  0.41067054979E+03  0.00000000000E+00 0. -1.
         23    2    1    2    0    0  0.18149314337E+02 -0.10694911952E+02 -0.15125999326E+03  0.17817397926E+03  0.91774738209E+02 0.  0.
         23    2    1    2    0    0  0.22720217652E+02 -0.90647390989E+00 -0.15828751550E+03  0.18498048840E+03  0.92982866905E+02 0.  0.
        -13    1    3    3    0    0  0.57586606871E+01 -0.50246936237E+02 -0.10158351330E+03  0.11347742925E+03  0.00000000000E+00 0.  1.
         13    1    3    3    0    0  0.12390653650E+02  0.39552024285E+02 -0.49676479959E+02  0.64696550017E+02  0.00000000000E+00 0. -1.
        -13    1    4    4    0    0  0.41367421017E+02  0.33668283947E+02 -0.11349315656E+03  0.12540140929E+03  0.00000000000E+00 0. -1.
         13    1    4    4    0    0 -0.18647203365E+02 -0.34574757857E+02 -0.44794358945E+02  0.59579079110E+02  0.00000000000E+00 0.  1.
         21    1    1    2  502  501 -0.40869531989E+02  0.11601385861E+02 -0.68248108917E+02  0.80391014234E+02  0.00000000000E+00 0.  1.
<scales pt_clust_5="13000.00000" pt_clust_6="13000.00000" pt_clust_7="13000.00000" pt_clust_8="13000.00000" pt_clust_9="42.48424"></scales>
<clustering>
<clus scale="   42.484">  1  9  2 -1</clus>
<clus scale="   91.775">  5  6 -1 -1</clus>
<clus scale="   91.934">  1  5  2 -1</clus>
<clus scale="   92.983">  7  8 -1 -1</clus>
<clus scale="   93.140">  2  5  1 -1</clus>
</clustering>
</event>
<event>
 9    1  0.1803370E-005  0.1026950E+03  0.7546771E-02  0.1276410E+00
         -2   -1    0    0    0  501 -0.00000000000E+00  0.00000000000E+00  0.10262848906E+03  0.10262848906E+03  0.00000000000E+00 0.  1.
          2   -1    0    0  502    0  0.00000000000E+00 -0.00000000000E+00 -0.29834113522E+03  0.29834113522E+03  0.00000000000E+00 0. -1.
         23    2    1    2    0    0 -0.35108632657E+02  0.41410228852E+01  0.57587629172E+02  0.11426207745E+03  0.92139693685E+02 0.  0.
         23    2    1    2    0    0  0.55398011847E+02  0.31854243243E+01 -0.22842705042E+03  0.25378319332E+03  0.95644682049E+02 0.  0.
        -11    1    4    4    0    0 -0.25432936050E+02 -0.74934569938E+01 -0.82087328193E+02  0.86263060366E+02  0.00000000000E+00 0.  1.
         11    1    4    4    0    0  0.80830947897E+02  0.10678881318E+02 -0.14633972223E+03  0.16752013296E+03  0.00000000000E+00 0. -1.
        -13    1    3    3    0    0 -0.58451936925E+02 -0.56055464590E+01  0.65297460326E+02  0.87816908431E+02  0.00000000000E+00 0.  1.
         13    1    3    3    0    0  0.23343304268E+02  0.97465693442E+01 -0.77098311537E+01  0.26445169021E+02  0.00000000000E+00 0. -1.
         21    1    1    2  502  501 -0.20289379190E+02 -0.73264472095E+01 -0.24873224911E+02  0.32924353511E+02  0.00000000000E+00 0.  1.
<scales pt_clust_5="13000.00000" pt_clust_6="13000.00000" pt_clust_7="13000.00000" pt_clust_8="13000.00000" pt_clust_9="21.57164"></scales>
<clustering>
<clus scale="   21.572">  2  9  1 -1</clus>
<clus scale="   92.140">  7  8 -1 -1</clus>
<clus scale="   95.645">  5  6 -1 -1</clus>
<clus scale="   99.439">  1  7  2 -1</clus>
<clus scale="   21.572">  2  5  1 -1</clus>
</clustering>
</event>
<event>
 9    1  0.1803370E-005  0.9790870E+02  0.7546771E-02  0.1284996E+00
         -1   -1    0    0    0  501 -0.00000000000E+00  0.00000000000E+00  0.22966965793E+03  0.22966965793E+03  0.00000000000E+00 0.  1.
          1   -1    0    0  502    0  0.00000000000E+00 -0.00000000000E+00 -0.26244228993E+03  0.26244228993E+03  0.00000000000E+00 0. -1.
         23    2    1    2    0    0 -0.26597819949E+02 -0.22567591949E+02  0.12356963138E+03  0.15762133058E+03  0.91423683041E+02 0.  0.
         23    2    1    2    0    0  0.27638216968E+01  0.43159588776E+02  0.59092072369E+02  0.11676592224E+03  0.90950639170E+02 0.  0.
        -11    1    4    4    0    0  0.20467113174E+02  0.10617848387E+02  0.73488954376E+02  0.77021216826E+02  0.00000000000E+00 0.  1.
         11    1    4    4    0    0 -0.17703291478E+02  0.32541740390E+02 -0.14396882007E+02  0.39744705412E+02  0.00000000000E+00 0. -1.
        -13    1    3    3    0    0 -0.14835214495E+02  0.31194513312E+02  0.18923621543E+02  0.39386351725E+02  0.00000000000E+00 0. -1.
         13    1    3    3    0    0 -0.11762605454E+02 -0.53762105261E+02  0.10464600984E+03  0.11823497886E+03  0.00000000000E+00 0.  1.
         21    1    1    2  502  501  0.23833998253E+02 -0.20591996827E+02 -0.21543433576E+03  0.21772469504E+03  0.00000000000E+00 0. -1.
<scales pt_clust_5="13000.00000" pt_clust_6="13000.00000" pt_clust_7="13000.00000" pt_clust_8="13000.00000" pt_clust_9="31.49746"></scales>
<clustering>
<clus scale="   31.497">  2  9  1 -1</clus>
<clus scale="   90.951">  5  6 -1 -1</clus>
<clus scale="   91.424">  7  8 -1 -1</clus>
<clus scale="   97.467">  2  5  1 -1</clus>
<clus scale="   31.497">  2  5  1 -1</clus>
</clustering>
</event>
<event>
 9    1  0.1803370E-005  0.9206802E+02  0.7546771E-02  0.1298191E+00
          1   -1    0    0  502    0  0.00000000000E+00  0.00000000000E+00  0.31464923507E+03  0.31464923507E+03  0.00000000000E+00 0. -1.
         -1   -1    0    0    0  501 -0.00000000000E+00 -0.00000000000E+00 -0.98604835804E+02  0.98604835804E+02  0.00000000000E+00 0.  1.
         23    2    1    2    0    0 -0.95021284677E+01 -0.88159975565E+01 -0.58442354728E+02  0.10911215971E+03  0.91224680392E+02 0.  0.
         23    2    1    2    0    0  0.19486126845E+02 -0.13702701108E+02  0.25791460964E+03  0.27445339518E+03  0.90759281061E+02 0.  0.
        -11    1    4    4    0    0 -0.22420206551E+02 -0.38552573292E+02  0.10897301434E+03  0.11774584673E+03  0.00000000000E+00 0.  1.
         11    1    4    4    0    0  0.41906333396E+02  0.24849872184E+02  0.14894159531E+03  0.15670754844E+03  0.00000000000E+00 0. -1.
        -13    1    3    3    0    0 -0.22395882357E+02 -0.43952247486E+02 -0.50997557809E+02  0.70951578616E+02  0.00000000000E+00 0.  1.
         13    1    3    3    0    0  0.12893753889E+02  0.35136249930E+02 -0.74447969195E+01  0.38160581097E+02  0.00000000000E+00 0. -1.
         21    1    1    2  502  501 -0.99839983776E+01  0.22518698665E+02  0.16572144355E+02  0.29688515990E+02  0.00000000000E+00 0.  1.
<scales pt_clust_5="13000.00000" pt_clust_6="13000.00000" pt_clust_7="13000.00000" pt_clust_8="13000.00000" pt_clust_9="24.63274"></scales>
<clustering>
<clus scale="   24.633">  1  9  2 -1</clus>
<clus scale="   90.759">  5  6 -1 -1</clus>
<clus scale="   91.225">  7  8 -1 -1</clus>
<clus scale="   91.607">  1  5  2 -1</clus>
<clus scale="   24.633">  1  5  2 -1</clus>
</clustering>
</event>
<event>
 9    1  0.1803370E-005  0.1664978E+03  0.7546771E-02  0.1181633E+00
          2   -1    0    0  502    0  0.00000000000E+00  0.00000000000E+00  0.19277473939E+03  0.19277473939E+03  0.00000000000E+00 0. -1.
         -2   -1    0    0    0  501 -0.00000000000E+00 -0.00000000000E+00 -0.38635947806E+03  0.38635947806E+03  0.00000000000E+00 0.  1.
         23    2    1    2    0    0  0.42070398543E+02 -0.11377974825E+03 -0.26588012403E+03  0.30677916285E+03  0.93303080668E+02 0.  0.
         23    2    1    2    0    0  0.21798674246E+02  0.14092522707E+03  0.99753599314E+02  0.19772202576E+03  0.93851569361E+02 0.  0.
        -13    1    3    3    0    0 -0.28577671762E+02 -0.28468206493E+02 -0.94126826073E+02  0.10240596414E+03  0.00000000000E+00 0. -1.
         13    1    3    3    0    0  0.70648070306E+02 -0.85311541758E+02 -0.17175329796E+03  0.20437319872E+03  0.00000000000E+00 0.  1.
        -13    1    4    4    0    0 -0.30259372833E+02  0.58325103636E+02  0.12723000896E+02  0.66927737973E+02  0.00000000000E+00 0.  1.
         13    1    4    4    0    0  0.52058047079E+02  0.82600123430E+02  0.87030598419E+02  0.13079428779E+03  0.00000000000E+00 0. -1.
         21    1    1    2  502  501 -0.63869072790E+02 -0.27145478816E+02 -0.27458213959E+02  0.74633028835E+02  0.00000000000E+00 0.  1.
<scales pt_clust_5="13000.00000" pt_clust_6="13000.00000" pt_clust_7="13000.00000" pt_clust_8="13000.00000" pt_clust_9="69.39838"></scales>
<clustering>
<clus scale="   69.398">  2  9  1 -1</clus>
<clus scale="   93.303">  5  6 -1 -1</clus>
<clus scale="   93.852">  7  8 -1 -1</clus>
<clus scale="  166.189">  2  5  1 -1</clus>
<clus scale="  166.498">  1  5  2 -1</clus>
</clustering>
</event>
<event>
 9    1  0.1803370E-005  0.1008458E+03  0.7546771E-02  0.1278640E+00
         -1   -1    0    0    0  501 -0.00000000000E+00  0.00000000000E+00  0.15515010126E+02  0.15515010126E+02  0.00000000000E+00 0.  1.
          1   -1    0    0  502    0  0.00000000000E+00 -0.00000000000E+00 -0.81406833188E+03  0.81406833188E+03  0.00000000000E+00 0. -1.
         23    2    1    2    0    0  0.13432475780E+02 -0.38594752894E+02 -0.30637363520E+03  0.32200986737E+03  0.90308161223E+02 0.  0.
         23    2    1    2    0    0  0.24512777276E+01  0.50953859479E+02 -0.41188935015E+03  0.42479920773E+03  0.90549575178E+02 0.  0.
        -11    1    4    4    0    0  0.27617584905E+02  0.66981228856E+02 -0.32335811067E+03  0.33137544229E+03  0.00000000000E+00 0.  1.
         11    1    4    4    0    0 -0.25166307177E+02 -0.16027369377E+02 -0.88531239477E+02  0.93423765442E+02  0.00000000000E+00 0. -1.
        -13    1    3    3    0    0  0.42704890719E+02 -0.12354992818E+01 -0.79780368121E+02  0.90499399376E+02  0.00000000000E+00 0.  1.
         13    1    3    3    0    0 -0.29272414940E+02 -0.37359253612E+02 -0.22659326708E+03  0.23151046800E+03  0.00000000000E+00 0. -1.
         21    1    1    2  502  501 -0.15883753507E+02 -0.12359106585E+02 -0.80290336404E+02  0.82774266900E+02  0.00000000000E+00 0.  1.
<scales pt_clust_5="13000.00000" pt_clust_6="13000.00000" pt_clust_7="13000.00000" pt_clust_8="13000.00000" pt_clust_9="20.12563"></scales>
<clustering>
<clus scale="   20.126">  2  9  1 -1</clus>
<clus scale="   90.308">  7  8 -1 -1</clus>
<clus scale="   90.550">  5  6 -1 -1</clus>
<clus scale="  100.629">  1  7  2 -1</clus>
<clus scale="   20.126">  2  5  1 -1</clus>
</clustering>
</event>
<event>
 9    1  0.1803370E-005  0.1696692E+03  0.7546771E-02  0.1180291E+00
          1   -1    0    0  502    0  0.00000000000E+00  0.00000000000E+00  0.68137578641E+03  0.68137578641E+03  0.00000000000E+00 0. -1.
         -1   -1    0    0    0  501 -0.00000000000E+00 -0.00000000000E+00 -0.14319617690E+03  0.14319617690E+03  0.00000000000E+00 0.  1.
         23    2    1    2    0    0 -0.99146541652E+02  0.84403146845E+02 -0.72298280221E+02  0.17551385236E+03  0.92866264755E+02 0.  0.
         23    2    1    2    0    0  0.11925442808E+03 -0.10430547115E+03  0.55451217425E+03  0.58634773766E+03  0.10591821436E+03 0.  0.
        -11    1    4    4    0    0 -0.83289358483E+01 -0.51501752451E+02  0.13713931745E+03  0.14672761863E+03  0.00000000000E+00 0.  1.
         11    1    4    4    0    0  0.12758336393E+03 -0.52803718702E+02  0.41737285680E+03  0.43962011903E+03  0.00000000000E+00 0. -1.
        -13    1    3    3    0    0 -0.64514644118E+01  0.40685791271E+02 -0.59302411976E+02  0.72206170585E+02  0.00000000000E+00 0.  1.
         13    1    3    3    0    0 -0.92695077240E+02  0.43717355573E+02 -0.12995868246E+02  0.10330768178E+03  0.00000000000E+00 0. -1.
         21    1    1    2  502  501 -0.20107886428E+02  0.19902324308E+02  0.55965715474E+02  0.62710373289E+02  0.00000000000E+00 0. -1.
<scales pt_clust_5="13000.00000" pt_clust_6="13000.00000" pt_clust_7="13000.00000" pt_clust_8="13000.00000" pt_clust_9="28.29186"></scales>
<clustering>
<clus scale="   28.292">  1  9  2 -1</clus>
<clus scale="   92.866">  7  8 -1 -1</clus>
<clus scale="  105.918">  5  6 -1 -1</clus>
<clus scale="  161.843">  2  7  1 -1</clus>
<clus scale="   28.292">  1  5  2 -1</clus>
</clustering>
</event>
<event>
 9    1  0.1803370E-005  0.9682630E+02  0.7546771E-02  0.1288424E+00
          2   -1    0    0  502    0  0.00000000000E+00  0.00000000000E+00  0.13364959336E+03  0.13364959336E+03  0.00000000000E+00 0. -1.
         -2   -1    0    0    0  501 -0.00000000000E+00 -0.00000000000E+00 -0.11832124295E+03  0.11832124295E+03  0.00000000000E+00 0.  1.
         23    2    1    2    0    0  0.20018825140E+02 -0.39084126342E+02 -0.97094961059E+01  0.10236174247E+03  0.91952866810E+02 0.  0.
         23    2    1    2    0    0 -0.16747817645E+02 -0.29494842790E+01  0.41321802043E+02  0.10441295330E+03  0.94368345538E+02 0.  0.
        -11    1    4    4    0    0  0.37392061831E+02 -0.12333898877E+02  0.26636166696E+02  0.47537108933E+02  0.00000000000E+00 0.  1.
         11    1    4    4    0    0 -0.54139879476E+02  0.93844145978E+01  0.14685635347E+02  0.56875844368E+02  0.00000000000E+00 0. -1.
        -13    1    3    3    0    0  0.75582677834E+01  0.23000048126E+02 -0.27450309384E+02  0.36601217343E+02  0.00000000000E+00 0.  1.
         13    1    3    3    0    0  0.12460557357E+02 -0.62084174468E+02  0.17740813278E+02  0.65760525125E+02  0.00000000000E+00 0. -1.
         21    1    1    2  502  501 -0.32710074958E+01  0.42033610621E+02 -0.16283955528E+02  0.45196140537E+02  0.00000000000E+00 0.  1.
<scales pt_clust_5="13000.00000" pt_clust_6="13000.00000" pt_clust_7="13000.00000" pt_clust_8="13000.00000" pt_clust_9="42.16069"></scales>
<clustering>
<clus scale="   42.161">  2  9  1 -1</clus>
<clus scale="   91.953">  7  8 -1 -1</clus>
<clus scale="   94.368">  5  6 -1 -1</clus>
<clus scale="   94.474">  2  7  1 -1</clus>
<clus scale="   96.826">  1  5  2 -1</clus>
</clustering>
</event>
<event>
 9    1  0.1803370E-005  0.2034938E+03  0.7546771E-02  0.1146826E+00
         -2   -1    0    0    0  501 -0.00000000000E+00  0.00000000000E+00  0.52537693456E+02  0.52537693456E+02  0.00000000000E+00 0.  1.
          2   -1    0    0  502    0  0.00000000000E+00 -0.00000000000E+00 -0.10075562371E+04  0.10075562371E+04  0.00000000000E+00 0. -1.
         23    2    1    2    0    0 -0.14025265115E+03 -0.10683723481E+03 -0.29188138445E+03  0.35234854511E+03  0.88711632590E+02 0.  0.
         23    2    1    2    0    0  0.16426550396E+03  0.10492740094E+03 -0.51646397130E+03  0.55910727252E+03  0.88729889441E+02 0.  0.
        -11    1    4    4    0    0  0.16020876477E+03  0.63898352022E+02 -0.40180207964E+03  0.43725822909E+03  0.00000000000E+00 0. -1.
         11    1    4    4    0    0  0.40567391887E+01  0.41029048918E+02 -0.11466189166E+03  0.12184904344E+03  0.00000000000E+00 0.  1.
        -13    1    3    3    0    0 -0.51376319529E+02 -0.34913547291E+02 -0.35299777771E+02  0.71446177669E+02  0.00000000000E+00 0. -1.
         13    1    3    3    0    0 -0.88876331623E+02 -0.71923687516E+02 -0.25658160668E+03  0.28090236744E+03  0.00000000000E+00 0.  1.
         21    1    1    2  502  501 -0.24012852805E+02  0.19098338676E+01 -0.14667318786E+03  0.14863811289E+03  0.00000000000E+00 0.  1.
<scales pt_clust_5="13000.00000" pt_clust_6="13000.00000" pt_clust_7="13000.00000" pt_clust_8="13000.00000" pt_clust_9="24.08868"></scales>
<clustering>
<clus scale="   24.089">  2  9  1 -1</clus>
<clus scale="   88.712">  7  8 -1 -1</clus>
<clus scale="   88.730">  5  6 -1 -1</clus>
<clus scale="  203.486">  1  7  2 -1</clus>
<clus scale="   24.089">  2  5  1 -1</clus>
</clustering>
</event>
<event>
 9    1  0.1803370E-005  0.1236838E+03  0.7546771E-02  0.1240967E+00
          2   -1    0    0  502    0  0.00000000000E+00  0.00000000000E+00  0.28351659350E+03  0.28351659350E+03  0.00000000000E+00 0. -1.
         -2   -1    0    0    0  501 -0.00000000000E+00 -0.00000000000E+00 -0.90023838986E+02  0.90023838986E+02  0.00000000000E+00 0.  1.
         23    2    1    2    0    0  0.87621164430E+02 -0.36089944516E+00 -0.88553567206E+01  0.12945209826E+03  0.94877972660E+02 0.  0.
         23    2    1    2    0    0 -0.57021432822E+02 -0.16021034202E+02  0.14370754174E+03  0.17594563311E+03  0.82443258799E+02 0.  0.
        -13    1    4    4    0    0  0.74252384180E+01  0.22413507479E+02  0.18588049779E+02  0.30050209278E+02  0.00000000000E+00 0.  1.
         13    1    4    4    0    0 -0.64446671240E+02 -0.38434541680E+02  0.12511949196E+03  0.14589542384E+03  0.00000000000E+00 0. -1.
        -13    1    3    3    0    0  0.29769147010E+02 -0.40963665270E+02  0.18146441201E+02  0.53791424171E+02  0.00000000000E+00 0. -1.
         13    1    3    3    0    0  0.57852017419E+02  0.40602765825E+02 -0.27001797921E+02  0.75660674086E+02  0.00000000000E+00 0.  1.
         21    1    1    2  502  501 -0.30599731608E+02  0.16381933647E+02  0.58640569500E+02  0.68142701118E+02  0.00000000000E+00 0. -1.
<scales pt_clust_5="13000.00000" pt_clust_6="13000.00000" pt_clust_7="13000.00000" pt_clust_8="13000.00000" pt_clust_9="34.70895"></scales>
<clustering>
<clus scale="   34.709">  1  9  2 -1</clus>
<clus scale="   82.443">  5  6 -1 -1</clus>
<clus scale="   94.878">  7  8 -1 -1</clus>
<clus scale="  114.424">  1  5  2 -1</clus>
<clus scale="   34.709">  1  5  2 -1</clus>
</clustering>
</event>
<event>
 9    1  0.1803370E-005  0.1798909E+03  0.7546771E-02  0.1168311E+00
          4   -1    0    0  502    0  0.00000000000E+00  0.00000000000E+00  0.68142212141E+03  0.68142212141E+03  0.00000000000E+00 0. -1.
         -4   -1    0    0    0  501 -0.00000000000E+00 -0.00000000000E+00 -0.21157892356E+03  0.21157892356E+03  0.00000000000E+00 0.  1.
         23    2    1    2    0    0  0.13626282831E+03 -0.72693815320E+02 -0.14605143315E+03  0.23133034379E+03  0.91272984308E+02 0.  0.
         23    2    1    2    0    0 -0.16497151198E+03  0.34849976746E+02  0.53578429580E+03  0.56853633351E+03  0.87969484783E+02 0.  0.
        -11    1    3    3    0    0  0.61486838169E+02  0.47650955940E+01 -0.18439539427E+02  0.64368890143E+02  0.00000000000E+00 0.  1.
         11    1    3    3    0    0  0.74775990143E+02 -0.77458910914E+02 -0.12761189373E+03  0.16696145364E+03  0.00000000000E+00 0. -1.
        -13    1    4    4    0    0 -0.99421185290E+02  0.52313128667E+02  0.41572857029E+03  0.43064077799E+03  0.00000000000E+00 0. -1.
         13    1    4    4    0    0 -0.65550326687E+02 -0.17463151921E+02  0.12005572551E+03  0.13789555552E+03  0.00000000000E+00 0.  1.
         21    1    1    2  502  501  0.28708683665E+02  0.37843838574E+02  0.80110335208E+02  0.93134367679E+02  0.00000000000E+00 0.  1.
<scales pt_clust_5="13000.00000" pt_clust_6="13000.00000" pt_clust_7="13000.00000" pt_clust_8="13000.00000" pt_clust_9="47.50100"></scales>
<clustering>
<clus scale="   47.501">  1  9  2 -1</clus>
<clus scale="   87.969">  7  8 -1 -1</clus>
<clus scale="   91.273">  5  6 -1 -1</clus>
<clus scale="  178.238">  1  7  2 -1</clus>
<clus scale="   47.501">  1  5  2 -1</clus>
</clustering>
</event>
<event>
 9    1  0.1803370E-005  0.1657526E+03  0.7546771E-02  0.1183610E+00
         -1   -1    0    0    0  501 -0.00000000000E+00  0.00000000000E+00  0.42350059616E+03  0.42350059616E+03  0.00000000000E+00 0.  1.
          1   -1    0    0  502    0  0.00000000000E+00 -0.00000000000E+00 -0.25112263178E+03  0.25112263178E+03  0.00000000000E+00 0. -1.
         23    2    1    2    0    0  0.14015938248E+03 -0.96902919086E+02  0.30906389959E+03  0.36236877618E+03  0.82193720542E+02 0.  0.
         23    2    1    2    0    0 -0.23423385118E+02  0.82182593997E+02  0.89012767637E+01  0.12506573057E+03  0.90882179265E+02 0.  0.
        -13    1    3    3    0    0  0.12187853336E+03 -0.56600805038E+02  0.27649806554E+03  0.30742349987E+03  0.00000000000E+00 0.  1.
         13    1    3    3    0    0  0.18280849121E+02 -0.40302114048E+02  0.32565834043E+02  0.54945276305E+02  0.00000000000E+00 0. -1.
        -13    1    4    4    0    0 -0.37175266852E+02 -0.41923089438E+00  0.17109472393E+02  0.40925667565E+02  0.00000000000E+00 0.  1.
         13    1    4    4    0    0  0.13751881734E+02  0.82601824892E+02 -0.82081956297E+01  0.84140063003E+02  0.00000000000E+00 0. -1.
         21    1    1    2  502  501 -0.11673599736E+03  0.14720325088E+02 -0.14558721197E+03  0.18718872119E+03  0.00000000000E+00 0. -1.
<scales pt_clust_5="13000.00000" pt_clust_6="13000.00000" pt_clust_7="13000.00000" pt_clust_8="13000.00000" pt_clust_9="117.66045"></scales>
<clustering>
<clus scale="   82.194">  5  6 -1 -1</clus>
<clus scale="   90.882">  7  8 -1 -1</clus>
<clus scale="  117.660">  2  9  1 -1</clus>
<clus scale="  161.153">  1  5  2 -1</clus>
<clus scale="  117.660">  2  5  1 -1</clus>
</clustering>
</event>
<event>
 9    1  0.1803370E-005  0.1143866E+03  0.7546771E-02  0.1253117E+00
         -1   -1    0    0    0  501 -0.00000000000E+00  0.00000000000E+00  0.27263042731E+03  0.27263042731E+03  0.00000000000E+00 0.  1.
          1   -1    0    0  502    0  0.00000000000E+00 -0.00000000000E+00 -0.93737366245E+02  0.93737366245E+02  0.00000000000E+00 0. -1.
         23    2    1    2    0    0  0.58120278446E+02 -0.60910290099E+01  0.10286485754E+03  0.14951340732E+03  0.91422167184E+02 0.  0.
         23    2    1    2    0    0 -0.69541585992E+02  0.39438162667E+02  0.11240621082E+03  0.16620029455E+03  0.92714512470E+02 0.  0.
        -11    1    3    3    0    0  0.34793823002E+02  0.41859929490E+02  0.60716144304E+02  0.81543325878E+02  0.00000000000E+00 0.  1.
         11    1    3    3    0    0  0.23326455444E+02 -0.47950958500E+02  0.42148713232E+02  0.67970081446E+02  0.00000000000E+00 0. -1.
        -11    1    4    4    0    0 -0.81757625061E+02  0.17698823707E+02  0.11378544400E+03  0.14122565235E+03  0.00000000000E+00 0.  1.
         11    1    4    4    0    0  0.12216039069E+02  0.21739338960E+02 -0.13792331809E+01  0.24974642202E+02  0.00000000000E+00 0. -1.
         21    1    1    2  502  501  0.11421307546E+02 -0.33347133657E+02 -0.36378007290E+02  0.50654091676E+02  0.00000000000E+00 0. -1.
<scales pt_clust_5="13000.00000" pt_clust_6="13000.00000" pt_clust_7="13000.00000" pt_clust_8="13000.00000" pt_clust_9="35.24880"></scales>
<clustering>
<clus scale="   35.249">  2  9  1 -1</clus>
<clus scale="   91.422">  5  6 -1 -1</clus>
<clus scale="   92.715">  7  8 -1 -1</clus>
<clus scale="  113.342">  1  5  2 -1</clus>
<clus scale="   35.249">  2  5  1 -1</clus>
</clustering>
</event>
<event>
 9    1  0.1803370E-005  0.1158440E+03  0.7546771E-02  0.1251001E+00
          1   -1    0    0  502    0  0.00000000000E+00  0.00000000000E+00  0.79774063181E+03  0.79774063181E+03  0.00000000000E+00 0. -1.
         -1   -1    0    0    0  501 -0.00000000000E+00 -0.00000000000E+00 -0.34731958150E+02  0.34731958150E+02  0.00000000000E+00 0.  1.
         23    2    1    2    0    0  0.27451090085E+02 -0.67024991418E+02  0.12136138346E+03  0.16891338339E+03  0.92505318071E+02 0.  0.
         23    2    1    2    0    0  0.19572474043E+02  0.59416585482E+02  0.34918201073E+03  0.36724004904E+03  0.94993497831E+02 0.  0.
        -11    1    4    4    0    0 -0.30520825604E+02  0.14145029247E+02  0.48201371439E+02  0.58779034158E+02  0.00000000000E+00 0.  1.
         11    1    4    4    0    0  0.50093299647E+02  0.45271556234E+02  0.30098063929E+03  0.30846101488E+03  0.00000000000E+00 0. -1.
        -13    1    3    3    0    0  0.52980854217E+02 -0.14934270807E+02  0.36238854142E+02  0.65903398301E+02  0.00000000000E+00 0. -1.
         13    1    3    3    0    0 -0.25529764132E+02 -0.52090720611E+02  0.85122529319E+02  0.10300998509E+03  0.00000000000E+00 0.  1.
         21    1    1    2  502  501 -0.47023564129E+02  0.76084059366E+01  0.29246527947E+03  0.29631915753E+03  0.00000000000E+00 0. -1.
<scales pt_clust_5="13000.00000" pt_clust_6="13000.00000" pt_clust_7="13000.00000" pt_clust_8="13000.00000" pt_clust_9="47.63511"></scales>
<clustering>
<clus scale="   47.635">  1  9  2 -1</clus>
<clus scale="   92.505">  7  8 -1 -1</clus>
<clus scale="   94.993">  5  6 -1 -1</clus>
<clus scale="  113.813">  2  7  1 -1</clus>
<clus scale="   47.635">  1  5  2 -1</clus>
</clustering>
</event>
<event>
 9    1  0.1803370E-005  0.1144308E+03  0.7546771E-02  0.1253975E+00
          2   -1    0    0  502    0  0.00000000000E+00  0.00000000000E+00  0.35628949666E+03  0.35628949666E+03  0.00000000000E+00 0. -1.
         -2   -1    0    0    0  501 -0.00000000000E+00 -0.00000000000E+00 -0.76220557833E+02  0.76220557833E+02  0.00000000000E+00 0.  1.
         23    2    1    2    0    0  0.58875791925E+02 -0.23243592192E+00  0.50024859401E+01  0.10841685100E+03  0.90899811952E+02 0.  0.
         23    2    1    2    0    0 -0.85891884081E+02 -0.28614193504E+02  0.22420937274E+03  0.25968481999E+03  0.94711008280E+02 0.  0.
        -11    1    3    3    0    0 -0.15272580958E+02  0.22703538463E+02 -0.10429805222E+02  0.29282814496E+02  0.00000000000E+00 0. -1.
         11    1    3    3    0    0  0.74148372883E+02 -0.22935974385E+02  0.15432291162E+02  0.79134036499E+02  0.00000000000E+00 0.  1.
        -13    1    4    4    0    0 -0.38974843115E+02  0.10265286270E+02  0.17986165025E+03  0.18432207608E+03  0.00000000000E+00 0. -1.
         13    1    4    4    0    0 -0.46917040967E+02 -0.38879479774E+02  0.44347722485E+02  0.75362743913E+02  0.00000000000E+00 0.  1.
         21    1    1    2  502  501  0.27016092156E+02  0.28846629426E+02  0.50857080151E+02  0.64408383508E+02  0.00000000000E+00 0.  1.
<scales pt_clust_5="13000.00000" pt_clust_6="13000.00000" pt_clust_7="13000.00000" pt_clust_8="13000.00000" pt_clust_9="39.52211"></scales>
<clustering>
<clus scale="   39.522">  1  9  2 -1</clus>
<clus scale="   90.900">  5  6 -1 -1</clus>
<clus scale="   94.711">  7  8 -1 -1</clus>
<clus scale="  111.297">  2  5  1 -1</clus>
<clus scale="   39.522">  1  5  2 -1</clus>
</clustering>
</event>
<event>
 9    1  0.1803370E-005  0.2140784E+03  0.7546771E-02  0.1138465E+00
          1   -1    0    0  502    0  0.00000000000E+00  0.00000000000E+00  0.20016622972E+03  0.20016622972E+03  0.00000000000E+00 0. -1.
         -1   -1    0    0    0  501 -0.00000000000E+00 -0.00000000000E+00 -0.26982080700E+03  0.26982080700E+03  0.00000000000E+00 0.  1.
         23    2    1    2    0    0 -0.12071056575E+03  0.16253187258E+03 -0.56389896835E+02  0.22901786602E+03  0.91003913119E+02 0.  0.
         23    2    1    2    0    0  0.13215867804E+03 -0.12974756638E+03 -0.11092149405E+02  0.20617563826E+03  0.89916688505E+02 0.  0.
        -11    1    3    3    0    0 -0.27976683298E+02  0.86833840436E+02  0.10596871308E+02  0.91842824079E+02  0.00000000000E+00 0. -1.
         11    1    3    3    0    0 -0.92733882454E+02  0.75698032145E+02 -0.66986768144E+02  0.13717504194E+03  0.00000000000E+00 0.  1.
        -13    1    4    4    0    0  0.88495073737E+02 -0.11646445658E+03  0.24486492239E+02  0.14830689810E+03  0.00000000000E+00 0. -1.
         13    1    4    4    0    0  0.43663604306E+02 -0.13283109801E+02 -0.35578641644E+02  0.57868740164E+02  0.00000000000E+00 0.  1.
         21    1    1    2  502  501 -0.11448112291E+02 -0.32784306202E+02 -0.21725310313E+01  0.34793532435E+02  0.00000000000E+00 0. -1.
<scales pt_clust_5="13000.00000" pt_clust_6="13000.00000" pt_clust_7="13000.00000" pt_clust_8="13000.00000" pt_clust_9="34.72564"></scales>
<clustering>
<clus scale="   34.726">  1  9  2 -1</clus>
<clus scale="   89.917">  7  8 -1 -1</clus>
<clus scale="   91.004">  5  6 -1 -1</clus>
<clus scale="  213.618">  1  7  2 -1</clus>
<clus scale="   34.726">  1  5  2 -1</clus>
</clustering>
</event>
<event>
 9    1  0.1803370E-005  0.1202807E+03  0.7546771E-02  0.1246048E+00
         -1   -1    0    0    0  501 -0.00000000000E+00  0.00000000000E+00  0.45566911581E+02  0.45566911581E+02  0.00000000000E+00 0.  1.
          1   -1    0    0  502    0  0.00000000000E+00 -0.00000000000E+00 -0.76676405199E+03  0.76676405199E+03  0.00000000000E+00 0. -1.
         23    2    1    2    0    0 -0.32708847705E+02 -0.93907547994E+02 -0.22423705919E+03  0.26498511596E+03  0.10023151539E+03 0.  0.
         23    2    1    2    0    0  0.74452793321E+02 -0.58994995680E+01 -0.30830646869E+03  0.32987357522E+03  0.90474717275E+02 0.  0.
        -11    1    3    3    0    0 -0.56564496171E+02 -0.67285986191E+02 -0.88953934294E+02  0.12505898045E+03  0.00000000000E+00 0.  1.
         11    1    3    3    0    0  0.23855648466E+02 -0.26621561803E+02 -0.13528312489E+03  0.13992613551E+03  0.00000000000E+00 0. -1.
        -13    1    4    4    0    0  0.34988182752E+01  0.33930282891E+02 -0.11966117195E+03  0.12442789839E+03  0.00000000000E+00 0.  1.
         13    1    4    4    0    0  0.70953975046E+02 -0.39829782459E+02 -0.18864529674E+03  0.20544567683E+03  0.00000000000E+00 0. -1.
         21    1    1    2  502  501 -0.41743945616E+02  0.99807047562E+02 -0.18865361253E+03  0.21747227239E+03  0.00000000000E+00 0.  1.
<scales pt_clust_5="13000.00000" pt_clust_6="13000.00000" pt_clust_7="13000.00000" pt_clust_8="13000.00000" pt_clust_9="108.18504"></scales>
<clustering>
<clus scale="   90.475">  7  8 -1 -1</clus>
<clus scale="  100.232">  5  6 -1 -1</clus>
<clus scale="  108.185">  1  9  2 -1</clus>
<clus scale="  112.280">  2  7  1 -1</clus>
<clus scale="  112.280">  2  5  1 -1</clus>
</clustering>
</event>
<event>
 9    1  0.1803370E-005  0.1518280E+03  0.7546771E-02  0.1198440E+00
         -2   -1    0    0    0  501 -0.00000000000E+00  0.00000000000E+00  0.92675452770E+02  0.92675452770E+02  0.00000000000E+00 0.  1.
          2   -1    0    0  502    0  0.00000000000E+00 -0.00000000000E+00 -0.52622990518E+03  0.52622990518E+03  0.00000000000E+00 0. -1.
         23    2    1    2    0    0 -0.20678256204E+02  0.10328951551E+03 -0.50796064830E+02  0.14792271215E+03  0.90579105064E+02 0.  0.
         23    2    1    2    0    0  0.36808339232E+02 -0.14574734717E+03 -0.14259601340E+03  0.22656330732E+03  0.91652420291E+02 0.  0.
        -13    1    3    3    0    0  0.28173589313E+02  0.35236140979E+02 -0.45358305530E+02  0.63974312395E+02  0.00000000000E+00 0. -1.
         13    1    3    3    0    0 -0.48851845517E+02  0.68053374527E+02 -0.54377592992E+01  0.83948399754E+02  0.00000000000E+00 0.  1.
        -13    1    4    4    0    0  0.50281616170E+02 -0.60895155281E+02 -0.28981093663E+02  0.84121130825E+02  0.00000000000E+00 0.  1.
         13    1    4    4    0    0 -0.13473276938E+02 -0.84852191887E+02 -0.11361491973E+03  0.14244217650E+03  0.00000000000E+00 0. -1.
         21    1    1    2  502  501 -0.16130083028E+02  0.42457831662E+02 -0.24016237419E+03  0.24441933848E+03  0.00000000000E+00 0. -1.
<scales pt_clust_5="13000.00000" pt_clust_6="13000.00000" pt_clust_7="13000.00000" pt_clust_8="13000.00000" pt_clust_9="45.41858"></scales>
<clustering>
<clus scale="   45.419">  2  9  1 -1</clus>
<clus scale="   90.579">  5  6 -1 -1</clus>
<clus scale="   91.652">  7  8 -1 -1</clus>
<clus scale="  151.182">  1  5  2 -1</clus>
<clus scale="   45.419">  2  5  1 -1</clus>
</clustering>
</event>
<event>
 9    1  0.1803370E-005  0.2215723E+03  0.7546771E-02  0.1133472E+00
         -2   -1    0    0    0  501 -0.00000000000E+00  0.00000000000E+00  0.13430854700E+03  0.13430854700E+03  0.00000000000E+00 0.  1.
          2   -1    0    0  502    0  0.00000000000E+00 -0.00000000000E+00 -0.13454042333E+04  0.13454042333E+04  0.00000000000E+00 0. -1.
         23    2    1    2    0    0  0.18191703202E+03 -0.11182546052E+03 -0.25916785517E+02  0.23709972930E+03  0.99728941158E+02 0.  0.
         23    2    1    2    0    0 -0.19894753570E+02  0.17584827648E+03 -0.66331423775E+03  0.69243774602E+03  0.90365018421E+02 0.  0.
        -11    1    4    4    0    0 -0.25344661441E+02  0.31692238097E+01 -0.10115890564E+03  0.10433369558E+03  0.00000000000E+00 0.  1.
         11    1    4    4    0    0  0.54499078707E+01  0.17267905267E+03 -0.56215533211E+03  0.58810405044E+03  0.00000000000E+00 0. -1.
        -13    1    3    3    0    0  0.12252161795E+03 -0.22944186168E+02  0.81087597290E+01  0.12491490915E+03  0.00000000000E+00 0. -1.
         13    1    3    3    0    0  0.59395414068E+02 -0.88881274349E+02 -0.34025545246E+02  0.11218482015E+03  0.00000000000E+00 0.  1.
         21    1    1    2  502  501 -0.16202227845E+03 -0.64022815967E+02 -0.52186466303E+03  0.55017530497E+03  0.00000000000E+00 0. -1.
<scales pt_clust_5="13000.00000" pt_clust_6="13000.00000" pt_clust_7="13000.00000" pt_clust_8="13000.00000" pt_clust_9="174.21291"></scales>
<clustering>
<clus scale="   90.365">  5  6 -1 -1</clus>
<clus scale="   99.729">  7  8 -1 -1</clus>
<clus scale="  174.213">  2  9  1 -1</clus>
<clus scale="  217.518">  2  5  1 -1</clus>
<clus scale="  174.213">  2  5  1 -1</clus>
</clustering>
</event>
<event>
 9    1  0.1803370E-005  0.1594477E+03  0.7546771E-02  0.1190153E+00
          1   -1    0    0  502    0  0.00000000000E+00  0.00000000000E+00  0.65375602457E+03  0.65375602457E+03  0.00000000000E+00 0. -1.
         -1   -1    0    0    0  501 -0.00000000000E+00 -0.00000000000E+00 -0.45003821033E+02  0.45003821033E+02  0.00000000000E+00 0.  1.
         23    2    1    2    0    0 -0.11411664913E+03 -0.35278802309E+02  0.24345747019E+03  0.28672309505E+03  0.93120298248E+02 0.  0.
         23    2    1    2    0    0  0.13700276373E+03  0.37013869875E+02  0.30908711081E+03  0.35132364214E+03  0.88054958007E+02 0.  0.
        -11    1    4    4    0    0  0.69825613917E+02  0.56343287436E+02  0.22337485202E+03  0.24072080698E+03  0.00000000000E+00 0. -1.
         11    1    4    4    0    0  0.67177149808E+02 -0.19329417561E+02  0.85712258787E+02  0.11060283516E+03  0.00000000000E+00 0.  1.
        -11    1    3    3    0    0 -0.68889750834E+02 -0.64777216405E+02  0.12682305890E+03  0.15819599806E+03  0.00000000000E+00 0.  1.
         11    1    3    3    0    0 -0.45226898295E+02  0.29498414096E+02  0.11663441129E+03  0.12852709699E+03  0.00000000000E+00 0. -1.
         21    1    1    2  502  501 -0.22886114597E+02 -0.17350675657E+01  0.56207622549E+02  0.60713108415E+02  0.00000000000E+00 0.  1.
<scales pt_clust_5="13000.00000" pt_clust_6="13000.00000" pt_clust_7="13000.00000" pt_clust_8="13000.00000" pt_clust_9="22.95179"></scales>
<clustering>
<clus scale="   22.952">  1  9  2 -1</clus>
<clus scale="   88.055">  5  6 -1 -1</clus>
<clus scale="   93.120">  7  8 -1 -1</clus>
<clus scale="  156.544">  1  5  2 -1</clus>
<clus scale="   22.952">  1  5  2 -1</clus>
</clustering>
</event>
<event>
 9    1  0.1803370E-005  0.9481816E+02  0.7546771E-02  0.1293034E+00
          1   -1    0    0  502    0  0.00000000000E+00  0.00000000000E+00  0.46053149794E+02  0.46053149794E+02  0.00000000000E+00 0. -1.
         -1   -1    0    0    0  501 -0.00000000000E+00 -0.00000000000E+00 -0.49020200516E+03  0.49020200516E+03  0.00000000000E+00 0.  1.
         23    2    1    2    0    0 -0.35222388763E+01 -0.36452681621E+01 -0.30801725363E+03  0.32224613348E+03  0.94563459429E+02 0.  0.
         23    2    1    2    0    0 -0.27465071906E+02 -0.12951161166E+02 -0.14800219534E+03  0.17690692061E+03  0.92029049663E+02 0.  0.
        -11    1    3    3    0    0  0.36603197174E+02 -0.27925616192E+02 -0.12171772313E+03  0.13013392412E+03  0.00000000000E+00 0.  1.
         11    1    3    3    0    0 -0.40125436050E+02  0.24280348030E+02 -0.18629953050E+03  0.19211220936E+03  0.00000000000E+00 0. -1.
        -13    1    4    4    0    0  0.23338506378E+02 -0.34117341876E+02 -0.54394709882E+02  0.68318836054E+02  0.00000000000E+00 0.  1.
         13    1    4    4    0    0 -0.50803578285E+02  0.21166180710E+02 -0.93607485463E+02  0.10858808455E+03  0.00000000000E+00 0. -1.
         21    1    1    2  502  501  0.30987310783E+02  0.16596429328E+02  0.11870593613E+02  0.37102100867E+02  0.00000000000E+00 0. -1.
<scales pt_clust_5="13000.00000" pt_clust_6="13000.00000" pt_clust_7="13000.00000" pt_clust_8="13000.00000" pt_clust_9="35.15188"></scales>
<clustering>
<clus scale="   35.152">  1  9  2 -1</clus>
<clus scale="   92.029">  7  8 -1 -1</clus>
<clus scale="   92.291">  1  7  2 -1</clus>
<clus scale="   94.563">  5  6 -1 -1</clus>
<clus scale="   35.152">  1  5  2 -1</clus>
</clustering>
</event>
<event>
 9    1  0.1803370E-005  0.1185416E+03  0.7546771E-02  0.1245686E+00
          1   -1    0    0  502    0  0.00000000000E+00  0.00000000000E+00  0.21383800350E+03  0.21383800350E+03  0.00000000000E+00 0. -1.
         -1   -1    0    0    0  501 -0.00000000000E+00 -0.00000000000E+00 -0.10592286347E+03  0.10592286347E+03  0.00000000000E+00 0.  1.
         23    2    1    2    0    0 -0.65616497301E+02 -0.44909284312E+01 -0.15695965454E+02  0.11539455555E+03  0.93508539519E+02 0.  0.
         23    2    1    2    0    0  0.87435272509E+02  0.15568717492E+02  0.72335959411E+02  0.14755155131E+03  0.93014286144E+02 0.  0.
        -11    1    3    3    0    0 -0.43426045549E+01 -0.35254632579E+02 -0.28629445748E+02  0.45622280702E+02  0.00000000000E+00 0.  1.
         11    1    3    3    0    0 -0.61273892746E+02  0.30763704147E+02  0.12933480294E+02  0.69772274849E+02  0.00000000000E+00 0. -1.
        -13    1    4    4    0    0  0.53801680341E+02 -0.28582976388E+02  0.62389074124E+01  0.61241581564E+02  0.00000000000E+00 0.  1.
         13    1    4    4    0    0  0.33633592168E+02  0.44151693880E+02  0.66097051998E+02  0.86309969745E+02  0.00000000000E+00 0. -1.
         21    1    1    2  502  501 -0.21818775208E+02 -0.11077789060E+02  0.51275146068E+02  0.56814760110E+02  0.00000000000E+00 0.  1.
<scales pt_clust_5="13000.00000" pt_clust_6="13000.00000" pt_clust_7="13000.00000" pt_clust_8="13000.00000" pt_clust_9="24.46991"></scales>
<clustering>
<clus scale="   24.470">  1  9  2 -1</clus>
<clus scale="   93.014">  7  8 -1 -1</clus>
<clus scale="   93.509">  5  6 -1 -1</clus>
<clus scale="  118.152">  1  7  2 -1</clus>
<clus scale="   24.470">  1  5  2 -1</clus>
</clustering>
</event>
<event>
 9    1  0.1803370E-005  0.9484010E+02  0.7546771E-02  0.1299834E+00
          1   -1    0    0  502    0  0.00000000000E+00  0.00000000000E+00  0.30454726904E+03  0.30454726904E+03  0.00000000000E+00 0. -1.
         -1   -1    0    0    0  501 -0.00000000000E+00 -0.00000000000E+00 -0.37436467882E+03  0.37436467882E+03  0.00000000000E+00 0.  1.
         23    2    1    2    0    0 -0.21197963856E+02 -0.19599437818E+02 -0.33929099065E+03  0.34886574906E+03  0.75864635339E+02 0.  0.
         23    2    1    2    0    0  0.61981396981E+02  0.62161330992E+01  0.26512883216E+03  0.28690366638E+03  0.90222404409E+02 0.  0.
        -11    1    4    4    0    0  0.84707998078E+02  0.49503753848E+00  0.22520476683E+03  0.24060938677E+03  0.00000000000E+00 0. -1.
         11    1    4    4    0    0 -0.22726601097E+02  0.57210955607E+01  0.39924065328E+02  0.46294279605E+02  0.00000000000E+00 0.  1.
        -11    1    3    3    0    0  0.26415716652E+02  0.66469016869E+00 -0.74028432544E+02  0.78603057983E+02  0.00000000000E+00 0. -1.
         11    1    3    3    0    0 -0.47613680508E+02 -0.20264127986E+02 -0.26526255810E+03  0.27026269107E+03  0.00000000000E+00 0.  1.
         21    1    1    2  502  501 -0.40783433126E+02  0.13383304719E+02  0.43447487097E+01  0.43142532425E+02  0.00000000000E+00 0.  1.
<scales pt_clust_5="13000.00000" pt_clust_6="13000.00000" pt_clust_7="13000.00000" pt_clust_8="13000.00000" pt_clust_9="42.92320"></scales>
<clustering>
<clus scale="   42.923">  1  9  2 -1</clus>
<clus scale="   75.865">  7  8 -1 -1</clus>
<clus scale="   81.302">  2  7  1 -1</clus>
<clus scale="   90.222">  5  6 -1 -1</clus>
<clus scale="   42.923">  1  5  2 -1</clus>
</clustering>
</event>
<event>
 9    1  0.1803370E-005  0.1320116E+03  0.7546771E-02  0.1224771E+00
          1   -1    0    0  502    0  0.00000000000E+00  0.00000000000E+00  0.53430719656E+03  0.53430719656E+03  0.00000000000E+00 0. -1.
         -1   -1    0    0    0  501 -0.00000000000E+00 -0.00000000000E+00 -0.74018953172E+02  0.74018953172E+02  0.00000000000E+00 0.  1.
         23    2    1    2    0    0 -0.57867467037E+02 -0.11036426651E+03  0.65096126477E+02  0.16717602904E+03  0.90451113544E+02 0.  0.
         23    2    1    2    0    0 -0.66772985041E+01  0.54341582782E+02  0.17478107648E+03  0.20474877849E+03  0.91520728050E+02 0.  0.
        -13    1    4    4    0    0 -0.40683673315E+02  0.15528283246E+02  0.12760621127E+03  0.13483187312E+03  0.00000000000E+00 0. -1.
         13    1    4    4    0    0  0.34006374811E+02  0.38813299536E+02  0.47174865216E+02  0.69916905372E+02  0.00000000000E+00 0.  1.
        -13    1    3    3    0    0 -0.34717497457E+02 -0.19129886414E+02  0.61267777172E+02  0.72972581861E+02  0.00000000000E+00 0. -1.
         13    1    3    3    0    0 -0.23149969580E+02 -0.91234380093E+02  0.38283493044E+01  0.94203447181E+02  0.00000000000E+00 0.  1.
         21    1    1    2  502  501  0.64544765541E+02  0.56022683725E+02  0.22041104043E+03  0.23640134220E+03  0.00000000000E+00 0. -1.
<scales pt_clust_5="13000.00000" pt_clust_6="13000.00000" pt_clust_7="13000.00000" pt_clust_8="13000.00000" pt_clust_9="85.46676"></scales>
<clustering>
<clus scale="   85.467">  1  9  2 -1</clus>
<clus scale="   90.451">  7  8 -1 -1</clus>
<clus scale="   91.521">  5  6 -1 -1</clus>
<clus scale="  131.272">  2  7  1 -1</clus>
<clus scale="   85.467">  1  5  2 -1</clus>
</clustering>
</event>
<event>
 9    1  0.1803370E-005  0.1000591E+03  0.7546771E-02  0.1280485E+00
          1   -1    0    0  502    0  0.00000000000E+00  0.00000000000E+00  0.88872159069E+02  0.88872159069E+02  0.00000000000E+00 0. -1.
         -1   -1    0    0    0  501 -0.00000000000E+00 -0.00000000000E+00 -0.29773315428E+03  0.29773315428E+03  0.00000000000E+00 0.  1.
         23    2    1    2    0    0  0.30035376077E+02  0.42058229832E+02 -0.17568886248E+03  0.20512862417E+03  0.92412972800E+02 0.  0.
         23    2    1    2    0    0 -0.29021476467E+02  0.46297332964E+01 -0.72367622116E+02  0.12050882649E+03  0.91769406686E+02 0.  0.
        -13    1    3    3    0    0 -0.32866358783E+02  0.86366205362E+01 -0.46345207649E+02  0.57468835258E+02  0.00000000000E+00 0. -1.
         13    1    3    3    0    0  0.62901734860E+02  0.33421609296E+02 -0.12934365483E+03  0.14765978891E+03  0.00000000000E+00 0.  1.
        -13    1    4    4    0    0 -0.50869313116E+02  0.29746607185E+02 -0.28550357799E+02  0.65480306859E+02  0.00000000000E+00 0.  1.
         13    1    4    4    0    0  0.21847836649E+02 -0.25116873888E+02 -0.43817264317E+02  0.55028519627E+02  0.00000000000E+00 0. -1.
         21    1    1    2  502  501 -0.10138996099E+01 -0.46687963129E+02  0.39195489383E+02  0.60967862695E+02  0.00000000000E+00 0. -1.
<scales pt_clust_5="13000.00000" pt_clust_6="13000.00000" pt_clust_7="13000.00000" pt_clust_8="13000.00000" pt_clust_9="46.69897"></scales>
<clustering>
<clus scale="   46.699">  1  9  2 -1</clus>
<clus scale="   91.769">  7  8 -1 -1</clus>
<clus scale="   92.413">  5  6 -1 -1</clus>
<clus scale="   99.465">  1  7  2 -1</clus>
<clus scale="   46.699">  1  5  2 -1</clus>
</clustering>
</event>
<event>
 9    1  0.1803370E-005  0.1062139E+03  0.7546771E-02  0.1268617E+00
          2   -1    0    0  502    0  0.00000000000E+00  0.00000000000E+00  0.97940551373E+03  0.97940551373E+03  0.00000000000E+00 0. -1.
         -2   -1    0    0    0  501 -0.00000000000E+00 -0.00000000000E+00 -0.44203269111E+02  0.44203269111E+02  0.00000000000E+00 0.  1.
         23    2    1    2    0    0  0.15242453294E+02  0.32972231086E+02  0.86469557811E+02  0.13021202964E+03  0.90325455052E+02 0.  0.
         23    2    1    2    0    0  0.18572340850E+02 -0.11020601656E+03  0.24159074435E+03  0.28042869839E+03  0.88226238705E+02 0.  0.
        -11    1    3    3    0    0  0.36829490707E+02 -0.17887405221E+02  0.27039866057E+02  0.49066536536E+02  0.00000000000E+00 0.  1.
         11    1    3    3    0    0 -0.21587037413E+02  0.50859636307E+02  0.59429691754E+02  0.81145493107E+02  0.00000000000E+00 0. -1.
        -13    1    4    4    0    0 -0.30911142383E+00 -0.11936390131E+03  0.22014991194E+03  0.25042727530E+03  0.00000000000E+00 0.  1.
         13    1    4    4    0    0  0.18881452274E+02  0.91578847544E+01  0.21440832406E+02  0.30001423090E+02  0.00000000000E+00 0. -1.
         21    1    1    2  502  501 -0.33814794144E+02  0.77233785473E+02  0.60714194246E+03  0.61296805481E+03  0.00000000000E+00 0. -1.
<scales pt_clust_5="13000.00000" pt_clust_6="13000.00000" pt_clust_7="13000.00000" pt_clust_8="13000.00000" pt_clust_9="84.31191"></scales>
<clustering>
<clus scale="   84.312">  1  9  2 -1</clus>
<clus scale="   88.226">  7  8 -1 -1</clus>
<clus scale="   90.325">  5  6 -1 -1</clus>
<clus scale="  104.435">  1  7  2 -1</clus>
<clus scale="   84.312">  1  5  2 -1</clus>
</clustering>
</event>
<event>
 9    1  0.1803370E-005  0.1966597E+03  0.7546771E-02  0.1152790E+00
          1   -1    0    0  502    0  0.00000000000E+00  0.00000000000E+00  0.98756678063E+02  0.98756678063E+02  0.00000000000E+00 0. -1.
         -1   -1    0    0    0  501 -0.00000000000E+00 -0.00000000000E+00 -0.44359934757E+03  0.44359934757E+03  0.00000000000E+00 0.  1.
         23    2    1    2    0    0  0.17043431794E+03 -0.69153403171E+02 -0.20810791574E+03  0.29238849653E+03  0.91389706263E+02 0.  0.
         23    2    1    2    0    0 -0.14872385668E+03  0.59177308730E+02 -0.11934146912E+03  0.22041430696E+03  0.93377411857E+02 0.  0.
        -11    1    3    3    0    0  0.27595047743E+02 -0.53353647176E+02 -0.45348888975E+02  0.75263670241E+02  0.00000000000E+00 0.  1.
         11    1    3    3    0    0  0.14283927019E+03 -0.15799755995E+02 -0.16275902677E+03  0.21712482629E+03  0.00000000000E+00 0. -1.
        -13    1    4    4    0    0 -0.11061998110E+03  0.13780471316E+02 -0.11625557772E+03  0.16106533134E+03  0.00000000000E+00 0.  1.
         13    1    4    4    0    0 -0.38103875581E+02  0.45396837414E+02 -0.30858914036E+01  0.59348975621E+02  0.00000000000E+00 0. -1.
         21    1    1    2  502  501 -0.21710461255E+02  0.99760944412E+01 -0.17393284648E+02  0.29553222143E+02  0.00000000000E+00 0. -1.
<scales pt_clust_5="13000.00000" pt_clust_6="13000.00000" pt_clust_7="13000.00000" pt_clust_8="13000.00000" pt_clust_9="23.89281"></scales>
<clustering>
<clus scale="   23.893">  1  9  2 -1</clus>
<clus scale="   91.390">  5  6 -1 -1</clus>
<clus scale="   93.377">  7  8 -1 -1</clus>
<clus scale="  195.724">  2  5  1 -1</clus>
<clus scale="   23.893">  1  5  2 -1</clus>
</clustering>
</event>
<event>
 9    1  0.1803370E-005  0.9868213E+02  0.7546771E-02  0.1286386E+00
          3   -1    0    0  502    0  0.00000000000E+00  0.00000000000E+00  0.10697102736E+03  0.10697102736E+03  0.00000000000E+00 0. -1.
         -3   -1    0    0    0  501 -0.00000000000E+00 -0.00000000000E+00 -0.13240077596E+03  0.13240077596E+03  0.00000000000E+00 0.  1.
         23    2    1    2    0    0  0.48509619073E+02 -0.25629595215E+02 -0.93832418188E+01  0.10831855717E+03  0.92923653103E+02 0.  0.
         23    2    1    2    0    0 -0.81226799438E+01  0.15696391497E+02 -0.83425416167E+01  0.88755202839E+02  0.86576748581E+02 0.  0.
        -11    1    3    3    0    0  0.53787358401E+02  0.18884789850E+00 -0.40655236376E+02  0.67423763111E+02  0.00000000000E+00 0.  1.
         11    1    3    3    0    0 -0.52777393278E+01 -0.25818443114E+02  0.31271994557E+02  0.40894794055E+02  0.00000000000E+00 0. -1.
        -13    1    4    4    0    0  0.29718936338E+02 -0.61758530256E+01  0.20283664985E+02  0.36507306157E+02  0.00000000000E+00 0.  1.
         13    1    4    4    0    0 -0.37841616281E+02  0.21872244523E+02 -0.28626206602E+02  0.52247896682E+02  0.00000000000E+00 0. -1.
         21    1    1    2  502  501 -0.40386939129E+02  0.99332037181E+01 -0.77039651654E+01  0.42298043307E+02  0.00000000000E+00 0. -1.
<scales pt_clust_5="13000.00000" pt_clust_6="13000.00000" pt_clust_7="13000.00000" pt_clust_8="13000.00000" pt_clust_9="41.59054"></scales>
<clustering>
<clus scale="   41.591">  2  9  1 -1</clus>
<clus scale="   86.577">  7  8 -1 -1</clus>
<clus scale="   92.730">  1  7  2 -1</clus>
<clus scale="   92.924">  5  6 -1 -1</clus>
<clus scale="   92.730">  1  5  2 -1</clus>
</clustering>
</event>
<event>
 9    1  0.1803370E-005  0.9087337E+02  0.7546771E-02  0.1303720E+00
         -1   -1    0    0    0  501 -0.00000000000E+00  0.00000000000E+00  0.47153243149E+02  0.47153243149E+02  0.00000000000E+00 0.  1.
          1   -1    0    0  502    0  0.00000000000E+00 -0.00000000000E+00 -0.37197215895E+03  0.37197215895E+03  0.00000000000E+00 0. -1.
         23    2    1    2    0    0  0.24437059372E+02 -0.73510427921E+01 -0.23017247779E+02  0.94180336099E+02  0.87686568592E+02 0.  0.
         23    2    1    2    0    0 -0.47013777569E+01  0.31952768028E+02 -0.21569458547E+03  0.23324353014E+03  0.82675920400E+02 0.  0.
        -11    1    3    3    0    0 -0.27809710155E+02 -0.23581370055E+02 -0.11882007929E+02  0.38348964849E+02  0.00000000000E+00 0.  1.
         11    1    3    3    0    0  0.52246769527E+02  0.16230327263E+02 -0.11135239850E+02  0.55831371250E+02  0.00000000000E+00 0. -1.
        -13    1    4    4    0    0  0.27520313962E+02  0.45986264760E+02 -0.12764702949E+03  0.13844084789E+03  0.00000000000E+00 0. -1.
         13    1    4    4    0    0 -0.32221691719E+02 -0.14033496731E+02 -0.88047555986E+02  0.94802682255E+02  0.00000000000E+00 0.  1.
         21    1    1    2  502  501 -0.19735681615E+02 -0.24601725236E+02 -0.86107082551E+02  0.91701535858E+02  0.00000000000E+00 0.  1.
<scales pt_clust_5="13000.00000" pt_clust_6="13000.00000" pt_clust_7="13000.00000" pt_clust_8="13000.00000" pt_clust_9="31.53953"></scales>
<clustering>
<clus scale="   31.540">  2  9  1 -1</clus>
<clus scale="   82.676">  7  8 -1 -1</clus>
<clus scale="   86.048">  2  7  1 -1</clus>
<clus scale="   87.687">  5  6 -1 -1</clus>
<clus scale="   31.540">  2  5  1 -1</clus>
</clustering>
</event>
<event>
 9    1  0.1803370E-005  0.1203635E+03  0.7546771E-02  0.1242587E+00
         -3   -1    0    0    0  501 -0.00000000000E+00  0.00000000000E+00  0.80086409902E+02  0.80086409902E+02  0.00000000000E+00 0.  1.
          3   -1    0    0  502    0  0.00000000000E+00 -0.00000000000E+00 -0.33032223113E+03  0.33032223113E+03  0.00000000000E+00 0. -1.
         23    2    1    2    0    0  0.83268754289E+02  0.10783976740E+02  0.51293625272E+00  0.12376154409E+03  0.90921268672E+02 0.  0.
         23    2    1    2    0    0 -0.63043592696E+02  0.82303544031E+01 -0.19108071823E+03  0.22083769900E+03  0.90637823803E+02 0.  0.
        -13    1    3    3    0    0  0.51375309621E+01 -0.32568307449E+02 -0.82283420659E+01  0.33982267252E+02  0.00000000000E+00 0. -1.
         13    1    3    3    0    0  0.78131223327E+02  0.43352284189E+02  0.87412783186E+01  0.89779276838E+02  0.00000000000E+00 0.  1.
        -13    1    4    4    0    0  0.18424500418E+02 -0.80046956443E+01 -0.11927605080E+02  0.23362472706E+02  0.00000000000E+00 0.  1.
         13    1    4    4    0    0 -0.81468093114E+02  0.16235050047E+02 -0.17915311315E+03  0.19747522629E+03  0.00000000000E+00 0. -1.
         21    1    1    2  502  501 -0.20225161593E+02 -0.19014331143E+02 -0.59668039252E+02  0.65809397950E+02  0.00000000000E+00 0. -1.
<scales pt_clust_5="13000.00000" pt_clust_6="13000.00000" pt_clust_7="13000.00000" pt_clust_8="13000.00000" pt_clust_9="27.75972"></scales>
<clustering>
<clus scale="   27.760">  2  9  1 -1</clus>
<clus scale="   90.638">  7  8 -1 -1</clus>
<clus scale="   90.921">  5  6 -1 -1</clus>
<clus scale="  120.150">  2  7  1 -1</clus>
<clus scale="   27.760">  2  5  1 -1</clus>
</clustering>
</event>
<event>
 9    1  0.1803370E-005  0.9451562E+02  0.7546771E-02  0.1294396E+00
          2   -1    0    0  502    0  0.00000000000E+00  0.00000000000E+00  0.32960298788E+03  0.32960298788E+03  0.00000000000E+00 0. -1.
         -2   -1    0    0    0  501 -0.00000000000E+00 -0.00000000000E+00 -0.47827715937E+02  0.47827715937E+02  0.00000000000E+00 0.  1.
         23    2    1    2    0    0 -0.64160767034E+00 -0.47869477237E+01  0.41485678516E+02  0.99791400827E+02  0.90630765351E+02 0.  0.
         23    2    1    2    0    0 -0.65626163327E+01 -0.32469277087E+02  0.15710059063E+03  0.18620442279E+03  0.94308905217E+02 0.  0.
        -11    1    3    3    0    0  0.32118119614E+02 -0.33841050667E+02  0.25553024846E+02  0.53195370067E+02  0.00000000000E+00 0.  1.
         11    1    3    3    0    0 -0.32759727284E+02  0.29054102943E+02  0.15932653670E+02  0.46596030759E+02  0.00000000000E+00 0. -1.
        -11    1    4    4    0    0 -0.37989385992E+02 -0.46698383721E+02  0.12648703095E+03  0.14008176715E+03  0.00000000000E+00 0. -1.
         11    1    4    4    0    0  0.31426769659E+02  0.14229106634E+02  0.30613559677E+02  0.46122655636E+02  0.00000000000E+00 0.  1.
         21    1    1    2  502  501  0.72042240030E+01  0.37256224811E+02  0.83189002805E+02  0.91434880206E+02  0.00000000000E+00 0. -1.
<scales pt_clust_5="13000.00000" pt_clust_6="13000.00000" pt_clust_7="13000.00000" pt_clust_8="13000.00000" pt_clust_9="37.94637"></scales>
<clustering>
<clus scale="   37.946">  1  9  2 -1</clus>
<clus scale="   90.631">  5  6 -1 -1</clus>
<clus scale="   90.846">  2  5  1 -1</clus>
<clus scale="   94.309">  7  8 -1 -1</clus>
<clus scale="   37.946">  1  5  2 -1</clus>
</clustering>
</event>
<event>
 9    1  0.1803370E-005  0.1025103E+03  0.7546771E-02  0.1275170E+00
          1   -1    0    0  502    0  0.00000000000E+00  0.00000000000E+00  0.50994216563E+02  0.50994216563E+02  0.00000000000E+00 0. -1.
         -1   -1    0    0    0  501 -0.00000000000E+00 -0.00000000000E+00 -0.27612472774E+03  0.27612472774E+03  0.00000000000E+00 0.  1.
         23    2    1    2    0    0  0.41753378776E+02 -0.84583664921E+00 -0.13341915870E+03  0.16685362227E+03  0.91079082545E+02 0.  0.
         23    2    1    2    0    0 -0.54120856648E+02 -0.17938888244E+02 -0.84644717022E+02  0.13669080752E+03  0.90932820828E+02 0.  0.
        -11    1    4    4    0    0  0.17016608836E+02 -0.15963244558E+02  0.32945672793E+01  0.23563622953E+02  0.00000000000E+00 0. -1.
         11    1    4    4    0    0 -0.71137465485E+02 -0.19756436857E+01 -0.87939284302E+02  0.11312718456E+03  0.00000000000E+00 0.  1.
        -13    1    3    3    0    0  0.55538554551E+02  0.29626652844E+02 -0.10736792834E+03  0.12445939754E+03  0.00000000000E+00 0.  1.
         13    1    3    3    0    0 -0.13785175776E+02 -0.30472489493E+02 -0.26051230366E+02  0.42394224732E+02  0.00000000000E+00 0. -1.
         21    1    1    2  502  501  0.12367477872E+02  0.18784724893E+02 -0.70666354549E+01  0.23574514520E+02  0.00000000000E+00 0.  1.
<scales pt_clust_5="13000.00000" pt_clust_6="13000.00000" pt_clust_7="13000.00000" pt_clust_8="13000.00000" pt_clust_9="22.49045"></scales>
<clustering>
<clus scale="   22.490">  1  9  2 -1</clus>
<clus scale="   90.933">  5  6 -1 -1</clus>
<clus scale="   91.079">  7  8 -1 -1</clus>
<clus scale="  102.380">  1  5  2 -1</clus>
<clus scale="   22.490">  1  5  2 -1</clus>
</clustering>
</event>
<event>
 9    1  0.1803370E-005  0.1058171E+03  0.7546771E-02  0.1268759E+00
         -1   -1    0    0    0  501 -0.00000000000E+00  0.00000000000E+00  0.23916606909E+03  0.23916606909E+03  0.00000000000E+00 0.  1.
          1   -1    0    0  502    0  0.00000000000E+00 -0.00000000000E+00 -0.99784330118E+02  0.99784330118E+02  0.00000000000E+00 0. -1.
         23    2    1    2    0    0  0.54383640045E+02  0.18741923594E+02  0.17338878521E+03  0.20418698502E+03  0.91213014489E+02 0.  0.
         23    2    1    2    0    0 -0.33998505971E+02  0.48146385671E+01 -0.33641190751E+02  0.10360897370E+03  0.91782408785E+02 0.  0.
        -11    1    3    3    0    0  0.75119237670E+02  0.26740385416E+02  0.15852782233E+03  0.17745145402E+03  0.00000000000E+00 0.  1.
         11    1    3    3    0    0 -0.20735597625E+02 -0.79984618223E+01  0.14860962877E+02  0.26735531004E+02  0.00000000000E+00 0. -1.
        -11    1    4    4    0    0 -0.11292131989E+02  0.27438378662E+02 -0.56787693595E+02  0.64071983052E+02  0.00000000000E+00 0. -1.
         11    1    4    4    0    0 -0.22706373982E+02 -0.22623740095E+02  0.23146502844E+02  0.39536990644E+02  0.00000000000E+00 0.  1.
         21    1    1    2  502  501 -0.20385134074E+02 -0.23556562161E+02 -0.36585548376E+00  0.31154440491E+02  0.00000000000E+00 0.  1.
<scales pt_clust_5="13000.00000" pt_clust_6="13000.00000" pt_clust_7="13000.00000" pt_clust_8="13000.00000" pt_clust_9="31.15229"></scales>
<clustering>
<clus scale="   31.152">  2  9  1 -1</clus>
<clus scale="   91.213">  5  6 -1 -1</clus>
<clus scale="   91.782">  7  8 -1 -1</clus>
<clus scale="  105.324">  1  5  2 -1</clus>
<clus scale="   31.152">  2  5  1 -1</clus>
</clustering>
</event>
<event>
 9    1  0.1803370E-005  0.2131582E+03  0.7546771E-02  0.1140405E+00
          1   -1    0    0  502    0  0.00000000000E+00  0.00000000000E+00  0.75422491888E+03  0.75422491888E+03  0.00000000000E+00 0. -1.
         -1   -1    0    0    0  501 -0.00000000000E+00 -0.00000000000E+00 -0.15627146205E+03  0.15627146205E+03  0.00000000000E+00 0.  1.
         23    2    1    2    0    0 -0.13812376359E+03  0.12038831695E+03 -0.48952461148E+02  0.21744022136E+03  0.10635969860E+03 0.  0.
         23    2    1    2    0    0  0.13377317643E+03 -0.14159925886E+03  0.49886950200E+03  0.54344462217E+03  0.92280358148E+02 0.  0.
        -11    1    3    3    0    0 -0.14204387345E+03  0.69442578731E+02 -0.51484884495E+02  0.16628116868E+03  0.00000000000E+00 0.  1.
         11    1    3    3    0    0  0.39201098527E+01  0.50945738214E+02  0.25324233473E+01  0.51159052684E+02  0.00000000000E+00 0. -1.
        -11    1    4    4    0    0  0.31398453987E+02 -0.14464020045E+02  0.26177064245E+02  0.43362535455E+02  0.00000000000E+00 0.  1.
         11    1    4    4    0    0  0.10237472245E+03 -0.12713523882E+03  0.47269243776E+03  0.50008208672E+03  0.00000000000E+00 0. -1.
         21    1    1    2  502  501  0.43505871606E+01  0.21210941914E+02  0.14803641598E+03  0.14961153739E+03  0.00000000000E+00 0. -1.
<scales pt_clust_5="13000.00000" pt_clust_6="13000.00000" pt_clust_7="13000.00000" pt_clust_8="13000.00000" pt_clust_9="21.65252"></scales>
<clustering>
<clus scale="   21.653">  1  9  2 -1</clus>
<clus scale="   92.280">  7  8 -1 -1</clus>
<clus scale="  106.360">  5  6 -1 -1</clus>
<clus scale="  206.494">  1  7  2 -1</clus>
<clus scale="   21.653">  1  5  2 -1</clus>
</clustering>
</event>
<event>
 9    1  0.1803370E-005  0.1207568E+03  0.7546771E-02  0.1248521E+00
         -2   -1    0    0    0  501 -0.00000000000E+00  0.00000000000E+00  0.85386518530E+02  0.85386518530E+02  0.00000000000E+00 0.  1.
          2   -1    0    0  502    0  0.00000000000E+00 -0.00000000000E+00 -0.25051663459E+03  0.25051663459E+03  0.00000000000E+00 0. -1.
         23    2    1    2    0    0  0.41854789086E+02 -0.36268492747E+02 -0.11266510407E+02  0.12329599161E+03  0.10957983553E+03 0.  0.
         23    2    1    2    0    0 -0.21921772180E+02  0.40525619640E+02 -0.66643325516E+02  0.12303693454E+03  0.92595164460E+02 0.  0.
        -13    1    4    4    0    0 -0.29358526018E+01 -0.24052851644E+02 -0.47064015947E+02  0.52935625998E+02  0.00000000000E+00 0. -1.
         13    1    4    4    0    0 -0.18985919579E+02  0.64578471284E+02 -0.19579309569E+02  0.70101308538E+02  0.00000000000E+00 0.  1.
        -13    1    3    3    0    0  0.76679219991E+02 -0.41046574886E+02 -0.22323381537E+01  0.87002916169E+02  0.00000000000E+00 0.  1.
         13    1    3    3    0    0 -0.34824430906E+02  0.47780821392E+01 -0.90341722532E+01  0.36293075443E+02  0.00000000000E+00 0. -1.
         21    1    1    2  502  501 -0.19933016905E+02 -0.42571268934E+01 -0.87220280137E+02  0.89570226971E+02  0.00000000000E+00 0. -1.
<scales pt_clust_5="13000.00000" pt_clust_6="13000.00000" pt_clust_7="13000.00000" pt_clust_8="13000.00000" pt_clust_9="20.38255"></scales>
<clustering>
<clus scale="   20.383">  2  9  1 -1</clus>
<clus scale="   92.595">  5  6 -1 -1</clus>
<clus scale="  105.586">  2  5  1 -1</clus>
<clus scale="  109.580">  7  8 -1 -1</clus>
<clus scale="   20.383">  2  5  1 -1</clus>
</clustering>
</event>
<event>
 9    1  0.1803370E-005  0.1789895E+03  0.7546771E-02  0.1168896E+00
          3   -1    0    0  502    0  0.00000000000E+00  0.00000000000E+00  0.21485266520E+03  0.21485266520E+03  0.00000000000E+00 0. -1.
         -3   -1    0    0    0  501 -0.00000000000E+00 -0.00000000000E+00 -0.17946371360E+03  0.17946371360E+03  0.00000000000E+00 0.  1.
         23    2    1    2    0    0  0.44505149673E+01 -0.15456480716E+03 -0.45391329840E+01  0.17987088471E+03  0.91776057559E+02 0.  0.
         23    2    1    2    0    0  0.27046619183E+02  0.15188533036E+03  0.35273435983E+02  0.18249373655E+03  0.90879455369E+02 0.  0.
        -11    1    4    4    0    0  0.49678849962E+02  0.11026320265E+03 -0.39268939736E+01  0.12100158052E+03  0.00000000000E+00 0.  1.
         11    1    4    4    0    0 -0.22632230779E+02  0.41622127708E+02  0.39200329957E+02  0.61492156034E+02  0.00000000000E+00 0. -1.
        -13    1    3    3    0    0 -0.16651967380E+02 -0.15396742440E+03  0.84298785799E+01  0.15509454744E+03  0.00000000000E+00 0. -1.
         13    1    3    3    0    0  0.21102482347E+02 -0.59738276343E+00 -0.12969011564E+02  0.24776337266E+02  0.00000000000E+00 0.  1.
         21    1    1    2  502  501 -0.31497134150E+02  0.26794768035E+01  0.46546486045E+01  0.31951757530E+02  0.00000000000E+00 0.  1.
<scales pt_clust_5="13000.00000" pt_clust_6="13000.00000" pt_clust_7="13000.00000" pt_clust_8="13000.00000" pt_clust_9="31.61090"></scales>
<clustering>
<clus scale="   31.611">  1  9  2 -1</clus>
<clus scale="   90.879">  5  6 -1 -1</clus>
<clus scale="   91.776">  7  8 -1 -1</clus>
<clus scale="  178.531">  1  5  2 -1</clus>
<clus scale="   31.611">  1  5  2 -1</clus>
</clustering>
</event>
<event>
 9    1  0.1803370E-005  0.1305250E+03  0.7546771E-02  0.1227004E+00
         -4   -1    0    0    0  501 -0.00000000000E+00  0.00000000000E+00  0.22390896386E+03  0.22390896386E+03  0.00000000000E+00 0.  1.
          4   -1    0    0  502    0  0.00000000000E+00 -0.00000000000E+00 -0.12765243250E+03  0.12765243250E+03  0.00000000000E+00 0. -1.
         23    2    1    2    0    0 -0.96886068308E+02 -0.75643560564E+02  0.80090078118E+02  0.17254393754E+03  0.90819223083E+02 0.  0.
         23    2    1    2    0    0  0.33931815282E+02  0.49763139724E+02  0.58697454377E+01  0.11017665444E+03  0.92069012748E+02 0.  0.
        -11    1    4    4    0    0  0.10780076995E+02  0.62570657856E+02  0.33611881055E+02  0.71840488811E+02  0.00000000000E+00 0.  1.
         11    1    4    4    0    0  0.23151738287E+02 -0.12807518132E+02 -0.27742135617E+02  0.38336165628E+02  0.00000000000E+00 0. -1.
        -13    1    3    3    0    0 -0.93277340134E+02 -0.29249025435E+02  0.25926179550E+02  0.10113522857E+03  0.00000000000E+00 0.  1.
         13    1    3    3    0    0 -0.36087281743E+01 -0.46394535129E+02  0.54163898567E+02  0.71408708971E+02  0.00000000000E+00 0. -1.
         21    1    1    2  502  501  0.62954253026E+02  0.25880420840E+02  0.10296707798E+02  0.68840804385E+02  0.00000000000E+00 0. -1.
<scales pt_clust_5="13000.00000" pt_clust_6="13000.00000" pt_clust_7="13000.00000" pt_clust_8="13000.00000" pt_clust_9="68.06640"></scales>
<clustering>
<clus scale="   68.066">  2  9  1 -1</clus>
<clus scale="   90.819">  7  8 -1 -1</clus>
<clus scale="   92.069">  5  6 -1 -1</clus>
<clus scale="  129.646">  1  7  2 -1</clus>
<clus scale="   68.066">  2  5  1 -1</clus>
</clustering>
</event>
<event>
 9    1  0.1803370E-005  0.1394344E+03  0.7546771E-02  0.1214460E+00
         -1   -1    0    0    0  501 -0.00000000000E+00  0.00000000000E+00  0.10352087210E+03  0.10352087210E+03  0.00000000000E+00 0.  1.
          1   -1    0    0  502    0  0.00000000000E+00 -0.00000000000E+00 -0.36662267128E+03  0.36662267128E+03  0.00000000000E+00 0. -1.
         23    2    1    2    0    0  0.10866359628E+03 -0.37486832478E+01  0.24703588826E+02  0.14416040885E+03  0.91379026020E+02 0.  0.
         23    2    1    2    0    0 -0.89921304466E+02 -0.10666049253E+02 -0.25937917856E+03  0.28900871907E+03  0.89715527212E+02 0.  0.
        -13    1    4    4    0    0 -0.10002557929E+03 -0.29962939917E+02 -0.22842052294E+03  0.25115499115E+03  0.00000000000E+00 0. -1.
         13    1    4    4    0    0  0.10104274828E+02  0.19296890664E+02 -0.30958655624E+02  0.37853727916E+02  0.00000000000E+00 0.  1.
        -13    1    3    3    0    0  0.78016101731E+02 -0.99334371326E-01  0.59153920377E+02  0.97906630483E+02  0.00000000000E+00 0.  1.
         13    1    3    3    0    0  0.30647494552E+02 -0.36493488764E+01 -0.34450331550E+02  0.46253778369E+02  0.00000000000E+00 0. -1.
         21    1    1    2  502  501 -0.18742291817E+02  0.14414732501E+02 -0.28426209436E+02  0.36974415459E+02  0.00000000000E+00 0. -1.
<scales pt_clust_5="13000.00000" pt_clust_6="13000.00000" pt_clust_7="13000.00000" pt_clust_8="13000.00000" pt_clust_9="23.64441"></scales>
<clustering>
<clus scale="   23.644">  2  9  1 -1</clus>
<clus scale="   89.716">  5  6 -1 -1</clus>
<clus scale="   91.379">  7  8 -1 -1</clus>
<clus scale="  138.350">  2  5  1 -1</clus>
<clus scale="   23.644">  2  5  1 -1</clus>
</clustering>
</event>
<event>
 9    1  0.1803370E-005  0.1223190E+03  0.7546771E-02  0.1239504E+00
          1   -1    0    0  502    0  0.00000000000E+00  0.00000000000E+00  0.15599450679E+03  0.15599450679E+03  0.00000000000E+00 0. -1.
         -1   -1    0    0    0  501 -0.00000000000E+00 -0.00000000000E+00 -0.16063958939E+03  0.16063958939E+03  0.00000000000E+00 0.  1.
         23    2    1    2    0    0  0.66783940233E+02 -0.54355740665E+02 -0.68177906969E+02  0.14311495901E+03  0.91755235689E+02 0.  0.
         23    2    1    2    0    0 -0.34005182125E+02  0.67222729638E+02  0.24147786709E+02  0.12068744611E+03  0.91143273228E+02 0.  0.
        -11    1    4    4    0    0  0.24934397267E+02  0.38189551011E+02  0.30209112510E+02  0.54706091545E+02  0.00000000000E+00 0. -1.
         11    1    4    4    0    0 -0.58939579392E+02  0.29033178627E+02 -0.60613258008E+01  0.65981354567E+02  0.00000000000E+00 0.  1.
        -13    1    3    3    0    0  0.24401414770E+02 -0.42595560101E+02 -0.83228695634E+02  0.96627255783E+02  0.00000000000E+00 0.  1.
         13    1    3    3    0    0  0.42382525463E+02 -0.11760180564E+02  0.15050788665E+02  0.46487703223E+02  0.00000000000E+00 0. -1.
         21    1    1    2  502  501 -0.32778758108E+02 -0.12866988973E+02  0.39385037659E+02  0.52831691055E+02  0.00000000000E+00 0.  1.
<scales pt_clust_5="13000.00000" pt_clust_6="13000.00000" pt_clust_7="13000.00000" pt_clust_8="13000.00000" pt_clust_9="35.21372"></scales>
<clustering>
<clus scale="   35.214">  1  9  2 -1</clus>
<clus scale="   91.143">  5  6 -1 -1</clus>
<clus scale="   91.755">  7  8 -1 -1</clus>
<clus scale="  121.861">  1  5  2 -1</clus>
<clus scale="   35.214">  1  5  2 -1</clus>
</clustering>
</event>
<event>
 9    1  0.1803370E-005  0.1645861E+03  0.7546771E-02  0.1183797E+00
         -1   -1    0    0    0  501 -0.00000000000E+00  0.00000000000E+00  0.16806472689E+03  0.16806472689E+03  0.00000000000E+00 0.  1.
          1   -1    0    0  502    0  0.00000000000E+00 -0.00000000000E+00 -0.40540907310E+03  0.40540907310E+03  0.00000000000E+00 0. -1.
         23    2    1    2    0    0 -0.54498396655E+02  0.13653964072E+03  0.29274555011E+02  0.17487263161E+03  0.90057142912E+02 0.  0.
         23    2    1    2    0    0  0.13352165459E+03 -0.58096668393E+02 -0.10194620660E+03  0.19981718624E+03  0.91272250717E+02 0.  0.
        -11    1    4    4    0    0  0.16244301468E+02  0.15497174501E+02  0.71312902982E+01  0.23556210413E+02  0.00000000000E+00 0.  1.
         11    1    4    4    0    0  0.11727735312E+03 -0.73593842893E+02 -0.10907749690E+03  0.17626097582E+03  0.00000000000E+00 0. -1.
        -13    1    3    3    0    0 -0.30183487243E+02  0.10958595514E+03  0.58897145044E+02  0.12801952257E+03  0.00000000000E+00 0.  1.
         13    1    3    3    0    0 -0.24314909412E+02  0.26953685582E+02 -0.29622590034E+02  0.46853109037E+02  0.00000000000E+00 0. -1.
         21    1    1    2  502  501 -0.79023257937E+02 -0.78442972324E+02 -0.16467269462E+03  0.19878398214E+03  0.00000000000E+00 0. -1.
<scales pt_clust_5="13000.00000" pt_clust_6="13000.00000" pt_clust_7="13000.00000" pt_clust_8="13000.00000" pt_clust_9="111.34620"></scales>
<clustering>
<clus scale="   90.057">  7  8 -1 -1</clus>
<clus scale="   91.272">  5  6 -1 -1</clus>
<clus scale="  111.346">  2  9  1 -1</clus>
<clus scale="  163.915">  1  7  2 -1</clus>
<clus scale="  111.346">  2  5  1 -1</clus>
</clustering>
</event>
<event>
 9    1  0.1803370E-005  0.1597275E+03  0.7546771E-02  0.1189882E+00
          1   -1    0    0  502    0  0.00000000000E+00  0.00000000000E+00  0.33381721228E+03  0.33381721228E+03  0.00000000000E+00 0. -1.
         -1   -1    0    0    0  501 -0.00000000000E+00 -0.00000000000E+00 -0.55404032085E+03  0.55404032085E+03  0.00000000000E+00 0.  1.
         23    2    1    2    0    0  0.61351740617E+02 -0.10951642928E+03 -0.48256218160E+03  0.50685637628E+03  0.90990344035E+02 0.  0.
         23    2    1    2    0    0 -0.80771796457E+02  0.12648024632E+03  0.77488221524E+02  0.19436046739E+03  0.96178121204E+02 0.  0.
        -11    1    4    4    0    0 -0.92617271248E+01  0.32051530333E+02  0.67739431110E+02  0.75509672977E+02  0.00000000000E+00 0. -1.
         11    1    4    4    0    0 -0.71510069332E+02  0.94428715988E+02  0.97487904138E+01  0.11885079442E+03  0.00000000000E+00 0.  1.
        -13    1    3    3    0    0  0.59415439802E+02 -0.29314219418E+02 -0.30344372762E+03  0.31059235950E+03  0.00000000000E+00 0.  1.
         13    1    3    3    0    0  0.19363008146E+01 -0.80202209862E+02 -0.17911845398E+03  0.19626401678E+03  0.00000000000E+00 0. -1.
         21    1    1    2  502  501  0.19420055840E+02 -0.16963817041E+02  0.18485085150E+03  0.18664068945E+03  0.00000000000E+00 0. -1.
<scales pt_clust_5="13000.00000" pt_clust_6="13000.00000" pt_clust_7="13000.00000" pt_clust_8="13000.00000" pt_clust_9="25.78584"></scales>
<clustering>
<clus scale="   25.786">  1  9  2 -1</clus>
<clus scale="   90.990">  7  8 -1 -1</clus>
<clus scale="   96.178">  5  6 -1 -1</clus>
<clus scale="  156.659">  2  7  1 -1</clus>
<clus scale="   25.786">  1  5  2 -1</clus>
</clustering>
</event>
<event>
 9    1  0.1803370E-005  0.1862660E+03  0.7546771E-02  0.1162748E+00
         -2   -1    0    0    0  501 -0.00000000000E+00  0.00000000000E+00  0.40465612938E+03  0.40465612938E+03  0.00000000000E+00 0.  1.
          2   -1    0    0  502    0  0.00000000000E+00 -0.00000000000E+00 -0.13048417311E+03  0.13048417311E+03  0.00000000000E+00 0. -1.
         23    2    1    2    0    0  0.74865919002E+02 -0.14225878358E+03  0.25591073783E+03  0.31380556332E+03  0.84505375557E+02 0.  0.
         23    2    1    2    0    0 -0.10273015540E+03  0.13150118423E+03  0.16509949183E+02  0.19141470312E+03  0.92309067085E+02 0.  0.
        -13    1    3    3    0    0  0.42467624720E+02 -0.13765386194E+03  0.17589471544E+03  0.22735662686E+03  0.00000000000E+00 0.  1.
         13    1    3    3    0    0  0.32398294282E+02 -0.46049216393E+01  0.80016022390E+02  0.86448936459E+02  0.00000000000E+00 0. -1.
        -13    1    4    4    0    0 -0.14909595611E+02  0.24341329662E+02  0.41760592911E+02  0.50584024071E+02  0.00000000000E+00 0.  1.
         13    1    4    4    0    0 -0.87820559785E+02  0.10715985457E+03 -0.25250643727E+02  0.14083067905E+03  0.00000000000E+00 0. -1.
         21    1    1    2  502  501  0.27864236395E+02  0.10757599345E+02  0.17512692619E+01  0.29920036055E+02  0.00000000000E+00 0.  1.
<scales pt_clust_5="13000.00000" pt_clust_6="13000.00000" pt_clust_7="13000.00000" pt_clust_8="13000.00000" pt_clust_9="29.86874"></scales>
<clustering>
<clus scale="   29.869">  2  9  1 -1</clus>
<clus scale="   84.505">  5  6 -1 -1</clus>
<clus scale="   92.309">  7  8 -1 -1</clus>
<clus scale="  182.525">  1  5  2 -1</clus>
<clus scale="   29.869">  2  5  1 -1</clus>
</clustering>
</event>
<event>
 9    1  0.1803370E-005  0.2366596E+03  0.7546771E-02  0.1123038E+00
         -1   -1    0    0    0  501 -0.00000000000E+00  0.00000000000E+00  0.34182727618E+03  0.34182727618E+03  0.00000000000E+00 0.  1.
          1   -1    0    0  502    0  0.00000000000E+00 -0.00000000000E+00 -0.21726309960E+03  0.21726309960E+03  0.00000000000E+00 0. -1.
         23    2    1    2    0    0  0.10245833416E+03  0.21374158152E+03  0.29852506746E+02  0.25699479332E+03  0.94720524313E+02 0.  0.
         23    2    1    2    0    0 -0.11689303992E+03 -0.14619205671E+03  0.57715335501E+02  0.22373725306E+03  0.10812584439E+03 0.  0.
        -11    1    4    4    0    0 -0.32900997236E+02 -0.11577980292E+03  0.59765940505E+02  0.13438528948E+03  0.00000000000E+00 0.  1.
         11    1    4    4    0    0 -0.83992042682E+02 -0.30412253793E+02 -0.20506050039E+01  0.89351963580E+02  0.00000000000E+00 0. -1.
        -11    1    3    3    0    0  0.60960413886E+02  0.32393881887E+02  0.12461220553E+02  0.70148539989E+02  0.00000000000E+00 0.  1.
         11    1    3    3    0    0  0.41497920274E+02  0.18134769964E+03  0.17391286193E+02  0.18684625334E+03  0.00000000000E+00 0. -1.
         21    1    1    2  502  501  0.14434705758E+02 -0.67549524810E+02  0.36996334334E+02  0.78358329401E+02  0.00000000000E+00 0.  1.
<scales pt_clust_5="13000.00000" pt_clust_6="13000.00000" pt_clust_7="13000.00000" pt_clust_8="13000.00000" pt_clust_9="69.07459"></scales>
<clustering>
<clus scale="   69.075">  1  9  2 -1</clus>
<clus scale="   94.721">  7  8 -1 -1</clus>
<clus scale="  108.126">  5  6 -1 -1</clus>
<clus scale="  230.843">  1  7  2 -1</clus>
<clus scale="  236.660">  2  5  1 -1</clus>
</clustering>
</event>
<event>
 9    1  0.1803370E-005  0.9863938E+02  0.7546771E-02  0.1283638E+00
         -2   -1    0    0    0  501 -0.00000000000E+00  0.00000000000E+00  0.37177583280E+02  0.37177583280E+02  0.00000000000E+00 0.  1.
          2   -1    0    0  502    0  0.00000000000E+00 -0.00000000000E+00 -0.42004053832E+03  0.42004053832E+03  0.00000000000E+00 0. -1.
         23    2    1    2    0    0  0.36013797769E+02  0.21311707317E+02 -0.64241532654E+02  0.11855752902E+03  0.90430805984E+02 0.  0.
         23    2    1    2    0    0 -0.16113656981E+02 -0.18123196806E+02 -0.26792162820E+03  0.28410189636E+03  0.91344340027E+02 0.  0.
        -11    1    4    4    0    0 -0.53168546642E+02 -0.16201377490E+02 -0.18686793638E+03  0.19495898192E+03  0.00000000000E+00 0. -1.
         11    1    4    4    0    0  0.37054889661E+02 -0.19218193162E+01 -0.81053691813E+02  0.89142914434E+02  0.00000000000E+00 0.  1.
        -13    1    3    3    0    0 -0.16819502905E+01 -0.24734206309E+02  0.69725796551E+01  0.25753189814E+02  0.00000000000E+00 0. -1.
         13    1    3    3    0    0  0.37695748060E+02  0.46045913626E+02 -0.71214112309E+02  0.92804339206E+02  0.00000000000E+00 0.  1.
         21    1    1    2  502  501 -0.19900140788E+02 -0.31885105111E+01 -0.50699794184E+02  0.54558696218E+02  0.00000000000E+00 0. -1.
<scales pt_clust_5="13000.00000" pt_clust_6="13000.00000" pt_clust_7="13000.00000" pt_clust_8="13000.00000" pt_clust_9="20.15396"></scales>
<clustering>
<clus scale="   20.154">  2  9  1 -1</clus>
<clus scale="   90.431">  7  8 -1 -1</clus>
<clus scale="   91.344">  5  6 -1 -1</clus>
<clus scale="   97.794">  1  7  2 -1</clus>
<clus scale="   20.154">  2  5  1 -1</clus>
</clustering>
</event>
<event>
 9    1  0.1803370E-005  0.3146251E+03  0.7546771E-02  0.1079235E+00
         -1   -1    0    0    0  501 -0.00000000000E+00  0.00000000000E+00  0.63152856176E+02  0.63152856176E+02  0.00000000000E+00 0.  1.
          1   -1    0    0  502    0  0.00000000000E+00 -0.00000000000E+00 -0.21055476864E+04  0.21055476864E+04  0.00000000000E+00 0. -1.
         23    2    1    2    0    0 -0.17187522360E+03  0.20822705418E+03 -0.44500839307E+03  0.53397543326E+03  0.11915408027E+03 0.  0.
         23    2    1    2    0    0  0.18259279727E+03 -0.23657520955E+03 -0.15144522666E+04  0.15464269727E+04  0.92535152541E+02 0.  0.
        -13    1    3    3    0    0 -0.72295779777E+02  0.59953470612E+02 -0.65400249255E+02  0.11444776544E+03  0.00000000000E+00 0. -1.
         13    1    3    3    0    0 -0.99579443821E+02  0.14827358356E+03 -0.37960814381E+03  0.41952766782E+03  0.00000000000E+00 0.  1.
        -13    1    4    4    0    0  0.38356288525E+02 -0.10290192423E+03 -0.40217280313E+03  0.41689683911E+03  0.00000000000E+00 0.  1.
         13    1    4    4    0    0  0.14423650874E+03 -0.13367328532E+03 -0.11122794635E+04  0.11295301335E+04  0.00000000000E+00 0. -1.
         21    1    1    2  502  501 -0.10717573669E+02  0.28348155372E+02 -0.82934170557E+02  0.88298136698E+02  0.00000000000E+00 0. -1.
<scales pt_clust_5="13000.00000" pt_clust_6="13000.00000" pt_clust_7="13000.00000" pt_clust_8="13000.00000" pt_clust_9="30.30651"></scales>
<clustering>
<clus scale="   30.307">  1  9  2 -1</clus>
<clus scale="   92.535">  7  8 -1 -1</clus>
<clus scale="  119.154">  5  6 -1 -1</clus>
<clus scale="  305.539">  2  7  1 -1</clus>
<clus scale="  305.539">  2  5  1 -1</clus>
</clustering>
</event>
<event>
 9    1  0.1803370E-005  0.1253973E+03  0.7546771E-02  0.1234816E+00
          2   -1    0    0  502    0  0.00000000000E+00  0.00000000000E+00  0.12626531616E+03  0.12626531616E+03  0.00000000000E+00 0. -1.
         -2   -1    0    0    0  501 -0.00000000000E+00 -0.00000000000E+00 -0.21552088372E+03  0.21552088372E+03  0.00000000000E+00 0.  1.
         23    2    1    2    0    0  0.63469468238E+02 -0.37567788200E+02 -0.13359235277E+03  0.17723659258E+03  0.90145332236E+02 0.  0.
         23    2    1    2    0    0 -0.65406433719E+02  0.61066606909E+02  0.54260375390E+02  0.13896789590E+03  0.91437168051E+02 0.  0.
        -11    1    4    4    0    0 -0.55890381452E+01  0.67536992704E+02  0.29206034406E+02  0.73793462967E+02  0.00000000000E+00 0. -1.
         11    1    4    4    0    0 -0.59817395573E+02 -0.64703857951E+01  0.25054340984E+02  0.65174432929E+02  0.00000000000E+00 0.  1.
        -13    1    3    3    0    0  0.37489041482E+02 -0.66686479461E+02 -0.98791710475E+02  0.12494925703E+03  0.00000000000E+00 0.  1.
         13    1    3    3    0    0  0.25980426756E+02  0.29118691261E+02 -0.34800642293E+02  0.52287335553E+02  0.00000000000E+00 0. -1.
         21    1    1    2  502  501  0.19369654802E+01 -0.23498818709E+02 -0.99235901803E+01  0.25581711398E+02  0.00000000000E+00 0.  1.
<scales pt_clust_5="13000.00000" pt_clust_6="13000.00000" pt_clust_7="13000.00000" pt_clust_8="13000.00000" pt_clust_9="23.57851"></scales>
<clustering>
<clus scale="   23.579">  2  9  1 -1</clus>
<clus scale="   90.145">  7  8 -1 -1</clus>
<clus scale="   91.437">  5  6 -1 -1</clus>
<clus scale="  124.458">  2  7  1 -1</clus>
<clus scale="  125.397">  1  5  2 -1</clus>
</clustering>
</event>
<event>
 9    1  0.1803370E-005  0.1123530E+03  0.7546771E-02  0.1257448E+00
         -1   -1    0    0    0  501 -0.00000000000E+00  0.00000000000E+00  0.60720866574E+02  0.60720866574E+02  0.00000000000E+00 0.  1.
          1   -1    0    0  502    0  0.00000000000E+00 -0.00000000000E+00 -0.34960021283E+03  0.34960021283E+03  0.00000000000E+00 0. -1.
         23    2    1    2    0    0  0.20583359384E+02  0.58561663608E+02 -0.27333060274E+02  0.11456302109E+03  0.92327929091E+02 0.  0.
         23    2    1    2    0    0 -0.43529511161E+02 -0.58355464907E+02 -0.21635100750E+03  0.24507096334E+03  0.89173090113E+02 0.  0.
        -13    1    4    4    0    0  0.11249234115E+02 -0.58304540707E+02 -0.96693560105E+02  0.11347074205E+03  0.00000000000E+00 0.  1.
         13    1    4    4    0    0 -0.54778745275E+02 -0.50924199718E-01 -0.11965744739E+03  0.13160022129E+03  0.00000000000E+00 0. -1.
        -13    1    3    3    0    0  0.24876954502E+02  0.11742416668E+02 -0.53933500159E+02  0.60543948119E+02  0.00000000000E+00 0. -1.
         13    1    3    3    0    0 -0.42935951181E+01  0.46819246940E+02  0.26600439884E+02  0.54019072975E+02  0.00000000000E+00 0.  1.
         21    1    1    2  502  501  0.22946151777E+02 -0.20619870090E+00 -0.45195278482E+02  0.50687094968E+02  0.00000000000E+00 0. -1.
<scales pt_clust_5="13000.00000" pt_clust_6="13000.00000" pt_clust_7="13000.00000" pt_clust_8="13000.00000" pt_clust_9="22.94708"></scales>
<clustering>
<clus scale="   22.947">  2  9  1 -1</clus>
<clus scale="   89.173">  5  6 -1 -1</clus>
<clus scale="   92.328">  7  8 -1 -1</clus>
<clus scale="  109.775">  2  5  1 -1</clus>
<clus scale="   22.947">  2  5  1 -1</clus>
</clustering>
</event>
<event>
 9    1  0.1803370E-005  0.1138234E+03  0.7546771E-02  0.1253805E+00
          1   -1    0    0  502    0  0.00000000000E+00  0.00000000000E+00  0.25617714232E+03  0.25617714232E+03  0.00000000000E+00 0. -1.
         -1   -1    0    0    0  501 -0.00000000000E+00 -0.00000000000E+00 -0.65511762541E+02  0.65511762541E+02  0.00000000000E+00 0.  1.
         23    2    1    2    0    0 -0.34179683067E+02 -0.68131896469E+02  0.58525710613E+02  0.13247621951E+03  0.91183791771E+02 0.  0.
         23    2    1    2    0    0  0.17979625784E+02  0.56387134359E+02  0.84027294356E+02  0.13710527798E+03  0.90744119309E+02 0.  0.
        -11    1    4    4    0    0  0.13332635849E+02 -0.21794980043E+02  0.39411811166E+02  0.46968832146E+02  0.00000000000E+00 0. -1.
         11    1    4    4    0    0  0.46469899344E+01  0.78182114401E+02  0.44615483190E+02  0.90136445836E+02  0.00000000000E+00 0.  1.
        -13    1    3    3    0    0 -0.64830727063E+02 -0.56143368846E+02  0.39054096177E+02  0.94235468191E+02  0.00000000000E+00 0.  1.
         13    1    3    3    0    0  0.30651043996E+02 -0.11988527623E+02  0.19471614435E+02  0.38240751318E+02  0.00000000000E+00 0. -1.
         21    1    1    2  502  501  0.16200057283E+02  0.11744762110E+02  0.48112374806E+02  0.52107407367E+02  0.00000000000E+00 0.  1.
<scales pt_clust_5="13000.00000" pt_clust_6="13000.00000" pt_clust_7="13000.00000" pt_clust_8="13000.00000" pt_clust_9="20.00953"></scales>
<clustering>
<clus scale="   20.010">  1  9  2 -1</clus>
<clus scale="   90.744">  5  6 -1 -1</clus>
<clus scale="   91.184">  7  8 -1 -1</clus>
<clus scale="  113.471">  1  5  2 -1</clus>
<clus scale="   20.010">  1  5  2 -1</clus>
</clustering>
</event>
<event>
 9    1  0.1803370E-005  0.1100026E+03  0.7546771E-02  0.1266660E+00
         -1   -1    0    0    0  501 -0.00000000000E+00  0.00000000000E+00  0.45245013042E+03  0.45245013042E+03  0.00000000000E+00 0.  1.
          1   -1    0    0  502    0  0.00000000000E+00 -0.00000000000E+00 -0.49799711305E+02  0.49799711305E+02  0.00000000000E+00 0. -1.
         23    2    1    2    0    0 -0.49684313630E+01  0.34616750695E+02  0.27688807484E+03  0.29369627187E+03  0.91473981994E+02 0.  0.
         23    2    1    2    0    0  0.47900126338E+02 -0.18422358649E+02  0.68308267353E+02  0.13502561788E+03  0.10455664825E+03 0.  0.
        -13    1    3    3    0    0  0.26677850191E+02  0.53281120196E+02  0.19595192937E+03  0.20481148426E+03  0.00000000000E+00 0.  1.
         13    1    3    3    0    0 -0.31646281554E+02 -0.18664369500E+02  0.80936145473E+02  0.88884787614E+02  0.00000000000E+00 0. -1.
        -13    1    4    4    0    0  0.79796191216E+02 -0.10286707991E+02  0.33600826903E+02  0.87190963192E+02  0.00000000000E+00 0. -1.
         13    1    4    4    0    0 -0.31896064878E+02 -0.81356506577E+01  0.34707440451E+02  0.47834654686E+02  0.00000000000E+00 0.  1.
         21    1    1    2  502  501 -0.42931694975E+02 -0.16194392047E+02  0.57454076923E+02  0.73527951979E+02  0.00000000000E+00 0. -1.
<scales pt_clust_5="13000.00000" pt_clust_6="13000.00000" pt_clust_7="13000.00000" pt_clust_8="13000.00000" pt_clust_9="45.88452"></scales>
<clustering>
<clus scale="   45.885">  2  9  1 -1</clus>
<clus scale="   91.474">  5  6 -1 -1</clus>
<clus scale="   97.652">  1  5  2 -1</clus>
<clus scale="  104.557">  7  8 -1 -1</clus>
<clus scale="   45.885">  2  5  1 -1</clus>
</clustering>
</event>
<event>
 9    1  0.1803370E-005  0.1235924E+03  0.7546771E-02  0.1239546E+00
          1   -1    0    0  502    0  0.00000000000E+00  0.00000000000E+00  0.60579468862E+03  0.60579468862E+03  0.00000000000E+00 0. -1.
         -1   -1    0    0    0  501 -0.00000000000E+00 -0.00000000000E+00 -0.38984949081E+02  0.38984949081E+02  0.00000000000E+00 0.  1.
         23    2    1    2    0    0  0.36803063199E+02  0.85846227955E+02  0.17781949993E+03  0.22019734061E+03  0.90238871550E+02 0.  0.
         23    2    1    2    0    0  0.12557280967E+02 -0.80164906015E+02  0.22169213971E+03  0.25006188217E+03  0.82458732985E+02 0.  0.
        -11    1    3    3    0    0  0.18242462400E+01  0.88720123313E+02  0.93708217096E+02  0.12905742174E+03  0.00000000000E+00 0.  1.
         11    1    3    3    0    0  0.34978816959E+02 -0.28738953573E+01  0.84111282837E+02  0.91139918866E+02  0.00000000000E+00 0. -1.
        -13    1    4    4    0    0  0.43964498000E+02 -0.27276783909E+02  0.76239481871E+02  0.92137715518E+02  0.00000000000E+00 0. -1.
         13    1    4    4    0    0 -0.31407217033E+02 -0.52888122105E+02  0.14545265784E+03  0.15792416665E+03  0.00000000000E+00 0.  1.
         21    1    1    2  502  501 -0.49360344166E+02 -0.56813219407E+01  0.16729809990E+03  0.17452041493E+03  0.00000000000E+00 0.  1.
<scales pt_clust_5="13000.00000" pt_clust_6="13000.00000" pt_clust_7="13000.00000" pt_clust_8="13000.00000" pt_clust_9="49.68623"></scales>
<clustering>
<clus scale="   49.686">  1  9  2 -1</clus>
<clus scale="   82.459">  7  8 -1 -1</clus>
<clus scale="   90.239">  5  6 -1 -1</clus>
<clus scale="  118.032">  1  7  2 -1</clus>
<clus scale="   49.686">  1  5  2 -1</clus>
</clustering>
</event>
<event>
 9    1  0.1803370E-005  0.1552889E+03  0.7546771E-02  0.1194203E+00
          2   -1    0    0  502    0  0.00000000000E+00  0.00000000000E+00  0.28068125188E+03  0.28068125188E+03  0.00000000000E+00 0. -1.
         -2   -1    0    0    0  501 -0.00000000000E+00 -0.00000000000E+00 -0.11153443185E+03  0.11153443185E+03  0.00000000000E+00 0.  1.
         23    2    1    2    0    0  0.86332540778E+02 -0.70352608220E+02  0.53474288402E+02  0.15324592541E+03  0.90675338724E+02 0.  0.
         23    2    1    2    0    0 -0.11052210191E+03  0.93221853723E+02  0.74399638835E+02  0.18594534001E+03  0.90193759156E+02 0.  0.
        -11    1    4    4    0    0 -0.75567497032E+02  0.90427554564E+02  0.17542157529E+02  0.11914409982E+03  0.00000000000E+00 0.  1.
         11    1    4    4    0    0 -0.34954604883E+02  0.27942991582E+01  0.56857481306E+02  0.66801240189E+02  0.00000000000E+00 0. -1.
        -11    1    3    3    0    0  0.65307106783E+02  0.30201326296E+01  0.37146935174E+02  0.75193312138E+02  0.00000000000E+00 0.  1.
         11    1    3    3    0    0  0.21025433995E+02 -0.73372740849E+02  0.16327353228E+02  0.78052613267E+02  0.00000000000E+00 0. -1.
         21    1    1    2  502  501  0.24189561137E+02 -0.22869245503E+02  0.41272892795E+02  0.53024418314E+02  0.00000000000E+00 0. -1.
<scales pt_clust_5="13000.00000" pt_clust_6="13000.00000" pt_clust_7="13000.00000" pt_clust_8="13000.00000" pt_clust_9="33.28870"></scales>
<clustering>
<clus scale="   33.289">  1  9  2 -1</clus>
<clus scale="   90.194">  5  6 -1 -1</clus>
<clus scale="   90.675">  7  8 -1 -1</clus>
<clus scale="  155.008">  1  5  2 -1</clus>
<clus scale="   33.289">  1  5  2 -1</clus>
</clustering>
</event>
<event>
 9    1  0.1803370E-005  0.1055412E+03  0.7546771E-02  0.1269128E+00
          1   -1    0    0  502    0  0.00000000000E+00  0.00000000000E+00  0.15986236999E+03  0.15986236999E+03  0.00000000000E+00 0. -1.
         -1   -1    0    0    0  501 -0.00000000000E+00 -0.00000000000E+00 -0.16561606196E+03  0.16561606196E+03  0.00000000000E+00 0.  1.
         23    2    1    2    0    0 -0.39580130497E+02 -0.26020970656E+02 -0.99766372777E+02  0.14319275270E+03  0.91143610004E+02 0.  0.
         23    2    1    2    0    0  0.62934737790E+02  0.40873331160E+02  0.45920405347E+02  0.12679786749E+03  0.91310487638E+02 0.  0.
        -11    1    3    3    0    0 -0.13595410793E+02  0.16711583188E+02  0.91013051849E+01  0.23386875878E+02  0.00000000000E+00 0.  1.
         11    1    3    3    0    0 -0.25984719704E+02 -0.42732553844E+02 -0.10886767796E+03  0.11980587682E+03  0.00000000000E+00 0. -1.
        -13    1    4    4    0    0  0.22940437217E+02 -0.12636587642E+02 -0.19993369092E+02  0.32949686108E+02  0.00000000000E+00 0.  1.
         13    1    4    4    0    0  0.39994300573E+02  0.53509918803E+02  0.65913774438E+02  0.93848181385E+02  0.00000000000E+00 0. -1.
         21    1    1    2  502  501 -0.23354607293E+02 -0.14852360504E+02  0.48092275467E+02  0.55487811760E+02  0.00000000000E+00 0. -1.
<scales pt_clust_5="13000.00000" pt_clust_6="13000.00000" pt_clust_7="13000.00000" pt_clust_8="13000.00000" pt_clust_9="27.67725"></scales>
<clustering>
<clus scale="   27.677">  1  9  2 -1</clus>
<clus scale="   91.144">  5  6 -1 -1</clus>
<clus scale="   91.310">  7  8 -1 -1</clus>
<clus scale="  105.397">  2  5  1 -1</clus>
<clus scale="   27.677">  1  5  2 -1</clus>
</clustering>
</event>
<event>
 9    1  0.1803370E-005  0.1264299E+03  0.7546771E-02  0.1232975E+00
         -1   -1    0    0    0  501 -0.00000000000E+00  0.00000000000E+00  0.23444999991E+03  0.23444999991E+03  0.00000000000E+00 0.  1.
          1   -1    0    0  502    0  0.00000000000E+00 -0.00000000000E+00 -0.15559118925E+03  0.15559118925E+03  0.00000000000E+00 0. -1.
         23    2    1    2    0    0 -0.71116035470E+02  0.76653044148E+01  0.67063567283E+02  0.13357940931E+03  0.90717634134E+02 0.  0.
         23    2    1    2    0    0  0.10671427639E+03  0.17952520223E+02  0.89363743014E+02  0.16735297091E+03  0.91164184517E+02 0.  0.
        -13    1    3    3    0    0 -0.51834701394E+02 -0.36667456472E+02  0.21192637071E+02  0.66936286861E+02  0.00000000000E+00 0. -1.
         13    1    3    3    0    0 -0.19281334076E+02  0.44332760887E+02  0.45870930212E+02  0.66643122452E+02  0.00000000000E+00 0.  1.
        -13    1    4    4    0    0  0.47368685815E+02  0.53250527293E+02  0.34610568475E+02  0.79229429526E+02  0.00000000000E+00 0.  1.
         13    1    4    4    0    0  0.59345590574E+02 -0.35298007070E+02  0.54753174539E+02  0.88123541382E+02  0.00000000000E+00 0. -1.
         21    1    1    2  502  501 -0.35598240919E+02 -0.25617824637E+02 -0.77568499633E+02  0.89108808942E+02  0.00000000000E+00 0. -1.
<scales pt_clust_5="13000.00000" pt_clust_6="13000.00000" pt_clust_7="13000.00000" pt_clust_8="13000.00000" pt_clust_9="43.85781"></scales>
<clustering>
<clus scale="   43.858">  2  9  1 -1</clus>
<clus scale="   90.718">  5  6 -1 -1</clus>
<clus scale="   91.164">  7  8 -1 -1</clus>
<clus scale="  126.108">  1  5  2 -1</clus>
<clus scale="   43.858">  2  5  1 -1</clus>
</clustering>
</event>
<event>
 9    1  0.1803370E-005  0.1140879E+03  0.7546771E-02  0.1256359E+00
         -3   -1    0    0    0  501 -0.00000000000E+00  0.00000000000E+00  0.13762937229E+03  0.13762937229E+03  0.00000000000E+00 0.  1.
          3   -1    0    0  502    0  0.00000000000E+00 -0.00000000000E+00 -0.16305731503E+03  0.16305731503E+03  0.00000000000E+00 0. -1.
         23    2    1    2    0    0  0.57287882481E+02  0.38739812060E+01  0.33536893462E+02  0.11433551911E+03  0.93010636477E+02 0.  0.
         23    2    1    2    0    0 -0.76758845273E+02 -0.10125426069E+02  0.95253963128E+01  0.11487312330E+03  0.84324709910E+02 0.  0.
        -11    1    4    4    0    0 -0.71972492783E+02  0.27007458302E+02  0.92907703480E+01  0.77432299043E+02  0.00000000000E+00 0. -1.
         11    1    4    4    0    0 -0.47863524899E+01 -0.37132884371E+02  0.23462596475E+00  0.37440824259E+02  0.00000000000E+00 0.  1.
        -13    1    3    3    0    0  0.37716599822E+02 -0.27177945748E+02  0.54842654488E+02  0.71895058165E+02  0.00000000000E+00 0.  1.
         13    1    3    3    0    0  0.19571282660E+02  0.31051926954E+02 -0.21305761026E+02  0.42440460947E+02  0.00000000000E+00 0. -1.
         21    1    1    2  502  501  0.19470962792E+02  0.62514448627E+01 -0.68490232514E+02  0.71478044914E+02  0.00000000000E+00 0. -1.
<scales pt_clust_5="13000.00000" pt_clust_6="13000.00000" pt_clust_7="13000.00000" pt_clust_8="13000.00000" pt_clust_9="20.44991"></scales>
<clustering>
<clus scale="   20.450">  2  9  1 -1</clus>
<clus scale="   84.325">  5  6 -1 -1</clus>
<clus scale="   93.011">  7  8 -1 -1</clus>
<clus scale="  107.125">  2  5  1 -1</clus>
<clus scale="   20.450">  2  5  1 -1</clus>
</clustering>
</event>
<event>
 9    1  0.1803370E-005  0.9322465E+02  0.7546771E-02  0.1311733E+00
          2   -1    0    0  502    0  0.00000000000E+00  0.00000000000E+00  0.12247736739E+03  0.12247736739E+03  0.00000000000E+00 0. -1.
         -2   -1    0    0    0  501 -0.00000000000E+00 -0.00000000000E+00 -0.79612398210E+02  0.79612398210E+02  0.00000000000E+00 0.  1.
         23    2    1    2    0    0 -0.29432876929E+01 -0.62515338226E+01 -0.18194210734E+02  0.71513433593E+02  0.68814222821E+02 0.  0.
         23    2    1    2    0    0 -0.12407971458E+02 -0.76477570000E+01  0.54118130296E+02  0.10873532442E+03  0.93178070414E+02 0.  0.
        -13    1    3    3    0    0  0.29911965071E+01  0.28877651131E+02 -0.20917184692E+02  0.35782602013E+02  0.00000000000E+00 0.  1.
         13    1    3    3    0    0 -0.59344842000E+01 -0.35129184954E+02  0.27229739580E+01  0.35730831580E+02  0.00000000000E+00 0. -1.
        -13    1    4    4    0    0  0.68617851034E+00 -0.37978622329E+02  0.63850567346E+02  0.74294963123E+02  0.00000000000E+00 0. -1.
         13    1    4    4    0    0 -0.13094149968E+02  0.30330865329E+02 -0.97324370508E+01  0.34440361292E+02  0.00000000000E+00 0.  1.
         21    1    1    2  502  501  0.15351259150E+02  0.13899290823E+02  0.69410496225E+01  0.21841007594E+02  0.00000000000E+00 0.  1.
<scales pt_clust_5="13000.00000" pt_clust_6="13000.00000" pt_clust_7="13000.00000" pt_clust_8="13000.00000" pt_clust_9="20.70873"></scales>
<clustering>
<clus scale="   20.709">  1  9  2 -1</clus>
<clus scale="   68.814">  5  6 -1 -1</clus>
<clus scale="   68.877">  2  5  1 -1</clus>
<clus scale="   93.178">  7  8 -1 -1</clus>
<clus scale="   20.709">  1  5  2 -1</clus>
</clustering>
</event>
<event>
 9    1  0.1803370E-005  0.2010091E+03  0.7546771E-02  0.1149394E+00
         -1   -1    0    0    0  501 -0.00000000000E+00  0.00000000000E+00  0.56469033888E+03  0.56469033888E+03  0.00000000000E+00 0.  1.
          1   -1    0    0  502    0  0.00000000000E+00 -0.00000000000E+00 -0.17218573246E+03  0.17218573246E+03  0.00000000000E+00 0. -1.
         23    2    1    2    0    0 -0.16983168505E+03 -0.53941870045E+02  0.46117943240E+03  0.50295442045E+03  0.92326342873E+02 0.  0.
         23    2    1    2    0    0  0.16567779542E+03  0.75264159772E+02 -0.59100317072E+02  0.21018210458E+03  0.87004850247E+02 0.  0.
        -11    1    3    3    0    0 -0.13493090973E+03 -0.10253197888E+02  0.38757236912E+03  0.41051652802E+03  0.00000000000E+00 0.  1.
         11    1    3    3    0    0 -0.34900775320E+02 -0.43688672157E+02  0.73607063276E+02  0.92437892430E+02  0.00000000000E+00 0. -1.
        -13    1    4    4    0    0  0.60188240602E+02  0.71383383149E+02 -0.45112851893E+02  0.10369851061E+03  0.00000000000E+00 0.  1.
         13    1    4    4    0    0  0.10548955482E+03  0.38807766228E+01 -0.13987465179E+02  0.10648359397E+03  0.00000000000E+00 0. -1.
         21    1    1    2  502  501  0.41538896288E+01 -0.21322289727E+02 -0.95745089121E+01  0.23739546313E+02  0.00000000000E+00 0.  1.
<scales pt_clust_5="13000.00000" pt_clust_6="13000.00000" pt_clust_7="13000.00000" pt_clust_8="13000.00000" pt_clust_9="21.72314"></scales>
<clustering>
<clus scale="   21.723">  2  9  1 -1</clus>
<clus scale="   87.005">  7  8 -1 -1</clus>
<clus scale="   92.326">  5  6 -1 -1</clus>
<clus scale="  198.621">  2  7  1 -1</clus>
<clus scale="   21.723">  2  5  1 -1</clus>
</clustering>
</event>
<event>
 9    1  0.1803370E-005  0.1116384E+03  0.7546771E-02  0.1257797E+00
          4   -1    0    0  502    0  0.00000000000E+00  0.00000000000E+00  0.14839678013E+03  0.14839678013E+03  0.00000000000E+00 0. -1.
         -4   -1    0    0    0  501 -0.00000000000E+00 -0.00000000000E+00 -0.11397765847E+03  0.11397765847E+03  0.00000000000E+00 0.  1.
         23    2    1    2    0    0 -0.53413224842E+02 -0.40709475702E+01  0.12948807530E+02  0.10562126489E+03  0.90103467075E+02 0.  0.
         23    2    1    2    0    0  0.73537471910E+02  0.31617349446E+02  0.13717321239E+02  0.12176891331E+03  0.90730848043E+02 0.  0.
        -11    1    4    4    0    0  0.72247644843E+01  0.47858579728E+02 -0.10133144543E+02  0.49450192050E+02  0.00000000000E+00 0.  1.
         11    1    4    4    0    0  0.66312707426E+02 -0.16241230282E+02  0.23850465781E+02  0.72318721263E+02  0.00000000000E+00 0. -1.
        -13    1    3    3    0    0 -0.71640390078E+02 -0.26053176024E+02  0.10681080875E+02  0.76975313965E+02  0.00000000000E+00 0. -1.
         13    1    3    3    0    0  0.18227165236E+02  0.21982228454E+02  0.22677266548E+01  0.28645950927E+02  0.00000000000E+00 0.  1.
         21    1    1    2  502  501 -0.20124247068E+02 -0.27546401876E+02  0.77529928985E+01  0.34984260393E+02  0.00000000000E+00 0. -1.
<scales pt_clust_5="13000.00000" pt_clust_6="13000.00000" pt_clust_7="13000.00000" pt_clust_8="13000.00000" pt_clust_9="34.11436"></scales>
<clustering>
<clus scale="   34.114">  1  9  2 -1</clus>
<clus scale="   90.103">  7  8 -1 -1</clus>
<clus scale="   90.731">  5  6 -1 -1</clus>
<clus scale="  111.129">  2  7  1 -1</clus>
<clus scale="   34.114">  1  5  2 -1</clus>
</clustering>
</event>
<event>
 9    1  0.1803370E-005  0.1360469E+03  0.7546771E-02  0.1223234E+00
         -1   -1    0    0    0  501 -0.00000000000E+00  0.00000000000E+00  0.29127102969E+02  0.29127102969E+02  0.00000000000E+00 0.  1.
          1   -1    0    0  502    0  0.00000000000E+00 -0.00000000000E+00 -0.84965377714E+03  0.84965377714E+03  0.00000000000E+00 0. -1.
         23    2    1    2    0    0  0.26430359440E+02  0.76714440304E+02 -0.20925834860E+03  0.24944764364E+03  0.10886414107E+03 0.  0.
         23    2    1    2    0    0 -0.42390902259E+01 -0.84831365629E+02 -0.51695699463E+03  0.53210688175E+03  0.93160446725E+02 0.  0.
        -11    1    4    4    0    0  0.41642425189E+02 -0.33431332284E+02 -0.16358750288E+03  0.17208316784E+03  0.00000000000E+00 0.  1.
         11    1    4    4    0    0 -0.45881515415E+02 -0.51400033345E+02 -0.35336949174E+03  0.36002371391E+03  0.00000000000E+00 0. -1.
        -13    1    3    3    0    0 -0.25911714185E+02  0.61803577061E+02 -0.16884791368E+03  0.18166099478E+03  0.00000000000E+00 0.  1.
         13    1    3    3    0    0  0.52342073625E+02  0.14910863243E+02 -0.40410434914E+02  0.67786648862E+02  0.00000000000E+00 0. -1.
         21    1    1    2  502  501 -0.22191269214E+02  0.81169253252E+01 -0.94311330950E+02  0.97226354717E+02  0.00000000000E+00 0. -1.
<scales pt_clust_5="13000.00000" pt_clust_6="13000.00000" pt_clust_7="13000.00000" pt_clust_8="13000.00000" pt_clust_9="23.62915"></scales>
<clustering>
<clus scale="   23.629">  2  9  1 -1</clus>
<clus scale="   93.160">  5  6 -1 -1</clus>
<clus scale="  108.864">  7  8 -1 -1</clus>
<clus scale="  123.839">  2  5  1 -1</clus>
<clus scale="   23.629">  2  5  1 -1</clus>
</clustering>
</event>
<event>
 9    1  0.1803370E-005  0.2148460E+03  0.7546771E-02  0.1137901E+00
         -2   -1    0    0    0  501 -0.00000000000E+00  0.00000000000E+00  0.10589966565E+03  0.10589966565E+03  0.00000000000E+00 0.  1.
          2   -1    0    0  502    0  0.00000000000E+00 -0.00000000000E+00 -0.71130555470E+03  0.71130555470E+03  0.00000000000E+00 0. -1.
         23    2    1    2    0    0 -0.18366281216E+03  0.59468555922E+02 -0.63937790932E+02  0.22326572259E+03  0.92146644330E+02 0.  0.
         23    2    1    2    0    0  0.19470796822E+03 -0.40418822158E+02 -0.51528583645E+03  0.55972840810E+03  0.90727743936E+02 0.  0.
        -11    1    3    3    0    0 -0.76922369728E+02  0.43898413072E+02 -0.73334343160E+02  0.11498716242E+03  0.00000000000E+00 0. -1.
         11    1    3    3    0    0 -0.10674044243E+03  0.15570142850E+02  0.93965522279E+01  0.10827856017E+03  0.00000000000E+00 0.  1.
        -13    1    4    4    0    0  0.50648232943E+02 -0.53810433716E+02 -0.17434400915E+03  0.18935849546E+03  0.00000000000E+00 0.  1.
         13    1    4    4    0    0  0.14405973528E+03  0.13391611558E+02 -0.34094182730E+03  0.37036991264E+03  0.00000000000E+00 0. -1.
         21    1    1    2  502  501 -0.11045156061E+02 -0.19049733764E+02 -0.26182261676E+02  0.34211089654E+02  0.00000000000E+00 0.  1.
<scales pt_clust_5="13000.00000" pt_clust_6="13000.00000" pt_clust_7="13000.00000" pt_clust_8="13000.00000" pt_clust_9="22.02017"></scales>
<clustering>
<clus scale="   22.020">  2  9  1 -1</clus>
<clus scale="   90.728">  7  8 -1 -1</clus>
<clus scale="   92.147">  5  6 -1 -1</clus>
<clus scale="  214.241">  2  7  1 -1</clus>
<clus scale="   22.020">  2  5  1 -1</clus>
</clustering>
</event>
<event>
 9    1  0.1803370E-005  0.1200185E+03  0.7546771E-02  0.1243709E+00
         -4   -1    0    0    0  501 -0.00000000000E+00  0.00000000000E+00  0.15282517076E+03  0.15282517076E+03  0.00000000000E+00 0.  1.
          4   -1    0    0  502    0  0.00000000000E+00 -0.00000000000E+00 -0.12812941295E+03  0.12812941295E+03  0.00000000000E+00 0. -1.
         23    2    1    2    0    0  0.33234820101E+02 -0.73410229274E+02  0.35202918799E+02  0.12981507692E+03  0.95493945750E+02 0.  0.
         23    2    1    2    0    0 -0.21629374517E+02  0.55289877851E+02  0.17933094526E+02  0.11547605720E+03  0.97408025707E+02 0.  0.
        -11    1    3    3    0    0 -0.11332665747E+02 -0.66496990110E+02  0.48167940753E+02  0.82888054164E+02  0.00000000000E+00 0.  1.
         11    1    3    3    0    0  0.44567485848E+02 -0.69132391634E+01 -0.12965021955E+02  0.46927022757E+02  0.00000000000E+00 0. -1.
        -13    1    4    4    0    0  0.74374238514E+01  0.77270032763E+02  0.11645834642E+02  0.78495851491E+02  0.00000000000E+00 0.  1.
         13    1    4    4    0    0 -0.29066798368E+02 -0.21980154913E+02  0.62872598839E+01  0.36980205708E+02  0.00000000000E+00 0. -1.
         21    1    1    2  502  501 -0.11605445584E+02  0.18120351423E+02 -0.28440255517E+02  0.35663449591E+02  0.00000000000E+00 0. -1.
<scales pt_clust_5="13000.00000" pt_clust_6="13000.00000" pt_clust_7="13000.00000" pt_clust_8="13000.00000" pt_clust_9="21.51821"></scales>
<clustering>
<clus scale="   21.518">  2  9  1 -1</clus>
<clus scale="   95.494">  5  6 -1 -1</clus>
<clus scale="   97.408">  7  8 -1 -1</clus>
<clus scale="  118.470">  1  5  2 -1</clus>
<clus scale="   21.518">  2  5  1 -1</clus>
</clustering>
</event>
<event>
 9    1  0.1803370E-005  0.1037800E+03  0.7546771E-02  0.1273289E+00
          1   -1    0    0  502    0  0.00000000000E+00  0.00000000000E+00  0.83988754699E+03  0.83988754699E+03  0.00000000000E+00 0. -1.
         -1   -1    0    0    0  501 -0.00000000000E+00 -0.00000000000E+00 -0.32281448246E+02  0.32281448246E+02  0.00000000000E+00 0.  1.
         23    2    1    2    0    0  0.75882027399E+02  0.92814705100E+01  0.16443268550E+03  0.20332510305E+03  0.91971526539E+02 0.  0.
         23    2    1    2    0    0 -0.45186970217E+01 -0.29091597371E+02  0.22596414445E+03  0.24511197219E+03  0.90295872969E+02 0.  0.
        -11    1    4    4    0    0  0.19940899355E+02  0.23870575808E+02  0.42983403437E+02  0.53056732160E+02  0.00000000000E+00 0. -1.
         11    1    4    4    0    0 -0.24459596377E+02 -0.52962173178E+02  0.18298074101E+03  0.19205524003E+03  0.00000000000E+00 0.  1.
        -13    1    3    3    0    0  0.56344640468E+02 -0.82511374622E+01  0.16748153763E+03  0.17689789492E+03  0.00000000000E+00 0. -1.
         13    1    3    3    0    0  0.19537386932E+02  0.17532607972E+02 -0.30488521341E+01  0.26427208134E+02  0.00000000000E+00 0.  1.
         21    1    1    2  502  501 -0.71363330378E+02  0.19810126861E+02  0.41720926880E+03  0.42373192000E+03  0.00000000000E+00 0.  1.
<scales pt_clust_5="13000.00000" pt_clust_6="13000.00000" pt_clust_7="13000.00000" pt_clust_8="13000.00000" pt_clust_9="74.06191"></scales>
<clustering>
<clus scale="   74.062">  1  9  2 -1</clus>
<clus scale="   90.296">  5  6 -1 -1</clus>
<clus scale="   91.972">  7  8 -1 -1</clus>
<clus scale="  102.298">  1  5  2 -1</clus>
<clus scale="   74.062">  1  5  2 -1</clus>
</clustering>
</event>
<event>
 9    1  0.1803370E-005  0.1413284E+03  0.7546771E-02  0.1213143E+00
         -2   -1    0    0    0  501 -0.00000000000E+00  0.00000000000E+00  0.20688278543E+03  0.20688278543E+03  0.00000000000E+00 0.  1.
          2   -1    0    0  502    0  0.00000000000E+00 -0.00000000000E+00 -0.21965395478E+03  0.21965395478E+03  0.00000000000E+00 0. -1.
         23    2    1    2    0    0 -0.92455423082E+02 -0.11552244229E+02  0.48887344995E+02  0.13900484016E+03  0.90834539045E+02 0.  0.
         23    2    1    2    0    0  0.11195613253E+03 -0.53917894487E+02  0.41812002290E+02  0.16354494693E+03  0.97761910645E+02 0.  0.
        -11    1    4    4    0    0 -0.54586554728E+01 -0.25857769713E+02  0.33316222766E+02  0.42525191045E+02  0.00000000000E+00 0. -1.
         11    1    4    4    0    0  0.11741478800E+03 -0.28060124774E+02  0.84957795244E+01  0.12101975588E+03  0.00000000000E+00 0.  1.
        -13    1    3    3    0    0 -0.10626661170E+03  0.74970265270E+01  0.41712868344E+02  0.11440612551E+03  0.00000000000E+00 0. -1.
         13    1    3    3    0    0  0.13811188616E+02 -0.19049270756E+02  0.71744766508E+01  0.24598714652E+02  0.00000000000E+00 0.  1.
         21    1    1    2  502  501 -0.19500709447E+02  0.65470138716E+02 -0.10347051663E+03  0.12398695312E+03  0.00000000000E+00 0. -1.
<scales pt_clust_5="13000.00000" pt_clust_6="13000.00000" pt_clust_7="13000.00000" pt_clust_8="13000.00000" pt_clust_9="68.31264"></scales>
<clustering>
<clus scale="   68.313">  2  9  1 -1</clus>
<clus scale="   90.835">  7  8 -1 -1</clus>
<clus scale="   97.762">  5  6 -1 -1</clus>
<clus scale="  136.628">  1  7  2 -1</clus>
<clus scale="   68.313">  2  5  1 -1</clus>
</clustering>
</event>
<event>
 9    1  0.1803370E-005  0.1153650E+03  0.7546771E-02  0.1251683E+00
          1   -1    0    0  502    0  0.00000000000E+00  0.00000000000E+00  0.12989356637E+03  0.12989356637E+03  0.00000000000E+00 0. -1.
         -1   -1    0    0    0  501 -0.00000000000E+00 -0.00000000000E+00 -0.18700168209E+03  0.18700168209E+03  0.00000000000E+00 0.  1.
         23    2    1    2    0    0  0.22131587659E+02 -0.57399448999E+02 -0.84429675674E+02  0.13800171694E+03  0.90175383697E+02 0.  0.
         23    2    1    2    0    0 -0.57602644695E+02  0.77216438658E+02  0.34107563806E+02  0.13769937157E+03  0.92289479071E+02 0.  0.
        -13    1    3    3    0    0  0.51728255355E+02 -0.42904089299E+02 -0.80417906784E+02  0.10480273380E+03  0.00000000000E+00 0.  1.
         13    1    3    3    0    0 -0.29596667696E+02 -0.14495359701E+02 -0.40117688906E+01  0.33198983135E+02  0.00000000000E+00 0. -1.
        -13    1    4    4    0    0 -0.46054807414E+02  0.99452011164E+01 -0.19416893601E+02  0.50960455927E+02  0.00000000000E+00 0.  1.
         13    1    4    4    0    0 -0.11547837281E+02  0.67271237541E+02  0.53524457407E+02  0.86738915643E+02  0.00000000000E+00 0. -1.
         21    1    1    2  502  501  0.35471057036E+02 -0.19816989658E+02 -0.67860038494E+01  0.41194159957E+02  0.00000000000E+00 0.  1.
<scales pt_clust_5="13000.00000" pt_clust_6="13000.00000" pt_clust_7="13000.00000" pt_clust_8="13000.00000" pt_clust_9="40.63138"></scales>
<clustering>
<clus scale="   40.631">  1  9  2 -1</clus>
<clus scale="   90.175">  5  6 -1 -1</clus>
<clus scale="   92.289">  7  8 -1 -1</clus>
<clus scale="  113.681">  2  5  1 -1</clus>
<clus scale="   40.631">  1  5  2 -1</clus>
</clustering>
</event>
<event>
 9    1  0.1803370E-005  0.1139989E+03  0.7546771E-02  0.1254597E+00
         -2   -1    0    0    0  501 -0.00000000000E+00  0.00000000000E+00  0.74805828848E+02  0.74805828848E+02  0.00000000000E+00 0.  1.
          2   -1    0    0  502    0  0.00000000000E+00 -0.00000000000E+00 -0.44149297024E+03  0.44149297024E+03  0.00000000000E+00 0. -1.
         23    2    1    2    0    0  0.14786011742E+01 -0.41341751361E+02 -0.44739657784E+02  0.11104448435E+03  0.92832719761E+02 0.  0.
         23    2    1    2    0    0  0.15549855262E+02  0.12028206055E+03 -0.13774389897E+03  0.20412624276E+03  0.89356416630E+02 0.  0.
        -13    1    3    3    0    0  0.15271159399E+02 -0.65914221695E+02 -0.13536901245E+02  0.69001019024E+02  0.00000000000E+00 0. -1.
         13    1    3    3    0    0 -0.13792558225E+02  0.24572470334E+02 -0.31202756540E+02  0.42043465323E+02  0.00000000000E+00 0.  1.
        -13    1    4    4    0    0  0.28587248227E+02  0.78359460435E+02 -0.13678703894E+03  0.16021276423E+03  0.00000000000E+00 0.  1.
         13    1    4    4    0    0 -0.13037392965E+02  0.41922600115E+02 -0.95686002988E+00  0.43913478533E+02  0.00000000000E+00 0. -1.
         21    1    1    2  502  501 -0.17028456436E+02 -0.78940309189E+02 -0.18420358464E+03  0.20112807197E+03  0.00000000000E+00 0. -1.
<scales pt_clust_5="13000.00000" pt_clust_6="13000.00000" pt_clust_7="13000.00000" pt_clust_8="13000.00000" pt_clust_9="80.75606"></scales>
<clustering>
<clus scale="   80.756">  2  9  1 -1</clus>
<clus scale="   89.356">  7  8 -1 -1</clus>
<clus scale="   92.833">  5  6 -1 -1</clus>
<clus scale="  111.186">  2  7  1 -1</clus>
<clus scale="   80.756">  2  5  1 -1</clus>
</clustering>
</event>
<event>
 9    1  0.1803370E-005  0.1453507E+03  0.7546771E-02  0.1212048E+00
         -2   -1    0    0    0  501 -0.00000000000E+00  0.00000000000E+00  0.11973127063E+03  0.11973127063E+03  0.00000000000E+00 0.  1.
          2   -1    0    0  502    0  0.00000000000E+00 -0.00000000000E+00 -0.26761634417E+03  0.26761634417E+03  0.00000000000E+00 0. -1.
         23    2    1    2    0    0  0.74044627965E+02 -0.51335913442E+02  0.36323986251E+02  0.13326390657E+03  0.91224195685E+02 0.  0.
         23    2    1    2    0    0 -0.90420201401E+02  0.30409697068E+02 -0.15787961914E+03  0.21667641774E+03  0.11367556188E+03 0.  0.
        -11    1    4    4    0    0  0.23499833808E+01  0.35046999999E+02 -0.19528433295E+01  0.35179940704E+02  0.00000000000E+00 0.  1.
         11    1    4    4    0    0 -0.92770184782E+02 -0.46373029315E+01 -0.15592677581E+03  0.18149647704E+03  0.00000000000E+00 0. -1.
        -11    1    3    3    0    0  0.59952745046E+02 -0.76202739768E+02  0.39101299746E+02  0.10454712253E+03  0.00000000000E+00 0.  1.
         11    1    3    3    0    0  0.14091882920E+02  0.24866826326E+02 -0.27773134955E+01  0.28716784047E+02  0.00000000000E+00 0. -1.
         21    1    1    2  502  501  0.16375573435E+02  0.20926216374E+02 -0.26329440649E+02  0.37407290492E+02  0.00000000000E+00 0. -1.
<scales pt_clust_5="13000.00000" pt_clust_6="13000.00000" pt_clust_7="13000.00000" pt_clust_8="13000.00000" pt_clust_9="26.57190"></scales>
<clustering>
<clus scale="   26.572">  2  9  1 -1</clus>
<clus scale="   91.224">  7  8 -1 -1</clus>
<clus scale="  113.676">  5  6 -1 -1</clus>
<clus scale="  128.556">  1  7  2 -1</clus>
<clus scale="   26.572">  2  5  1 -1</clus>
</clustering>
</event>
<event>
 9    1  0.1803370E-005  0.9106119E+02  0.7546771E-02  0.1300981E+00
          3   -1    0    0  502    0  0.00000000000E+00  0.00000000000E+00  0.76217368498E+02  0.76217368498E+02  0.00000000000E+00 0. -1.
         -3   -1    0    0    0  501 -0.00000000000E+00 -0.00000000000E+00 -0.19760410404E+03  0.19760410404E+03  0.00000000000E+00 0.  1.
         23    2    1    2    0    0 -0.10850390228E+02 -0.47207533931E+01 -0.12523367315E+03  0.15397546305E+03  0.88797262632E+02 0.  0.
         23    2    1    2    0    0  0.72041213434E+01  0.26432628025E+02 -0.88364600708E+01  0.94437952621E+02  0.89943652806E+02 0.  0.
        -13    1    3    3    0    0 -0.28634872174E+02 -0.40026904222E+02 -0.79746451427E+02  0.93710220794E+02  0.00000000000E+00 0. -1.
         13    1    3    3    0    0  0.17784481946E+02  0.35306150829E+02 -0.45487221725E+02  0.60265242260E+02  0.00000000000E+00 0.  1.
        -13    1    4    4    0    0 -0.36224685553E+02  0.32698705995E+02 -0.12594007589E+02  0.50398831775E+02  0.00000000000E+00 0.  1.
         13    1    4    4    0    0  0.43428806896E+02 -0.62660779701E+01  0.37575475182E+01  0.44039120846E+02  0.00000000000E+00 0. -1.
         21    1    1    2  502  501  0.36462688845E+01 -0.21711874632E+02  0.12683397681E+02  0.25408056862E+02  0.00000000000E+00 0. -1.
<scales pt_clust_5="13000.00000" pt_clust_6="13000.00000" pt_clust_7="13000.00000" pt_clust_8="13000.00000" pt_clust_9="22.01592"></scales>
<clustering>
<clus scale="   22.016">  1  9  2 -1</clus>
<clus scale="   88.797">  5  6 -1 -1</clus>
<clus scale="   89.929">  2  5  1 -1</clus>
<clus scale="   89.944">  7  8 -1 -1</clus>
<clus scale="   22.016">  1  5  2 -1</clus>
</clustering>
</event>
<event>
 9    1  0.1803370E-005  0.1116048E+03  0.7546771E-02  0.1258415E+00
          1   -1    0    0  502    0  0.00000000000E+00  0.00000000000E+00  0.28841976246E+03  0.28841976246E+03  0.00000000000E+00 0. -1.
         -1   -1    0    0    0  501 -0.00000000000E+00 -0.00000000000E+00 -0.77473764966E+02  0.77473764966E+02  0.00000000000E+00 0.  1.
         23    2    1    2    0    0 -0.94426469873E+01  0.78440973062E+02  0.45536305310E+02  0.13006489318E+03  0.92742501049E+02 0.  0.
         23    2    1    2    0    0 -0.37459463671E+02 -0.35930317307E+02  0.10998731187E+03  0.15169419375E+03  0.90662674376E+02 0.  0.
        -11    1    4    4    0    0 -0.30520000156E+02  0.74460085960E+01 -0.19201497407E+01  0.31473805435E+02  0.00000000000E+00 0.  1.
         11    1    4    4    0    0 -0.69394635153E+01 -0.43376325903E+02  0.11190746161E+03  0.12022038832E+03  0.00000000000E+00 0. -1.
        -11    1    3    3    0    0 -0.18095574878E+02  0.14463204640E+02 -0.25245023975E+02  0.34262885957E+02  0.00000000000E+00 0.  1.
         11    1    3    3    0    0  0.86529278909E+01  0.63977768422E+02  0.70781329285E+02  0.95802007227E+02  0.00000000000E+00 0. -1.
         21    1    1    2  502  501  0.46902110659E+02 -0.42510655755E+02  0.55422380314E+02  0.84134440490E+02  0.00000000000E+00 0. -1.
<scales pt_clust_5="13000.00000" pt_clust_6="13000.00000" pt_clust_7="13000.00000" pt_clust_8="13000.00000" pt_clust_9="63.30058"></scales>
<clustering>
<clus scale="   63.301">  1  9  2 -1</clus>
<clus scale="   90.663">  5  6 -1 -1</clus>
<clus scale="   92.743">  7  8 -1 -1</clus>
<clus scale="  109.883">  1  5  2 -1</clus>
<clus scale="   63.301">  1  5  2 -1</clus>
</clustering>
</event>
<event>
 9    1  0.1803370E-005  0.1146749E+03  0.7546771E-02  0.1252630E+00
          1   -1    0    0  502    0  0.00000000000E+00  0.00000000000E+00  0.40983154346E+02  0.40983154346E+02  0.00000000000E+00 0. -1.
         -1   -1    0    0    0  501 -0.00000000000E+00 -0.00000000000E+00 -0.46231007095E+03  0.46231007095E+03  0.00000000000E+00 0.  1.
         23    2    1    2    0    0 -0.54560167875E+02  0.52270780358E+02 -0.23134866794E+03  0.26002371062E+03  0.91548225133E+02 0.  0.
         23    2    1    2    0    0  0.25097970714E+02 -0.55229080438E+02 -0.18104927180E+03  0.21234219296E+03  0.92898916204E+02 0.  0.
        -11    1    4    4    0    0  0.50908948124E+02 -0.15464656502E+02 -0.50121865304E+02  0.73096360931E+02  0.00000000000E+00 0.  1.
         11    1    4    4    0    0 -0.25810977410E+02 -0.39764423936E+02 -0.13092740649E+03  0.13924583203E+03  0.00000000000E+00 0. -1.
        -13    1    3    3    0    0 -0.35822148797E+02  0.95799785837E+01 -0.17230872262E+02  0.40888938517E+02  0.00000000000E+00 0. -1.
         13    1    3    3    0    0 -0.18738019078E+02  0.42690801774E+02 -0.21411779568E+03  0.21913477210E+03  0.00000000000E+00 0.  1.
         21    1    1    2  502  501  0.29462197161E+02  0.29583000805E+01 -0.89289768580E+01  0.30927321718E+02  0.00000000000E+00 0. -1.
<scales pt_clust_5="13000.00000" pt_clust_6="13000.00000" pt_clust_7="13000.00000" pt_clust_8="13000.00000" pt_clust_9="29.61035"></scales>
<clustering>
<clus scale="   29.610">  1  9  2 -1</clus>
<clus scale="   91.548">  7  8 -1 -1</clus>
<clus scale="   92.899">  5  6 -1 -1</clus>
<clus scale="  113.583">  2  7  1 -1</clus>
<clus scale="   29.610">  1  5  2 -1</clus>
</clustering>
</event>
<event>
 9    1  0.1803370E-005  0.1072763E+03  0.7546771E-02  0.1272646E+00
         -1   -1    0    0    0  501 -0.00000000000E+00  0.00000000000E+00  0.25152668804E+03  0.25152668804E+03  0.00000000000E+00 0.  1.
          1   -1    0    0  502    0  0.00000000000E+00 -0.00000000000E+00 -0.76588898643E+02  0.76588898643E+02  0.00000000000E+00 0. -1.
         23    2    1    2    0    0  0.77598278353E+01  0.20764651677E+02  0.15450343664E+03  0.18148500819E+03  0.92596493341E+02 0.  0.
         23    2    1    2    0    0  0.15914084688E+02  0.78295027613E+01  0.10680088960E+02  0.10824795919E+03  0.10624969253E+03 0.  0.
        -11    1    4    4    0    0 -0.29587570163E+02 -0.55592023997E+00 -0.33204848394E+02  0.44478031794E+02  0.00000000000E+00 0.  1.
         11    1    4    4    0    0  0.45501654851E+02  0.83854230012E+01  0.43884937353E+02  0.63769927392E+02  0.00000000000E+00 0. -1.
        -13    1    3    3    0    0 -0.31277376626E+02  0.34185484278E+02  0.45554471744E+02  0.64977931021E+02  0.00000000000E+00 0. -1.
         13    1    3    3    0    0  0.39037204461E+02 -0.13420832602E+02  0.10894896489E+03  0.11650707717E+03  0.00000000000E+00 0.  1.
         21    1    1    2  502  501 -0.23673912523E+02 -0.28594154438E+02  0.97542637975E+01  0.38382619301E+02  0.00000000000E+00 0.  1.
<scales pt_clust_5="13000.00000" pt_clust_6="13000.00000" pt_clust_7="13000.00000" pt_clust_8="13000.00000" pt_clust_9="37.12250"></scales>
<clustering>
<clus scale="   37.122">  2  9  1 -1</clus>
<clus scale="   92.596">  7  8 -1 -1</clus>
<clus scale="   93.773">  1  7  2 -1</clus>
<clus scale="  106.250">  5  6 -1 -1</clus>
<clus scale="   37.122">  2  5  1 -1</clus>
</clustering>
</event>
<event>
 9    1  0.1803370E-005  0.9570262E+02  0.7546771E-02  0.1289833E+00
         -1   -1    0    0    0  501 -0.00000000000E+00  0.00000000000E+00  0.46437527668E+02  0.46437527668E+02  0.00000000000E+00 0.  1.
          1   -1    0    0  502    0  0.00000000000E+00 -0.00000000000E+00 -0.53980864226E+03  0.53980864226E+03  0.00000000000E+00 0. -1.
         23    2    1    2    0    0  0.82918274528E+01  0.45623461124E+02 -0.11765718904E+03  0.15593599621E+03  0.91228099700E+02 0.  0.
         23    2    1    2    0    0 -0.48388535577E+02  0.31604236406E+02 -0.12513554727E+03  0.16505296470E+03  0.90792608915E+02 0.  0.
        -13    1    3    3    0    0  0.40870120883E+02  0.45608779682E+02 -0.10382870445E+03  0.12054429656E+03  0.00000000000E+00 0.  1.
         13    1    3    3    0    0 -0.32578293430E+02  0.14681442796E-01 -0.13828484588E+02  0.35391699653E+02  0.00000000000E+00 0. -1.
        -13    1    4    4    0    0 -0.19663725957E+02  0.39486620868E+02 -0.12775028809E+03  0.13515173493E+03  0.00000000000E+00 0.  1.
         13    1    4    4    0    0 -0.28724809620E+02 -0.78823844628E+01  0.26147408255E+01  0.29901229776E+02  0.00000000000E+00 0. -1.
         21    1    1    2  502  501  0.40096708124E+02 -0.77227697530E+02 -0.25057837829E+03  0.26525720901E+03  0.00000000000E+00 0. -1.
<scales pt_clust_5="13000.00000" pt_clust_6="13000.00000" pt_clust_7="13000.00000" pt_clust_8="13000.00000" pt_clust_9="87.01645"></scales>
<clustering>
<clus scale="   87.016">  2  9  1 -1</clus>
<clus scale="   90.793">  7  8 -1 -1</clus>
<clus scale="   91.228">  5  6 -1 -1</clus>
<clus scale="   95.288">  2  7  1 -1</clus>
<clus scale="   87.016">  2  5  1 -1</clus>
</clustering>
</event>
<event>
 9    1  0.1803370E-005  0.1561982E+03  0.7546771E-02  0.1194848E+00
          1   -1    0    0  502    0  0.00000000000E+00  0.00000000000E+00  0.47316909037E+02  0.47316909037E+02  0.00000000000E+00 0. -1.
         -1   -1    0    0    0  501 -0.00000000000E+00 -0.00000000000E+00 -0.74535173517E+03  0.74535173517E+03  0.00000000000E+00 0.  1.
         23    2    1    2    0    0  0.15041827628E+03 -0.20182416723E+02 -0.35338535700E+03  0.39801515317E+03  0.10247860179E+03 0.  0.
         23    2    1    2    0    0 -0.94130521256E+02  0.22467816359E+02 -0.21770337076E+03  0.25576919996E+03  0.93047128929E+02 0.  0.
        -11    1    3    3    0    0  0.77168033685E+02  0.30098980717E+02 -0.10202850147E+03  0.13141791801E+03  0.00000000000E+00 0. -1.
         11    1    3    3    0    0  0.73250242598E+02 -0.50281397441E+02 -0.25135685553E+03  0.26659723516E+03  0.00000000000E+00 0.  1.
        -13    1    4    4    0    0 -0.43685133003E+02  0.56712506608E+02 -0.97171977796E+02  0.12069421080E+03  0.00000000000E+00 0. -1.
         13    1    4    4    0    0 -0.50445388253E+02 -0.34244690249E+02 -0.12053139296E+03  0.13507498916E+03  0.00000000000E+00 0.  1.
         21    1    1    2  502  501 -0.56287755027E+02 -0.22853996356E+01 -0.12694609837E+03  0.13888429108E+03  0.00000000000E+00 0.  1.
<scales pt_clust_5="13000.00000" pt_clust_6="13000.00000" pt_clust_7="13000.00000" pt_clust_8="13000.00000" pt_clust_9="56.33413"></scales>
<clustering>
<clus scale="   56.334">  2  9  1 -1</clus>
<clus scale="   93.047">  7  8 -1 -1</clus>
<clus scale="  102.479">  5  6 -1 -1</clus>
<clus scale="  150.179">  1  7  2 -1</clus>
<clus scale="  150.179">  1  5  2 -1</clus>
</clustering>
</event>
<event>
 9    1  0.1803370E-005  0.1172453E+03  0.7546771E-02  0.1250189E+00
         -1   -1    0    0    0  501 -0.00000000000E+00  0.00000000000E+00  0.32232334360E+02  0.32232334360E+02  0.00000000000E+00 0.  1.
          1   -1    0    0  502    0  0.00000000000E+00 -0.00000000000E+00 -0.82798734348E+03  0.82798734348E+03  0.00000000000E+00 0. -1.
         23    2    1    2    0    0 -0.10741828259E+02 -0.43450262742E+02 -0.17649094306E+03  0.20347823970E+03  0.90835174043E+02 0.  0.
         23    2    1    2    0    0 -0.17184195667E+02  0.10683431838E+03 -0.36048408336E+03  0.38885250450E+03  0.97717080043E+02 0.  0.
        -13    1    4    4    0    0  0.17653067956E+02  0.89044564634E+02 -0.31971542295E+03  0.33235300055E+03  0.00000000000E+00 0. -1.
         13    1    4    4    0    0 -0.34837263623E+02  0.17789753748E+02 -0.40768660411E+02  0.56499503952E+02  0.00000000000E+00 0.  1.
        -13    1    3    3    0    0 -0.36963848732E+02 -0.10022151034E+02 -0.14662822671E+03  0.15154737376E+03  0.00000000000E+00 0.  1.
         13    1    3    3    0    0  0.26222020473E+02 -0.33428111708E+02 -0.29862716351E+02  0.51930865946E+02  0.00000000000E+00 0. -1.
         21    1    1    2  502  501  0.27926023926E+02 -0.63384055640E+02 -0.25877998270E+03  0.26788893364E+03  0.00000000000E+00 0. -1.
<scales pt_clust_5="13000.00000" pt_clust_6="13000.00000" pt_clust_7="13000.00000" pt_clust_8="13000.00000" pt_clust_9="69.26328"></scales>
<clustering>
<clus scale="   69.263">  2  9  1 -1</clus>
<clus scale="   90.835">  7  8 -1 -1</clus>
<clus scale="   97.717">  5  6 -1 -1</clus>
<clus scale="  111.574">  1  7  2 -1</clus>
<clus scale="   69.263">  2  5  1 -1</clus>
</clustering>
</event>
<event>
 9    1  0.1803370E-005  0.1439093E+03  0.7546771E-02  0.1209177E+00
         -1   -1    0    0    0  501 -0.00000000000E+00  0.00000000000E+00  0.11616973963E+03  0.11616973963E+03  0.00000000000E+00 0.  1.
          1   -1    0    0  502    0  0.00000000000E+00 -0.00000000000E+00 -0.27486978430E+03  0.27486978430E+03  0.00000000000E+00 0. -1.
         23    2    1    2    0    0  0.10940666345E+03  0.31585640343E+02  0.57658670693E+01  0.14541255228E+03  0.90244636697E+02 0.  0.
         23    2    1    2    0    0 -0.98393778214E+02  0.85867923075E+01 -0.14545689690E+03  0.19983995786E+03  0.94990690652E+02 0.  0.
        -13    1    4    4    0    0 -0.88566517489E+01 -0.26930878721E+02 -0.75914427769E+02  0.81035256848E+02  0.00000000000E+00 0.  1.
         13    1    4    4    0    0 -0.89537126465E+02  0.35517671029E+02 -0.69542469127E+02  0.11880470101E+03  0.00000000000E+00 0. -1.
        -13    1    3    3    0    0  0.68082279344E+02  0.52581084155E+01  0.45729841487E+02  0.82183105729E+02  0.00000000000E+00 0.  1.
         13    1    3    3    0    0  0.41324384108E+02  0.26327531927E+02 -0.39963974418E+02  0.63229446547E+02  0.00000000000E+00 0. -1.
         21    1    1    2  502  501 -0.11012885238E+02 -0.40172432650E+02 -0.19009014846E+02  0.45787013789E+02  0.00000000000E+00 0.  1.
<scales pt_clust_5="13000.00000" pt_clust_6="13000.00000" pt_clust_7="13000.00000" pt_clust_8="13000.00000" pt_clust_9="41.65463"></scales>
<clustering>
<clus scale="   41.655">  2  9  1 -1</clus>
<clus scale="   90.245">  7  8 -1 -1</clus>
<clus scale="   94.991">  5  6 -1 -1</clus>
<clus scale="  140.822">  1  7  2 -1</clus>
<clus scale="   41.655">  2  5  1 -1</clus>
</clustering>
</event>
<event>
 9    1  0.1803370E-005  0.1242633E+03  0.7546771E-02  0.1237777E+00
          2   -1    0    0  502    0  0.00000000000E+00  0.00000000000E+00  0.25785904388E+03  0.25785904388E+03  0.00000000000E+00 0. -1.
         -2   -1    0    0    0  501 -0.00000000000E+00 -0.00000000000E+00 -0.12438440816E+03  0.12438440816E+03  0.00000000000E+00 0.  1.
         23    2    1    2    0    0 -0.10455878912E+02  0.80789784261E+02 -0.72257472703E+01  0.12295187582E+03  0.91807612425E+02 0.  0.
         23    2    1    2    0    0  0.83987677490E+02 -0.47248236955E+02  0.81098400610E+02  0.15887067650E+03  0.96832925203E+02 0.  0.
        -13    1    4    4    0    0  0.25502297840E+02 -0.34136999205E+02  0.88748001739E+02  0.98447497289E+02  0.00000000000E+00 0. -1.
         13    1    4    4    0    0  0.58485379650E+02 -0.13111237750E+02 -0.76496011289E+01  0.60423179207E+02  0.00000000000E+00 0.  1.
        -13    1    3    3    0    0 -0.49225039349E+02  0.57455591259E+02  0.57544116514E+01  0.75877287243E+02  0.00000000000E+00 0.  1.
         13    1    3    3    0    0  0.38769160437E+02  0.23334193001E+02 -0.12980158922E+02  0.47074588576E+02  0.00000000000E+00 0. -1.
         21    1    1    2  502  501 -0.73531798579E+02 -0.33541547306E+02  0.59601982376E+02  0.10042089972E+03  0.00000000000E+00 0.  1.
<scales pt_clust_5="13000.00000" pt_clust_6="13000.00000" pt_clust_7="13000.00000" pt_clust_8="13000.00000" pt_clust_9="80.82055"></scales>
<clustering>
<clus scale="   80.821">  1  9  2 -1</clus>
<clus scale="   91.808">  7  8 -1 -1</clus>
<clus scale="   96.833">  5  6 -1 -1</clus>
<clus scale="  120.388">  2  7  1 -1</clus>
<clus scale="   80.821">  1  5  2 -1</clus>
</clustering>
</event>
<event>
 9    1  0.1803370E-005  0.1867794E+03  0.7546771E-02  0.1162072E+00
          2   -1    0    0  502    0  0.00000000000E+00  0.00000000000E+00  0.51247458149E+03  0.51247458149E+03  0.00000000000E+00 0. -1.
         -2   -1    0    0    0  501 -0.00000000000E+00 -0.00000000000E+00 -0.53889842398E+03  0.53889842398E+03  0.00000000000E+00 0.  1.
         23    2    1    2    0    0  0.56309737997E+02  0.15147659290E+03 -0.39585202238E+03  0.43765809180E+03  0.93433596225E+02 0.  0.
         23    2    1    2    0    0  0.86709891027E+02 -0.19496231200E+03  0.17412588186E+02  0.23127459303E+03  0.87497604839E+02 0.  0.
        -11    1    3    3    0    0  0.43464881084E+02  0.12560924803E+03 -0.38415274618E+03  0.40649749258E+03  0.00000000000E+00 0.  1.
         11    1    3    3    0    0  0.12844856913E+02  0.25867344869E+02 -0.11699276197E+02  0.31160599212E+02  0.00000000000E+00 0. -1.
        -13    1    4    4    0    0  0.66163841875E+02 -0.14480971914E+03 -0.26651446292E+02  0.16142431143E+03  0.00000000000E+00 0.  1.
         13    1    4    4    0    0  0.20546049152E+02 -0.50152592858E+02  0.44064034478E+02  0.69850281607E+02  0.00000000000E+00 0. -1.
         21    1    1    2  502  501 -0.14301962902E+03  0.43485719101E+02  0.35201559170E+03  0.38244032064E+03  0.00000000000E+00 0. -1.
<scales pt_clust_5="13000.00000" pt_clust_6="13000.00000" pt_clust_7="13000.00000" pt_clust_8="13000.00000" pt_clust_9="149.48452"></scales>
<clustering>
<clus scale="   87.498">  7  8 -1 -1</clus>
<clus scale="   93.434">  5  6 -1 -1</clus>
<clus scale="  149.485">  1  9  2 -1</clus>
<clus scale="  183.882">  1  7  2 -1</clus>
<clus scale="  149.485">  1  5  2 -1</clus>
</clustering>
</event>
<event>
 9    1  0.1803370E-005  0.9761488E+02  0.7546771E-02  0.1287681E+00
         -1   -1    0    0    0  501 -0.00000000000E+00  0.00000000000E+00  0.52234097943E+03  0.52234097943E+03  0.00000000000E+00 0.  1.
          1   -1    0    0  502    0  0.00000000000E+00 -0.00000000000E+00 -0.37983130146E+02  0.37983130146E+02  0.00000000000E+00 0. -1.
         23    2    1    2    0    0 -0.26061272160E+01  0.27247985241E+02  0.31008555521E+03  0.32550352918E+03  0.95132809041E+02 0.  0.
         23    2    1    2    0    0 -0.43544701988E+02  0.10423657715E+01  0.13228735376E+03  0.16631526520E+03  0.90904322659E+02 0.  0.
        -11    1    3    3    0    0  0.23523754592E+02  0.45433543260E+02  0.26741785090E+03  0.27226803129E+03  0.00000000000E+00 0.  1.
         11    1    3    3    0    0 -0.26129881808E+02 -0.18185558019E+02  0.42667704311E+02  0.53235497884E+02  0.00000000000E+00 0. -1.
        -11    1    4    4    0    0 -0.66128496646E+02  0.22281373422E+02  0.90152604849E+02  0.11400407813E+03  0.00000000000E+00 0.  1.
         11    1    4    4    0    0  0.22583794657E+02 -0.21239007650E+02  0.42134748909E+02  0.52311187070E+02  0.00000000000E+00 0. -1.
         21    1    1    2  502  501  0.46150829205E+02 -0.28290351012E+02  0.41984940312E+02  0.68505315193E+02  0.00000000000E+00 0. -1.
<scales pt_clust_5="13000.00000" pt_clust_6="13000.00000" pt_clust_7="13000.00000" pt_clust_8="13000.00000" pt_clust_9="54.13172"></scales>
<clustering>
<clus scale="   54.132">  2  9  1 -1</clus>
<clus scale="   90.904">  7  8 -1 -1</clus>
<clus scale="   93.499">  2  7  1 -1</clus>
<clus scale="   95.133">  5  6 -1 -1</clus>
<clus scale="   54.132">  2  5  1 -1</clus>
</clustering>
</event>
<event>
 9    1  0.1803370E-005  0.1426615E+03  0.7546771E-02  0.1210528E+00
          1   -1    0    0  502    0  0.00000000000E+00  0.00000000000E+00  0.17343777785E+03  0.17343777785E+03  0.00000000000E+00 0. -1.
         -1   -1    0    0    0  501 -0.00000000000E+00 -0.00000000000E+00 -0.17785038322E+03  0.17785038322E+03  0.00000000000E+00 0.  1.
         23    2    1    2    0    0  0.91454872780E+02 -0.73071888267E+02 -0.78073168992E+02  0.16861391706E+03  0.92907150954E+02 0.  0.
         23    2    1    2    0    0 -0.84228929190E+02  0.39217075886E+02  0.41674818095E+02  0.13554197800E+03  0.89455831466E+02 0.  0.
        -11    1    4    4    0    0 -0.26177372246E+02 -0.28484531351E+02  0.45943725082E+01  0.38958074936E+02  0.00000000000E+00 0.  1.
         11    1    4    4    0    0 -0.58051556945E+02  0.67701607236E+02  0.37080445587E+02  0.96583903064E+02  0.00000000000E+00 0. -1.
        -11    1    3    3    0    0  0.83590563301E+02 -0.93421446576E+02 -0.76235941393E+02  0.14672037252E+03  0.00000000000E+00 0.  1.
         11    1    3    3    0    0  0.78643094791E+01  0.20349558309E+02 -0.18372275986E+01  0.21893544532E+02  0.00000000000E+00 0. -1.
         21    1    1    2  502  501 -0.72259435900E+01  0.33854812382E+02  0.31985745531E+02  0.47132266011E+02  0.00000000000E+00 0. -1.
<scales pt_clust_5="13000.00000" pt_clust_6="13000.00000" pt_clust_7="13000.00000" pt_clust_8="13000.00000" pt_clust_9="34.61737"></scales>
<clustering>
<clus scale="   34.617">  1  9  2 -1</clus>
<clus scale="   89.456">  5  6 -1 -1</clus>
<clus scale="   92.907">  7  8 -1 -1</clus>
<clus scale="  140.438">  1  5  2 -1</clus>
<clus scale="   34.617">  1  5  2 -1</clus>
</clustering>
</event>
<event>
 9    1  0.1803370E-005  0.1233868E+03  0.7546771E-02  0.1238314E+00
         -1   -1    0    0    0  501 -0.00000000000E+00  0.00000000000E+00  0.10597054469E+03  0.10597054469E+03  0.00000000000E+00 0.  1.
          1   -1    0    0  502    0  0.00000000000E+00 -0.00000000000E+00 -0.33122775978E+03  0.33122775978E+03  0.00000000000E+00 0. -1.
         23    2    1    2    0    0 -0.72701308624E+02  0.89224492648E+01  0.43117871260E+02  0.12767984698E+03  0.95278025417E+02 0.  0.
         23    2    1    2    0    0  0.86523239000E+02 -0.24769134227E+02 -0.22266591842E+03  0.25920453081E+03  0.97504341809E+02 0.  0.
        -11    1    3    3    0    0 -0.58743930302E+02  0.43672154119E+02  0.36746525991E+01  0.73291264585E+02  0.00000000000E+00 0.  1.
         11    1    3    3    0    0 -0.13957378322E+02 -0.34749704854E+02  0.39443218661E+02  0.54388582399E+02  0.00000000000E+00 0. -1.
        -13    1    4    4    0    0 -0.10558799109E+02  0.18799320059E+02 -0.69010984552E+02  0.72300889774E+02  0.00000000000E+00 0.  1.
         13    1    4    4    0    0  0.97082038109E+02 -0.43568454286E+02 -0.15365493386E+03  0.18690364104E+03  0.00000000000E+00 0. -1.
         21    1    1    2  502  501 -0.13821930376E+02  0.15846684963E+02 -0.45709167939E+02  0.50313926673E+02  0.00000000000E+00 0. -1.
<scales pt_clust_5="13000.00000" pt_clust_6="13000.00000" pt_clust_7="13000.00000" pt_clust_8="13000.00000" pt_clust_9="21.02768"></scales>
<clustering>
<clus scale="   21.028">  2  9  1 -1</clus>
<clus scale="   95.278">  5  6 -1 -1</clus>
<clus scale="   97.504">  7  8 -1 -1</clus>
<clus scale="  121.635">  1  5  2 -1</clus>
<clus scale="   21.028">  2  5  1 -1</clus>
</clustering>
</event>
<event>
 9    1  0.1803370E-005  0.1096718E+03  0.7546771E-02  0.1263826E+00
          3   -1    0    0  502    0  0.00000000000E+00  0.00000000000E+00  0.10869583977E+03  0.10869583977E+03  0.00000000000E+00 0. -1.
         -3   -1    0    0    0  501 -0.00000000000E+00 -0.00000000000E+00 -0.18632447255E+03  0.18632447255E+03  0.00000000000E+00 0.  1.
         23    2    1    2    0    0 -0.59224262526E+02 -0.15369399924E+02 -0.10926842714E+03  0.16024091015E+03  0.99969137194E+02 0.  0.
         23    2    1    2    0    0  0.40777123615E+02  0.52441737173E+01  0.42694727523E+02  0.11100907010E+03  0.93861060706E+02 0.  0.
        -11    1    4    4    0    0 -0.24452631615E+02  0.20782914571E+02  0.11190085446E+01  0.32110946904E+02  0.00000000000E+00 0.  1.
         11    1    4    4    0    0  0.65229755230E+02 -0.15538740853E+02  0.41575718979E+02  0.78898123192E+02  0.00000000000E+00 0. -1.
        -13    1    3    3    0    0 -0.11128370039E+02 -0.52865496803E+02 -0.66867545522E+02  0.85964353170E+02  0.00000000000E+00 0. -1.
         13    1    3    3    0    0 -0.48095892487E+02  0.37496096879E+02 -0.42400881618E+02  0.74276556983E+02  0.00000000000E+00 0.  1.
         21    1    1    2  502  501  0.18447138911E+02  0.10125226206E+02 -0.11054933157E+02  0.23770332072E+02  0.00000000000E+00 0.  1.
<scales pt_clust_5="13000.00000" pt_clust_6="13000.00000" pt_clust_7="13000.00000" pt_clust_8="13000.00000" pt_clust_9="21.04322"></scales>
<clustering>
<clus scale="   21.043">  2  9  1 -1</clus>
<clus scale="   93.861">  5  6 -1 -1</clus>
<clus scale="   99.969">  7  8 -1 -1</clus>
<clus scale="  104.134">  1  5  2 -1</clus>
<clus scale="  104.134">  1  5  2 -1</clus>
</clustering>
</event>
<event>
 9    1  0.1803370E-005  0.1087658E+03  0.7546771E-02  0.1263371E+00
          1   -1    0    0  502    0  0.00000000000E+00  0.00000000000E+00  0.39051374415E+03  0.39051374415E+03  0.00000000000E+00 0. -1.
         -1   -1    0    0    0  501 -0.00000000000E+00 -0.00000000000E+00 -0.67116832263E+02  0.67116832263E+02  0.00000000000E+00 0.  1.
         23    2    1    2    0    0  0.33357712292E+02  0.51017801921E+02  0.43850250003E+01  0.10774438860E+03  0.88735966483E+02 0.  0.
         23    2    1    2    0    0 -0.56310003684E+02 -0.35116263318E+02  0.21699840509E+03  0.24412032811E+03  0.90013656316E+02 0.  0.
        -11    1    4    4    0    0  0.18890517533E+02 -0.30246895419E+02  0.56532101680E+02  0.66840144042E+02  0.00000000000E+00 0.  1.
         11    1    4    4    0    0 -0.75200521217E+02 -0.48693678987E+01  0.16046630341E+03  0.17728018407E+03  0.00000000000E+00 0. -1.
        -13    1    3    3    0    0 -0.28082697255E+02  0.33119710308E+02  0.52880126330E+01  0.43743755824E+02  0.00000000000E+00 0. -1.
         13    1    3    3    0    0  0.61440409546E+02  0.17898091613E+02 -0.90298763277E+00  0.64000632773E+02  0.00000000000E+00 0.  1.
         21    1    1    2  502  501  0.22952291392E+02 -0.15901538603E+02  0.10201348180E+03  0.10576585971E+03  0.00000000000E+00 0.  1.
<scales pt_clust_5="13000.00000" pt_clust_6="13000.00000" pt_clust_7="13000.00000" pt_clust_8="13000.00000" pt_clust_9="27.92251"></scales>
<clustering>
<clus scale="   27.923">  1  9  2 -1</clus>
<clus scale="   88.736">  7  8 -1 -1</clus>
<clus scale="   90.014">  5  6 -1 -1</clus>
<clus scale="  107.711">  2  7  1 -1</clus>
<clus scale="   27.923">  1  5  2 -1</clus>
</clustering>
</event>
<event>
 9    1  0.1803370E-005  0.3071526E+03  0.7546771E-02  0.1081801E+00
         -4   -1    0    0    0  501 -0.00000000000E+00  0.00000000000E+00  0.10803679383E+03  0.10803679383E+03  0.00000000000E+00 0.  1.
          4   -1    0    0  502    0  0.00000000000E+00 -0.00000000000E+00 -0.12939768819E+04  0.12939768819E+04  0.00000000000E+00 0. -1.
         23    2    1    2    0    0  0.23258494133E+03 -0.84107496240E+02 -0.24058548132E+03  0.35694166866E+03  0.91412007652E+02 0.  0.
         23    2    1    2    0    0 -0.28850988482E+03  0.12679263094E+03 -0.90742213172E+03  0.96514396010E+03  0.93667570070E+02 0.  0.
        -13    1    4    4    0    0 -0.19318522968E+03  0.94799884301E+02 -0.73169910792E+03  0.76268678732E+03  0.00000000000E+00 0. -1.
         13    1    4    4    0    0 -0.95324655136E+02  0.31992746638E+02 -0.17572302381E+03  0.20245717278E+03  0.00000000000E+00 0.  1.
        -13    1    3    3    0    0  0.54715337248E+02 -0.62010817072E+02 -0.57483021743E+02  0.10071448432E+03  0.00000000000E+00 0. -1.
         13    1    3    3    0    0  0.17786960408E+03 -0.22096679168E+02 -0.18310245958E+03  0.25622718433E+03  0.00000000000E+00 0.  1.
         21    1    1    2  502  501  0.55924943495E+02 -0.42685134699E+02 -0.37932474980E+02  0.79928046938E+02  0.00000000000E+00 0.  1.
<scales pt_clust_5="13000.00000" pt_clust_6="13000.00000" pt_clust_7="13000.00000" pt_clust_8="13000.00000" pt_clust_9="70.35354"></scales>
<clustering>
<clus scale="   70.354">  1  9  2 -1</clus>
<clus scale="   91.412">  7  8 -1 -1</clus>
<clus scale="   93.668">  5  6 -1 -1</clus>
<clus scale="  306.472">  1  7  2 -1</clus>
<clus scale="  307.153">  2  5  1 -1</clus>
</clustering>
</event>
<event>
 9    1  0.1803370E-005  0.9340468E+02  0.7546771E-02  0.1294990E+00
         -1   -1    0    0    0  501 -0.00000000000E+00  0.00000000000E+00  0.25066907307E+03  0.25066907307E+03  0.00000000000E+00 0.  1.
          1   -1    0    0  502    0  0.00000000000E+00 -0.00000000000E+00 -0.26467764189E+03  0.26467764189E+03  0.00000000000E+00 0. -1.
         23    2    1    2    0    0 -0.17508099108E+02 -0.53015426649E+01  0.22331087829E+03  0.24194806191E+03  0.91304306639E+02 0.  0.
         23    2    1    2    0    0  0.48759207406E+02  0.72286502526E+00 -0.16730079141E+03  0.19658584028E+03  0.90986015158E+02 0.  0.
        -11    1    4    4    0    0 -0.20838064345E+02 -0.51421844580E+00 -0.90776154738E+02  0.93138604323E+02  0.00000000000E+00 0.  1.
         11    1    4    4    0    0  0.69597271751E+02  0.12370834711E+01 -0.76524636669E+02  0.10344723596E+03  0.00000000000E+00 0. -1.
        -11    1    3    3    0    0  0.28614575711E+02  0.24809250751E+02  0.83974705464E+02  0.92119726572E+02  0.00000000000E+00 0. -1.
         11    1    3    3    0    0 -0.46122674820E+02 -0.30110793416E+02  0.13933617283E+03  0.14982833534E+03  0.00000000000E+00 0.  1.
         21    1    1    2  502  501 -0.31251108298E+02  0.45786776396E+01 -0.70018655698E+02  0.76812812763E+02  0.00000000000E+00 0. -1.
<scales pt_clust_5="13000.00000" pt_clust_6="13000.00000" pt_clust_7="13000.00000" pt_clust_8="13000.00000" pt_clust_9="31.58474"></scales>
<clustering>
<clus scale="   31.585">  2  9  1 -1</clus>
<clus scale="   90.986">  5  6 -1 -1</clus>
<clus scale="   91.304">  7  8 -1 -1</clus>
<clus scale="   93.094">  2  5  1 -1</clus>
<clus scale="   31.585">  2  5  1 -1</clus>
</clustering>
</event>
<event>
 9    1  0.1803370E-005  0.1012272E+03  0.7546771E-02  0.1280622E+00
         -2   -1    0    0    0  501 -0.00000000000E+00  0.00000000000E+00  0.64391592890E+02  0.64391592890E+02  0.00000000000E+00 0.  1.
          2   -1    0    0  502    0  0.00000000000E+00 -0.00000000000E+00 -0.38104580019E+03  0.38104580019E+03  0.00000000000E+00 0. -1.
         23    2    1    2    0    0  0.43497523896E+02 -0.28897952026E+02 -0.34880740427E+02  0.11439539828E+03  0.95616498985E+02 0.  0.
         23    2    1    2    0    0 -0.15995764631E+02 -0.20580909597E+02 -0.85426482974E+02  0.12669757331E+03  0.89861853766E+02 0.  0.
        -11    1    3    3    0    0  0.73035372372E+01 -0.58105768441E+02 -0.34328939054E+02  0.67882973114E+02  0.00000000000E+00 0. -1.
         11    1    3    3    0    0  0.36193986659E+02  0.29207816415E+02 -0.55180137361E+00  0.46512425165E+02  0.00000000000E+00 0.  1.
        -13    1    4    4    0    0  0.22821463042E+02  0.23187772291E+02 -0.17123588544E+02  0.36765598646E+02  0.00000000000E+00 0.  1.
         13    1    4    4    0    0 -0.38817227673E+02 -0.43768681889E+02 -0.68302894431E+02  0.89931974659E+02  0.00000000000E+00 0. -1.
         21    1    1    2  502  501 -0.27501759265E+02  0.49478861624E+02 -0.19634698390E+03  0.20434442150E+03  0.00000000000E+00 0. -1.
<scales pt_clust_5="13000.00000" pt_clust_6="13000.00000" pt_clust_7="13000.00000" pt_clust_8="13000.00000" pt_clust_9="56.60834"></scales>
<clustering>
<clus scale="   56.608">  2  9  1 -1</clus>
<clus scale="   89.862">  7  8 -1 -1</clus>
<clus scale="   95.616">  5  6 -1 -1</clus>
<clus scale="   95.810">  2  7  1 -1</clus>
<clus scale="   56.608">  2  5  1 -1</clus>
</clustering>
</event>
<event>
 9    1  0.1803370E-005  0.2319606E+03  0.7546771E-02  0.1125950E+00
          1   -1    0    0  502    0  0.00000000000E+00  0.00000000000E+00  0.23533880136E+03  0.23533880136E+03  0.00000000000E+00 0. -1.
         -1   -1    0    0    0  501 -0.00000000000E+00 -0.00000000000E+00 -0.12021058369E+04  0.12021058369E+04  0.00000000000E+00 0.  1.
         23    2    1    2    0    0 -0.19081322728E+03 -0.94432066886E+02 -0.11205595105E+04  0.11448950396E+04  0.99014807872E+02 0.  0.
         23    2    1    2    0    0  0.15859230946E+03  0.45806878047E+02  0.13493862711E+03  0.23124654724E+03  0.89536259856E+02 0.  0.
        -11    1    4    4    0    0  0.16336454153E+03  0.23792097061E+02  0.11534634745E+03  0.20139219743E+03  0.00000000000E+00 0. -1.
         11    1    4    4    0    0 -0.47722320738E+01  0.22014780986E+02  0.19592279658E+02  0.29854349818E+02  0.00000000000E+00 0.  1.
        -11    1    3    3    0    0 -0.26367169208E+02 -0.52372408038E+02 -0.18524960110E+03  0.19430777504E+03  0.00000000000E+00 0. -1.
         11    1    3    3    0    0 -0.16444605808E+03 -0.42059658848E+02 -0.93530990944E+03  0.95058726460E+03  0.00000000000E+00 0.  1.
         21    1    1    2  502  501  0.32220917825E+02  0.48625188839E+02  0.18853847832E+02  0.61303051418E+02  0.00000000000E+00 0.  1.
<scales pt_clust_5="13000.00000" pt_clust_6="13000.00000" pt_clust_7="13000.00000" pt_clust_8="13000.00000" pt_clust_9="58.33178"></scales>
<clustering>
<clus scale="   58.332">  1  9  2 -1</clus>
<clus scale="   89.536">  5  6 -1 -1</clus>
<clus scale="   99.015">  7  8 -1 -1</clus>
<clus scale="  228.076">  1  5  2 -1</clus>
<clus scale="   58.332">  1  5  2 -1</clus>
</clustering>
</event>
<event>
 9    1  0.1803370E-005  0.1026323E+03  0.7546771E-02  0.1276386E+00
         -3   -1    0    0    0  501 -0.00000000000E+00  0.00000000000E+00  0.16730510571E+03  0.16730510571E+03  0.00000000000E+00 0.  1.
          3   -1    0    0  502    0  0.00000000000E+00 -0.00000000000E+00 -0.10211285272E+03  0.10211285272E+03  0.00000000000E+00 0. -1.
         23    2    1    2    0    0 -0.34147819731E+02 -0.64264187746E+01  0.76106257440E+02  0.12893164521E+03  0.98101143036E+02 0.  0.
         23    2    1    2    0    0  0.23839043350E+02 -0.15390782296E+02  0.20131786436E+02  0.10116580630E+03  0.94995028143E+02 0.  0.
        -11    1    4    4    0    0 -0.23984724520E+02  0.61067785839E+01  0.38362503331E+02  0.45653492932E+02  0.00000000000E+00 0. -1.
         11    1    4    4    0    0  0.47823767870E+02 -0.21497560880E+02 -0.18230716895E+02  0.55512313369E+02  0.00000000000E+00 0.  1.
        -13    1    3    3    0    0 -0.85321121737E+01  0.44260961464E+02  0.46975375122E+02  0.65103882494E+02  0.00000000000E+00 0.  1.
         13    1    3    3    0    0 -0.25615707558E+02 -0.50687380238E+02  0.29130882318E+02  0.63827762719E+02  0.00000000000E+00 0. -1.
         21    1    1    2  502  501  0.10308776381E+02  0.21817201071E+02 -0.31045790887E+02  0.39320506925E+02  0.00000000000E+00 0. -1.
<scales pt_clust_5="13000.00000" pt_clust_6="13000.00000" pt_clust_7="13000.00000" pt_clust_8="13000.00000" pt_clust_9="24.13009"></scales>
<clustering>
<clus scale="   24.130">  2  9  1 -1</clus>
<clus scale="   94.995">  5  6 -1 -1</clus>
<clus scale="   98.101">  7  8 -1 -1</clus>
<clus scale="   99.667">  2  5  1 -1</clus>
<clus scale="   24.130">  2  5  1 -1</clus>
</clustering>
</event>
<event>
 9    1  0.1803370E-005  0.1021311E+03  0.7546771E-02  0.1275936E+00
         -1   -1    0    0    0  501 -0.00000000000E+00  0.00000000000E+00  0.54232395613E+02  0.54232395613E+02  0.00000000000E+00 0.  1.
          1   -1    0    0  502    0  0.00000000000E+00 -0.00000000000E+00 -0.36201460461E+03  0.36201460461E+03  0.00000000000E+00 0. -1.
         23    2    1    2    0    0 -0.10692384001E+02 -0.68173433911E+02 -0.72516243573E+02  0.13438963604E+03  0.89666183857E+02 0.  0.
         23    2    1    2    0    0 -0.13986556057E+02  0.27248145321E+02 -0.96773415155E+02  0.13535099637E+03  0.89536099780E+02 0.  0.
        -11    1    3    3    0    0 -0.47068927971E+01 -0.25048576015E+02 -0.85289612557E+02  0.89016313170E+02  0.00000000000E+00 0. -1.
         11    1    3    3    0    0 -0.59854912038E+01 -0.43124857896E+02  0.12773368984E+02  0.45373322875E+02  0.00000000000E+00 0.  1.
        -13    1    4    4    0    0 -0.52229101839E+02  0.17076208536E+02 -0.59427395765E+02  0.80938812348E+02  0.00000000000E+00 0.  1.
         13    1    4    4    0    0  0.38242545782E+02  0.10171936784E+02 -0.37346019390E+02  0.54412184022E+02  0.00000000000E+00 0. -1.
         21    1    1    2  502  501  0.24678940058E+02  0.40925288590E+02 -0.13849255027E+03  0.14650636781E+03  0.00000000000E+00 0. -1.
<scales pt_clust_5="13000.00000" pt_clust_6="13000.00000" pt_clust_7="13000.00000" pt_clust_8="13000.00000" pt_clust_9="47.79047"></scales>
<clustering>
<clus scale="   47.790">  2  9  1 -1</clus>
<clus scale="   89.536">  7  8 -1 -1</clus>
<clus scale="   89.666">  5  6 -1 -1</clus>
<clus scale="  102.017">  2  7  1 -1</clus>
<clus scale="   47.790">  2  5  1 -1</clus>
</clustering>
</event>
<event>
 9    1  0.1803370E-005  0.2703135E+03  0.7546771E-02  0.1101169E+00
          1   -1    0    0  502    0  0.00000000000E+00  0.00000000000E+00  0.18265152408E+04  0.18265152408E+04  0.00000000000E+00 0. -1.
         -1   -1    0    0    0  501 -0.00000000000E+00 -0.00000000000E+00 -0.54637098157E+02  0.54637098157E+02  0.00000000000E+00 0.  1.
         23    2    1    2    0    0 -0.21976139295E+03  0.14046241296E+03  0.43732681106E+03  0.51760035369E+03  0.92901168864E+02 0.  0.
         23    2    1    2    0    0  0.19867581975E+03 -0.12852210352E+03  0.11669659287E+04  0.11942237843E+04  0.91492927515E+02 0.  0.
        -11    1    4    4    0    0  0.93312610708E+02 -0.98296375822E+02  0.79397940726E+03  0.80546428845E+03  0.00000000000E+00 0. -1.
         11    1    4    4    0    0  0.10536320904E+03 -0.30225727694E+02  0.37298652148E+03  0.38875949588E+03  0.00000000000E+00 0.  1.
        -11    1    3    3    0    0 -0.19267674803E+03  0.14010670937E+03  0.33062002678E+03  0.40750928989E+03  0.00000000000E+00 0.  1.
         11    1    3    3    0    0 -0.27084644919E+02  0.35570359764E+00  0.10670678428E+03  0.11009106379E+03  0.00000000000E+00 0. -1.
         21    1    1    2  502  501  0.21085573202E+02 -0.11940309448E+02  0.16758540289E+03  0.16932820098E+03  0.00000000000E+00 0.  1.
<scales pt_clust_5="13000.00000" pt_clust_6="13000.00000" pt_clust_7="13000.00000" pt_clust_8="13000.00000" pt_clust_9="24.23164"></scales>
<clustering>
<clus scale="   24.232">  1  9  2 -1</clus>
<clus scale="   91.493">  5  6 -1 -1</clus>
<clus scale="   92.901">  7  8 -1 -1</clus>
<clus scale="  269.833">  1  5  2 -1</clus>
<clus scale="   24.232">  1  5  2 -1</clus>
</clustering>
</event>
<event>
 9    1  0.1803370E-005  0.3297880E+03  0.7546771E-02  0.1071246E+00
         -1   -1    0    0    0  501 -0.00000000000E+00  0.00000000000E+00  0.23182441890E+03  0.23182441890E+03  0.00000000000E+00 0.  1.
          1   -1    0    0  502    0  0.00000000000E+00 -0.00000000000E+00 -0.66527086457E+03  0.66527086457E+03  0.00000000000E+00 0. -1.
         23    2    1    2    0    0 -0.18676111814E+03  0.21914310908E+03 -0.11236985445E+03  0.32206021962E+03  0.90511785788E+02 0.  0.
         23    2    1    2    0    0  0.18966560878E+03 -0.31604104531E+03 -0.26565698900E+03  0.46337048387E+03  0.91014196888E+02 0.  0.
        -13    1    4    4    0    0  0.52817462838E+01 -0.69291085462E+02 -0.30761502923E+02  0.75996193526E+02  0.00000000000E+00 0.  1.
         13    1    4    4    0    0  0.18438386250E+03 -0.24674995985E+03 -0.23489548608E+03  0.38737429034E+03  0.00000000000E+00 0. -1.
        -13    1    3    3    0    0 -0.12391533122E+03  0.87606508321E+02 -0.30246260201E+02  0.15474089914E+03  0.00000000000E+00 0. -1.
         13    1    3    3    0    0 -0.62845786922E+02  0.13153660075E+03 -0.82123594247E+02  0.16731932047E+03  0.00000000000E+00 0.  1.
         21    1    1    2  502  501 -0.29044906380E+01  0.96897936237E+02 -0.55419602220E+02  0.11166457998E+03  0.00000000000E+00 0.  1.
<scales pt_clust_5="13000.00000" pt_clust_6="13000.00000" pt_clust_7="13000.00000" pt_clust_8="13000.00000" pt_clust_9="96.94146"></scales>
<clustering>
<clus scale="   90.512">  7  8 -1 -1</clus>
<clus scale="   91.014">  5  6 -1 -1</clus>
<clus scale="   96.941">  2  9  1 -1</clus>
<clus scale="  329.650">  1  7  2 -1</clus>
<clus scale="   96.941">  2  5  1 -1</clus>
</clustering>
</event>
<event>
 9    1  0.1803370E-005  0.1794717E+03  0.7546771E-02  0.1168571E+00
          1   -1    0    0  502    0  0.00000000000E+00  0.00000000000E+00  0.28887533344E+03  0.28887533344E+03  0.00000000000E+00 0. -1.
         -1   -1    0    0    0  501 -0.00000000000E+00 -0.00000000000E+00 -0.21450072015E+03  0.21450072015E+03  0.00000000000E+00 0.  1.
         23    2    1    2    0    0 -0.95959900668E+02 -0.64703025918E+02  0.34300431874E+02  0.15346267753E+03  0.94760169205E+02 0.  0.
         23    2    1    2    0    0  0.95993926186E+02  0.18067795629E+03 -0.70027152940E+01  0.22474780637E+03  0.92753332502E+02 0.  0.
        -11    1    3    3    0    0 -0.67237405224E+02  0.59388228953E+01 -0.49801242401E+01  0.67682641172E+02  0.00000000000E+00 0. -1.
         11    1    3    3    0    0 -0.28722495445E+02 -0.70641848813E+02  0.39280556114E+02  0.85780036354E+02  0.00000000000E+00 0.  1.
        -13    1    4    4    0    0  0.56297522086E+02  0.57066611807E+02 -0.41703397457E+02  0.90361399589E+02  0.00000000000E+00 0.  1.
         13    1    4    4    0    0  0.39696404100E+02  0.12361134449E+03  0.34700682163E+02  0.13438640678E+03  0.00000000000E+00 0. -1.
         21    1    1    2  502  501 -0.34025517386E-01 -0.11597493037E+03  0.47076896716E+02  0.12516556970E+03  0.00000000000E+00 0. -1.
<scales pt_clust_5="13000.00000" pt_clust_6="13000.00000" pt_clust_7="13000.00000" pt_clust_8="13000.00000" pt_clust_9="115.97494"></scales>
<clustering>
<clus scale="   92.753">  7  8 -1 -1</clus>
<clus scale="   94.760">  5  6 -1 -1</clus>
<clus scale="  115.975">  1  9  2 -1</clus>
<clus scale="  178.420">  1  7  2 -1</clus>
<clus scale="  115.975">  1  5  2 -1</clus>
</clustering>
</event>
<event>
 9    1  0.1803370E-005  0.1138024E+03  0.7546771E-02  0.1253897E+00
          1   -1    0    0  502    0  0.00000000000E+00  0.00000000000E+00  0.34422723290E+03  0.34422723290E+03  0.00000000000E+00 0. -1.
         -1   -1    0    0    0  501 -0.00000000000E+00 -0.00000000000E+00 -0.20805284427E+03  0.20805284427E+03  0.00000000000E+00 0.  1.
         23    2    1    2    0    0  0.32319482305E+02 -0.73469533894E+02 -0.15836944348E+03  0.19930351486E+03  0.90546612639E+02 0.  0.
         23    2    1    2    0    0  0.30415384916E+02  0.51980419410E+01  0.10790352630E+03  0.14457487342E+03  0.91140593358E+02 0.  0.
        -11    1    4    4    0    0  0.53839996458E+02  0.34814240629E+00  0.10797391512E+03  0.12065335788E+03  0.00000000000E+00 0. -1.
         11    1    4    4    0    0 -0.23424611542E+02  0.48498995348E+01 -0.70388815719E-01  0.23921515545E+02  0.00000000000E+00 0.  1.
        -11    1    3    3    0    0 -0.23898838438E+02 -0.42468864993E+02 -0.34249214290E+02  0.59563140045E+02  0.00000000000E+00 0. -1.
         11    1    3    3    0    0  0.56218320743E+02 -0.31000668901E+02 -0.12412022919E+03  0.13974037482E+03  0.00000000000E+00 0.  1.
         21    1    1    2  502  501 -0.62734867221E+02  0.68271491953E+02  0.18664030581E+03  0.20840168889E+03  0.00000000000E+00 0. -1.
<scales pt_clust_5="13000.00000" pt_clust_6="13000.00000" pt_clust_7="13000.00000" pt_clust_8="13000.00000" pt_clust_9="92.71818"></scales>
<clustering>
<clus scale="   90.547">  7  8 -1 -1</clus>
<clus scale="   91.141">  5  6 -1 -1</clus>
<clus scale="   92.718">  1  9  2 -1</clus>
<clus scale="  113.327">  2  7  1 -1</clus>
<clus scale="   92.718">  1  5  2 -1</clus>
</clustering>
</event>
<event>
 9    1  0.1803370E-005  0.1020445E+03  0.7546771E-02  0.1276811E+00
         -2   -1    0    0    0  501 -0.00000000000E+00  0.00000000000E+00  0.55314024033E+02  0.55314024033E+02  0.00000000000E+00 0.  1.
          2   -1    0    0  502    0  0.00000000000E+00 -0.00000000000E+00 -0.25662499470E+03  0.25662499470E+03  0.00000000000E+00 0. -1.
         23    2    1    2    0    0 -0.40235380719E+02 -0.19641510433E+02 -0.58350929328E+02  0.11679018388E+03  0.90721779656E+02 0.  0.
         23    2    1    2    0    0  0.45709395717E+02 -0.63483282896E+01 -0.94839439096E+02  0.14018494746E+03  0.92345276853E+02 0.  0.
        -11    1    4    4    0    0 -0.99183716084E+01  0.32167259266E+02 -0.19412334867E+02  0.38858016020E+02  0.00000000000E+00 0.  1.
         11    1    4    4    0    0  0.55627767326E+02 -0.38515587555E+02 -0.75427104229E+02  0.10132693144E+03  0.00000000000E+00 0. -1.
        -11    1    3    3    0    0  0.17559357881E+02 -0.14333902824E+02 -0.54029447592E+02  0.58591578119E+02  0.00000000000E+00 0. -1.
         11    1    3    3    0    0 -0.57794738600E+02 -0.53076076092E+01 -0.43214817362E+01  0.58198605763E+02  0.00000000000E+00 0.  1.
         21    1    1    2  502  501 -0.54740149986E+01  0.25989838723E+02 -0.48120602239E+02  0.54963887389E+02  0.00000000000E+00 0.  1.
<scales pt_clust_5="13000.00000" pt_clust_6="13000.00000" pt_clust_7="13000.00000" pt_clust_8="13000.00000" pt_clust_9="26.56006"></scales>
<clustering>
<clus scale="   26.560">  2  9  1 -1</clus>
<clus scale="   90.722">  7  8 -1 -1</clus>
<clus scale="   92.345">  5  6 -1 -1</clus>
<clus scale="  100.578">  1  7  2 -1</clus>
<clus scale="   26.560">  2  5  1 -1</clus>
</clustering>
</event>
<event>
 9    1  0.1803370E-005  0.1297120E+03  0.7546771E-02  0.1228532E+00
         -2   -1    0    0    0  501 -0.00000000000E+00  0.00000000000E+00  0.21301107566E+03  0.21301107566E+03  0.00000000000E+00 0.  1.
          2   -1    0    0  502    0  0.00000000000E+00 -0.00000000000E+00 -0.13011333947E+03  0.13011333947E+03  0.00000000000E+00 0. -1.
         23    2    1    2    0    0  0.71612320998E+02  0.27786296969E+02  0.59305463454E+02  0.13280247179E+03  0.90658456314E+02 0.  0.
         23    2    1    2    0    0 -0.11713849143E+03  0.42520826106E+01  0.34470874539E+02  0.15359951446E+03  0.93086321602E+02 0.  0.
        -11    1    4    4    0    0 -0.42620839926E+02  0.28352655858E+02 -0.23335954127E+02  0.56258118039E+02  0.00000000000E+00 0. -1.
         11    1    4    4    0    0 -0.74517651505E+02 -0.24100573247E+02  0.57806828666E+02  0.97341396421E+02  0.00000000000E+00 0.  1.
        -11    1    3    3    0    0  0.24342875067E+02  0.47512800763E+02 -0.13633963723E+01  0.53403189535E+02  0.00000000000E+00 0. -1.
         11    1    3    3    0    0  0.47269445931E+02 -0.19726503795E+02  0.60668859826E+02  0.79399282259E+02  0.00000000000E+00 0.  1.
         21    1    1    2  502  501  0.45526170433E+02 -0.32038379579E+02 -0.10878601799E+02  0.56722428875E+02  0.00000000000E+00 0. -1.
<scales pt_clust_5="13000.00000" pt_clust_6="13000.00000" pt_clust_7="13000.00000" pt_clust_8="13000.00000" pt_clust_9="55.66947"></scales>
<clustering>
<clus scale="   55.669">  2  9  1 -1</clus>
<clus scale="   90.658">  7  8 -1 -1</clus>
<clus scale="   93.086">  5  6 -1 -1</clus>
<clus scale="  127.981">  1  7  2 -1</clus>
<clus scale="   55.669">  2  5  1 -1</clus>
</clustering>
</event>
<event>
 9    1  0.1803370E-005  0.1646065E+03  0.7546771E-02  0.1183605E+00
         -1   -1    0    0    0  501 -0.00000000000E+00  0.00000000000E+00  0.16521429755E+03  0.16521429755E+03  0.00000000000E+00 0.  1.
          1   -1    0    0  502    0  0.00000000000E+00 -0.00000000000E+00 -0.28427109663E+03  0.28427109663E+03  0.00000000000E+00 0. -1.
         23    2    1    2    0    0  0.13653568814E+03  0.32862872083E+02  0.76811490518E+02  0.18443148450E+03  0.91613344564E+02 0.  0.
         23    2    1    2    0    0 -0.11679964710E+03 -0.42491381914E+02 -0.15594320883E+03  0.21948822531E+03  0.91701262622E+02 0.  0.
        -13    1    3    3    0    0  0.10422933037E+03  0.64401343953E+02  0.55420586846E+02  0.13447203374E+03  0.00000000000E+00 0. -1.
         13    1    3    3    0    0  0.32306357775E+02 -0.31538471870E+02  0.21390903672E+02  0.49959450762E+02  0.00000000000E+00 0.  1.
        -13    1    4    4    0    0 -0.94033386220E+02 -0.57359826989E+02 -0.72849507741E+02  0.13205861674E+03  0.00000000000E+00 0. -1.
         13    1    4    4    0    0 -0.22766260884E+02  0.14868445075E+02 -0.83093701091E+02  0.87429608569E+02  0.00000000000E+00 0.  1.
         21    1    1    2  502  501 -0.19736041037E+02  0.96285098309E+01 -0.39925080775E+02  0.45565684372E+02  0.00000000000E+00 0.  1.
<scales pt_clust_5="13000.00000" pt_clust_6="13000.00000" pt_clust_7="13000.00000" pt_clust_8="13000.00000" pt_clust_9="21.95950"></scales>
<clustering>
<clus scale="   21.959">  2  9  1 -1</clus>
<clus scale="   91.613">  5  6 -1 -1</clus>
<clus scale="   91.701">  7  8 -1 -1</clus>
<clus scale="  164.558">  1  5  2 -1</clus>
<clus scale="   21.959">  2  5  1 -1</clus>
</clustering>
</event>
<event>
 9    1  0.1803370E-005  0.1412372E+03  0.7546771E-02  0.1227572E+00
          1   -1    0    0  502    0  0.00000000000E+00  0.00000000000E+00  0.10964833537E+04  0.10964833537E+04  0.00000000000E+00 0. -1.
         -1   -1    0    0    0  501 -0.00000000000E+00 -0.00000000000E+00 -0.35028961288E+02  0.35028961288E+02  0.00000000000E+00 0.  1.
         23    2    1    2    0    0 -0.42867252287E+02  0.46418799177E+01  0.21234423368E+03  0.23519628336E+03  0.91477154324E+02 0.  0.
         23    2    1    2    0    0  0.69230232573E+02  0.98171771701E+02  0.28656182374E+03  0.32384220437E+03  0.91244575976E+02 0.  0.
        -11    1    4    4    0    0  0.89724726604E+02  0.76510683514E+02  0.19865891991E+03  0.23101899861E+03  0.00000000000E+00 0.  1.
         11    1    4    4    0    0 -0.20494494031E+02  0.21661088188E+02  0.87902903829E+02  0.92823205765E+02  0.00000000000E+00 0. -1.
        -13    1    3    3    0    0 -0.64024443787E+00 -0.34460992769E+02  0.13161445227E+03  0.13605268825E+03  0.00000000000E+00 0.  1.
         13    1    3    3    0    0 -0.42227007849E+02  0.39102872687E+02  0.80729781412E+02  0.99143595108E+02  0.00000000000E+00 0. -1.
         21    1    1    2  502  501 -0.26362980286E+02 -0.10281365162E+03  0.56254833498E+03  0.57247382724E+03  0.00000000000E+00 0. -1.
<scales pt_clust_5="13000.00000" pt_clust_6="13000.00000" pt_clust_7="13000.00000" pt_clust_8="13000.00000" pt_clust_9="107.80717"></scales>
<clustering>
<clus scale="   91.245">  5  6 -1 -1</clus>
<clus scale="   91.477">  7  8 -1 -1</clus>
<clus scale="  101.130">  2  7  1 -1</clus>
<clus scale="  107.807">  1  9  2 -1</clus>
<clus scale="  107.807">  1  5  2 -1</clus>
</clustering>
</event>
<event>
 9    1  0.1803370E-005  0.1016498E+03  0.7546771E-02  0.1282046E+00
         -1   -1    0    0    0  501 -0.00000000000E+00  0.00000000000E+00  0.83960970414E+02  0.83960970414E+02  0.00000000000E+00 0.  1.
          1   -1    0    0  502    0  0.00000000000E+00 -0.00000000000E+00 -0.25261101406E+03  0.25261101406E+03  0.00000000000E+00 0. -1.
         23    2    1    2    0    0  0.21107352603E+02 -0.16302122649E+02  0.31006107448E+02  0.10034289609E+03  0.91629899927E+02 0.  0.
         23    2    1    2    0    0 -0.26823022402E+02  0.38709583361E+02 -0.18869278715E+03  0.21063693088E+03  0.80901436023E+02 0.  0.
        -11    1    4    4    0    0 -0.21783488161E+01  0.60183339743E+02 -0.10960145651E+03  0.12505702241E+03  0.00000000000E+00 0. -1.
         11    1    4    4    0    0 -0.24644673586E+02 -0.21473756382E+02 -0.79091330645E+02  0.85579908463E+02  0.00000000000E+00 0.  1.
        -13    1    3    3    0    0  0.29609703504E+02  0.35985700924E+01  0.58314015662E+02  0.65499684510E+02  0.00000000000E+00 0.  1.
         13    1    3    3    0    0 -0.85023509003E+01 -0.19900692741E+02 -0.27307908214E+02  0.34843211584E+02  0.00000000000E+00 0. -1.
         21    1    1    2  502  501  0.57156697985E+01 -0.22407460712E+02 -0.10963363939E+02  0.25592157503E+02  0.00000000000E+00 0. -1.
<scales pt_clust_5="13000.00000" pt_clust_6="13000.00000" pt_clust_7="13000.00000" pt_clust_8="13000.00000" pt_clust_9="23.12495"></scales>
<clustering>
<clus scale="   23.125">  1  9  2 -1</clus>
<clus scale="   80.901">  5  6 -1 -1</clus>
<clus scale="   91.630">  7  8 -1 -1</clus>
<clus scale="   92.096">  2  5  1 -1</clus>
<clus scale="   92.096">  2  5  1 -1</clus>
</clustering>
</event>
<event>
 9    1  0.1803370E-005  0.1180238E+03  0.7546771E-02  0.1246993E+00
         -4   -1    0    0    0  501 -0.00000000000E+00  0.00000000000E+00  0.13214348662E+03  0.13214348662E+03  0.00000000000E+00 0.  1.
          4   -1    0    0  502    0  0.00000000000E+00 -0.00000000000E+00 -0.20146255282E+03  0.20146255282E+03  0.00000000000E+00 0. -1.
         23    2    1    2    0    0 -0.72073406356E+02 -0.24702337777E+02  0.20941437948E+02  0.12032702441E+03  0.90748375106E+02 0.  0.
         23    2    1    2    0    0  0.50281987667E+02  0.64906161340E+02 -0.10669149768E+02  0.12148578516E+03  0.88903752320E+02 0.  0.
        -11    1    3    3    0    0  0.14280216355E+02 -0.14411557063E+02 -0.16003151046E+02  0.25840247668E+02  0.00000000000E+00 0.  1.
         11    1    3    3    0    0 -0.86353622711E+02 -0.10290780714E+02  0.36944588994E+02  0.94486776741E+02  0.00000000000E+00 0. -1.
        -13    1    4    4    0    0  0.46667730726E+02  0.85995793453E+02 -0.61537992249E+00  0.97844428943E+02  0.00000000000E+00 0.  1.
         13    1    4    4    0    0  0.36142569404E+01 -0.21089632113E+02 -0.10053769846E+02  0.23641356222E+02  0.00000000000E+00 0. -1.
         21    1    1    2  502  501  0.21791418690E+02 -0.40203823563E+02 -0.79591354373E+02  0.91793229863E+02  0.00000000000E+00 0. -1.
<scales pt_clust_5="13000.00000" pt_clust_6="13000.00000" pt_clust_7="13000.00000" pt_clust_8="13000.00000" pt_clust_9="45.72979"></scales>
<clustering>
<clus scale="   45.730">  2  9  1 -1</clus>
<clus scale="   88.904">  7  8 -1 -1</clus>
<clus scale="   90.748">  5  6 -1 -1</clus>
<clus scale="  116.611">  2  7  1 -1</clus>
<clus scale="   45.730">  2  5  1 -1</clus>
</clustering>
</event>
<event>
 9    1  0.1803370E-005  0.2231313E+03  0.7546771E-02  0.1131570E+00
          1   -1    0    0  502    0  0.00000000000E+00  0.00000000000E+00  0.34320663264E+03  0.34320663264E+03  0.00000000000E+00 0. -1.
         -1   -1    0    0    0  501 -0.00000000000E+00 -0.00000000000E+00 -0.33247692767E+03  0.33247692767E+03  0.00000000000E+00 0.  1.
         23    2    1    2    0    0 -0.56448543722E+02 -0.18189857901E+03 -0.11598701235E+03  0.24124009741E+03  0.92034050394E+02 0.  0.
         23    2    1    2    0    0  0.91207751741E+02  0.20452845385E+03 -0.54807651367E+02  0.24824085765E+03  0.92026639335E+02 0.  0.
        -13    1    4    4    0    0  0.33397068694E+02  0.72258344261E+02  0.24820822010E+02  0.83382886241E+02  0.00000000000E+00 0. -1.
         13    1    4    4    0    0  0.57810683047E+02  0.13227010959E+03 -0.79628473378E+02  0.16485797141E+03  0.00000000000E+00 0.  1.
        -13    1    3    3    0    0 -0.81294417836E+02 -0.13391663111E+03 -0.95375191295E+02  0.18340903351E+03  0.00000000000E+00 0.  1.
         13    1    3    3    0    0  0.24845874114E+02 -0.47981947899E+02 -0.20611821053E+02  0.57831063900E+02  0.00000000000E+00 0. -1.
         21    1    1    2  502  501 -0.34759208019E+02 -0.22629874841E+02  0.18152436869E+03  0.18620260526E+03  0.00000000000E+00 0. -1.
<scales pt_clust_5="13000.00000" pt_clust_6="13000.00000" pt_clust_7="13000.00000" pt_clust_8="13000.00000" pt_clust_9="41.47667"></scales>
<clustering>
<clus scale="   41.477">  1  9  2 -1</clus>
<clus scale="   92.027">  5  6 -1 -1</clus>
<clus scale="   92.034">  7  8 -1 -1</clus>
<clus scale="  223.128">  1  5  2 -1</clus>
<clus scale="   41.477">  1  5  2 -1</clus>
</clustering>
</event>
<event>
 9    1  0.1803370E-005  0.1581361E+03  0.7546771E-02  0.1191110E+00
         -2   -1    0    0    0  501 -0.00000000000E+00  0.00000000000E+00  0.32743549070E+02  0.32743549070E+02  0.00000000000E+00 0.  1.
          2   -1    0    0  502    0  0.00000000000E+00 -0.00000000000E+00 -0.99257980939E+03  0.99257980939E+03  0.00000000000E+00 0. -1.
         23    2    1    2    0    0 -0.71137849689E+02  0.12186854371E+03 -0.36112163749E+03  0.39858110058E+03  0.92441987607E+02 0.  0.
         23    2    1    2    0    0  0.59120878065E+02 -0.98202293635E+02 -0.39259827005E+03  0.41892394809E+03  0.90691256131E+02 0.  0.
        -11    1    3    3    0    0  0.51202665715E+01  0.66801469656E+02 -0.94392383483E+02  0.11575221612E+03  0.00000000000E+00 0.  1.
         11    1    3    3    0    0 -0.76258116260E+02  0.55067074056E+02 -0.26672925401E+03  0.28282888446E+03  0.00000000000E+00 0. -1.
        -13    1    4    4    0    0 -0.17912932928E+02 -0.23419735470E+02 -0.16064795201E+03  0.16333132480E+03  0.00000000000E+00 0. -1.
         13    1    4    4    0    0  0.77033810993E+02 -0.74782558165E+02 -0.23195031804E+03  0.25559262329E+03  0.00000000000E+00 0.  1.
         21    1    1    2  502  501  0.12016971624E+02 -0.23666250078E+02 -0.20611635277E+03  0.20781830978E+03  0.00000000000E+00 0. -1.
<scales pt_clust_5="13000.00000" pt_clust_6="13000.00000" pt_clust_7="13000.00000" pt_clust_8="13000.00000" pt_clust_9="26.54240"></scales>
<clustering>
<clus scale="   26.542">  2  9  1 -1</clus>
<clus scale="   90.691">  7  8 -1 -1</clus>
<clus scale="   92.442">  5  6 -1 -1</clus>
<clus scale="  157.119">  2  7  1 -1</clus>
<clus scale="   26.542">  2  5  1 -1</clus>
</clustering>
</event>
<event>
 9    1  0.1803370E-005  0.2535034E+03  0.7546771E-02  0.1111342E+00
          1   -1    0    0  502    0  0.00000000000E+00  0.00000000000E+00  0.11114450464E+04  0.11114450464E+04  0.00000000000E+00 0. -1.
         -1   -1    0    0    0  501 -0.00000000000E+00 -0.00000000000E+00 -0.95270414159E+02  0.95270414159E+02  0.00000000000E+00 0.  1.
         23    2    1    2    0    0  0.21260830860E+03 -0.87130842135E+02  0.14949674550E+03  0.28861124263E+03  0.90294495526E+02 0.  0.
         23    2    1    2    0    0 -0.23152629418E+03  0.10531998039E+03  0.72672385333E+03  0.77571086697E+03  0.94356064825E+02 0.  0.
        -13    1    4    4    0    0 -0.11588568935E+03  0.53219898914E+02  0.22933442194E+03  0.26240451163E+03  0.00000000000E+00 0.  1.
         13    1    4    4    0    0 -0.11564060484E+03  0.52100081475E+02  0.49738943139E+03  0.51330635535E+03  0.00000000000E+00 0. -1.
        -13    1    3    3    0    0  0.27713749158E+02  0.14045152713E+02  0.41339703374E+02  0.51713530938E+02  0.00000000000E+00 0. -1.
         13    1    3    3    0    0  0.18489455944E+03 -0.10117599485E+03  0.10815704213E+03  0.23689771169E+03  0.00000000000E+00 0.  1.
         21    1    1    2  502  501  0.18917985587E+02 -0.18189138254E+02  0.13995403343E+03  0.14239335098E+03  0.00000000000E+00 0. -1.
<scales pt_clust_5="13000.00000" pt_clust_6="13000.00000" pt_clust_7="13000.00000" pt_clust_8="13000.00000" pt_clust_9="26.24376"></scales>
<clustering>
<clus scale="   26.244">  1  9  2 -1</clus>
<clus scale="   90.294">  7  8 -1 -1</clus>
<clus scale="   94.356">  5  6 -1 -1</clus>
<clus scale="  252.020">  2  7  1 -1</clus>
<clus scale="   26.244">  1  5  2 -1</clus>
</clustering>
</event>
<event>
 9    1  0.1803370E-005  0.2353163E+03  0.7546771E-02  0.1123048E+00
         -2   -1    0    0    0  501 -0.00000000000E+00  0.00000000000E+00  0.40808234633E+03  0.40808234633E+03  0.00000000000E+00 0. -1.
          2   -1    0    0  502    0  0.00000000000E+00 -0.00000000000E+00 -0.70685525122E+03  0.70685525122E+03  0.00000000000E+00 0.  1.
         23    2    1    2    0    0  0.10036037505E+03  0.18985000620E+03  0.34184242461E+03  0.41407568622E+03  0.92126005673E+02 0.  0.
         23    2    1    2    0    0 -0.92376623590E+02 -0.21801636276E+03 -0.58548021545E+03  0.63843623769E+03  0.93537008144E+02 0.  0.
        -11    1    4    4    0    0 -0.31499699733E+02 -0.34285044197E+02 -0.46698993926E+02  0.65943091924E+02  0.00000000000E+00 0. -1.
         11    1    4    4    0    0 -0.60876923857E+02 -0.18373131856E+03 -0.53878122152E+03  0.57249314576E+03  0.00000000000E+00 0.  1.
        -11    1    3    3    0    0  0.16374053270E+02  0.87213018823E+02  0.20565914987E+03  0.22398639735E+03  0.00000000000E+00 0.  1.
         11    1    3    3    0    0  0.83986321783E+02  0.10263698738E+03  0.13618327474E+03  0.19008928887E+03  0.00000000000E+00 0. -1.
         21    1    1    2  502  501 -0.79837514635E+01  0.28166356559E+02 -0.55135114048E+02  0.62425673647E+02  0.00000000000E+00 0. -1.
<scales pt_clust_5="13000.00000" pt_clust_6="13000.00000" pt_clust_7="13000.00000" pt_clust_8="13000.00000" pt_clust_9="29.27600"></scales>
<clustering>
<clus scale="   29.276">  2  9  1 -1</clus>
<clus scale="   92.126">  7  8 -1 -1</clus>
<clus scale="   93.537">  5  6 -1 -1</clus>
<clus scale="  234.759">  1  7  2 -1</clus>
<clus scale="   29.276">  2  5  1 -1</clus>
</clustering>
</event>
<event>
 9    1  0.1803370E-005  0.1097196E+03  0.7546771E-02  0.1262476E+00
          1   -1    0    0  502    0  0.00000000000E+00  0.00000000000E+00  0.31218078989E+03  0.31218078989E+03  0.00000000000E+00 0. -1.
         -1   -1    0    0    0  501 -0.00000000000E+00 -0.00000000000E+00 -0.67268823821E+02  0.67268823821E+02  0.00000000000E+00 0.  1.
         23    2    1    2    0    0  0.17236313709E+01  0.60367523992E+02  0.37578636499E+02  0.11724004050E+03  0.93197984518E+02 0.  0.
         23    2    1    2    0    0 -0.20884783611E+02 -0.52548228894E+02  0.79057689704E+02  0.13227524012E+03  0.89716945455E+02 0.  0.
        -11    1    3    3    0    0 -0.22761741302E+02 -0.55685060453E+01 -0.16380645634E+02  0.28590744622E+02  0.00000000000E+00 0.  1.
         11    1    3    3    0    0  0.24485372673E+02  0.65936030037E+02  0.53959282133E+02  0.88649295882E+02  0.00000000000E+00 0. -1.
        -13    1    4    4    0    0 -0.29913155260E+02 -0.30804334520E+02 -0.65983900119E+01  0.43442405937E+02  0.00000000000E+00 0.  1.
         13    1    4    4    0    0  0.90283716493E+01 -0.21743894374E+02  0.85656079716E+02  0.88832834186E+02  0.00000000000E+00 0. -1.
         21    1    1    2  502  501  0.19161152240E+02 -0.78192950984E+01  0.12827563987E+03  0.12993433309E+03  0.00000000000E+00 0. -1.
<scales pt_clust_5="13000.00000" pt_clust_6="13000.00000" pt_clust_7="13000.00000" pt_clust_8="13000.00000" pt_clust_9="20.69520"></scales>
<clustering>
<clus scale="   20.695">  1  9  2 -1</clus>
<clus scale="   89.717">  7  8 -1 -1</clus>
<clus scale="   93.198">  5  6 -1 -1</clus>
<clus scale="  106.779">  1  7  2 -1</clus>
<clus scale="   20.695">  1  5  2 -1</clus>
</clustering>
</event>
<event>
 9    1  0.1803370E-005  0.2396049E+03  0.7546771E-02  0.1120121E+00
          2   -1    0    0  502    0  0.00000000000E+00  0.00000000000E+00  0.10212778409E+04  0.10212778409E+04  0.00000000000E+00 0. -1.
         -2   -1    0    0    0  501 -0.00000000000E+00 -0.00000000000E+00 -0.64162148287E+02  0.64162148287E+02  0.00000000000E+00 0.  1.
         23    2    1    2    0    0  0.53018846024E+02 -0.21918785567E+03  0.35744338316E+03  0.43221318180E+03  0.90488387344E+02 0.  0.
         23    2    1    2    0    0 -0.72288163717E+02  0.20494250366E+03  0.54003692677E+03  0.58895694256E+03  0.89461664904E+02 0.  0.
        -11    1    3    3    0    0  0.73536844018E+02 -0.20360722578E+03  0.30810225056E+03  0.37655088184E+03  0.00000000000E+00 0.  1.
         11    1    3    3    0    0 -0.20517997994E+02 -0.15580629896E+02  0.49341132604E+02  0.55662299955E+02  0.00000000000E+00 0. -1.
        -13    1    4    4    0    0  0.19779297035E+02  0.18664464738E+02  0.65460267526E+02  0.70884620756E+02  0.00000000000E+00 0.  1.
         13    1    4    4    0    0 -0.92067460752E+02  0.18627803892E+03  0.47457665925E+03  0.51807232180E+03  0.00000000000E+00 0. -1.
         21    1    1    2  502  501  0.19269317693E+02  0.14245352012E+02  0.59635382651E+02  0.64269864807E+02  0.00000000000E+00 0.  1.
<scales pt_clust_5="13000.00000" pt_clust_6="13000.00000" pt_clust_7="13000.00000" pt_clust_8="13000.00000" pt_clust_9="23.96324"></scales>
<clustering>
<clus scale="   23.963">  1  9  2 -1</clus>
<clus scale="   89.462">  7  8 -1 -1</clus>
<clus scale="   90.488">  5  6 -1 -1</clus>
<clus scale="  239.219">  1  7  2 -1</clus>
<clus scale="   23.963">  1  5  2 -1</clus>
</clustering>
</event>
<event>
 9    1  0.1803370E-005  0.1193307E+03  0.7546771E-02  0.1244945E+00
         -2   -1    0    0    0  501 -0.00000000000E+00  0.00000000000E+00  0.12691254884E+03  0.12691254884E+03  0.00000000000E+00 0.  1.
          2   -1    0    0  502    0  0.00000000000E+00 -0.00000000000E+00 -0.15147290241E+03  0.15147290241E+03  0.00000000000E+00 0. -1.
         23    2    1    2    0    0 -0.73257019626E+02  0.99676029170E+01  0.38189470453E+02  0.12539891806E+03  0.93811027943E+02 0.  0.
         23    2    1    2    0    0  0.69105620442E+02 -0.29685719984E+02 -0.47228644904E+02  0.12755141462E+03  0.91553207069E+02 0.  0.
        -11    1    4    4    0    0  0.18451030410E+02  0.30924236664E+02 -0.99228916787E+00  0.36024069374E+02  0.00000000000E+00 0. -1.
         11    1    4    4    0    0  0.50654590033E+02 -0.60609956648E+02 -0.46236355737E+02  0.91527345247E+02  0.00000000000E+00 0.  1.
        -11    1    3    3    0    0 -0.88743291206E+02  0.23004170802E+02  0.12243429898E+02  0.92490351843E+02  0.00000000000E+00 0. -1.
         11    1    3    3    0    0  0.15486271581E+02 -0.13036567885E+02  0.25946040555E+02  0.32908566212E+02  0.00000000000E+00 0.  1.
         21    1    1    2  502  501  0.41513991833E+01  0.19718117067E+02 -0.15521179110E+02  0.25435118572E+02  0.00000000000E+00 0. -1.
<scales pt_clust_5="13000.00000" pt_clust_6="13000.00000" pt_clust_7="13000.00000" pt_clust_8="13000.00000" pt_clust_9="20.15039"></scales>
<clustering>
<clus scale="   20.150">  2  9  1 -1</clus>
<clus scale="   91.553">  5  6 -1 -1</clus>
<clus scale="   93.811">  7  8 -1 -1</clus>
<clus scale="  117.564">  2  5  1 -1</clus>
<clus scale="   20.150">  2  5  1 -1</clus>
</clustering>
</event>
<event>
 9    1  0.1803370E-005  0.9404961E+02  0.7546771E-02  0.1293925E+00
          1   -1    0    0  502    0  0.00000000000E+00  0.00000000000E+00  0.66692383429E+02  0.66692383429E+02  0.00000000000E+00 0. -1.
         -1   -1    0    0    0  501 -0.00000000000E+00 -0.00000000000E+00 -0.20806938922E+03  0.20806938922E+03  0.00000000000E+00 0.  1.
         23    2    1    2    0    0  0.95400067093E+01 -0.21364305215E+01 -0.11285861721E+03  0.14635461225E+03  0.92666223547E+02 0.  0.
         23    2    1    2    0    0  0.12729045613E+02  0.19993340167E+02 -0.22015713156E+02  0.99131493007E+02  0.93704850605E+02 0.  0.
        -11    1    4    4    0    0 -0.33985006222E+02 -0.15375006550E+02 -0.14660896229E+02  0.40078839212E+02  0.00000000000E+00 0.  1.
         11    1    4    4    0    0  0.46714051835E+02  0.35368346716E+02 -0.73548169266E+01  0.59052653796E+02  0.00000000000E+00 0. -1.
        -13    1    3    3    0    0 -0.17746928486E+02 -0.37085996617E+02 -0.25478337894E+02  0.48368071262E+02  0.00000000000E+00 0.  1.
         13    1    3    3    0    0  0.27286935196E+02  0.34949566095E+02 -0.87380279313E+02  0.97986540991E+02  0.00000000000E+00 0. -1.
         21    1    1    2  502  501 -0.22269052322E+02 -0.17856909645E+02 -0.65026754289E+01  0.29275667390E+02  0.00000000000E+00 0.  1.
<scales pt_clust_5="13000.00000" pt_clust_6="13000.00000" pt_clust_7="13000.00000" pt_clust_8="13000.00000" pt_clust_9="28.54435"></scales>
<clustering>
<clus scale="   28.544">  1  9  2 -1</clus>
<clus scale="   92.666">  7  8 -1 -1</clus>
<clus scale="   93.015">  2  7  1 -1</clus>
<clus scale="   93.705">  5  6 -1 -1</clus>
<clus scale="   28.544">  1  5  2 -1</clus>
</clustering>
</event>
<event>
 9    1  0.1803370E-005  0.9925977E+02  0.7546771E-02  0.1287438E+00
         -2   -1    0    0    0  501 -0.00000000000E+00  0.00000000000E+00  0.20062021556E+03  0.20062021556E+03  0.00000000000E+00 0.  1.
          2   -1    0    0  502    0  0.00000000000E+00 -0.00000000000E+00 -0.60097563198E+02  0.60097563198E+02  0.00000000000E+00 0. -1.
         23    2    1    2    0    0  0.16170961938E+02  0.20408427838E+02  0.53395525496E+02  0.10047977950E+03  0.81037645625E+02 0.  0.
         23    2    1    2    0    0 -0.18097815562E+02 -0.48623589732E+02  0.75119192816E+02  0.12951343896E+03  0.91864320245E+02 0.  0.
        -11    1    4    4    0    0  0.13007118834E+02  0.23186780630E+02  0.12977282776E+02  0.29584147860E+02  0.00000000000E+00 0. -1.
         11    1    4    4    0    0 -0.31104934396E+02 -0.71810370363E+02  0.62141910040E+02  0.99929291095E+02  0.00000000000E+00 0.  1.
        -11    1    3    3    0    0  0.42783841743E+02  0.15137450617E+02  0.57273362867E+02  0.73074192568E+02  0.00000000000E+00 0.  1.
         11    1    3    3    0    0 -0.26612879805E+02  0.52709772212E+01 -0.38778373704E+01  0.27405586931E+02  0.00000000000E+00 0. -1.
         21    1    1    2  502  501  0.19268536242E+01  0.28215161895E+02  0.12007934047E+02  0.30724560301E+02  0.00000000000E+00 0.  1.
<scales pt_clust_5="13000.00000" pt_clust_6="13000.00000" pt_clust_7="13000.00000" pt_clust_8="13000.00000" pt_clust_9="28.28088"></scales>
<clustering>
<clus scale="   28.281">  2  9  1 -1</clus>
<clus scale="   81.038">  7  8 -1 -1</clus>
<clus scale="   89.334">  1  7  2 -1</clus>
<clus scale="   91.864">  5  6 -1 -1</clus>
<clus scale="   28.281">  2  5  1 -1</clus>
</clustering>
</event>
<event>
 9    1  0.1803370E-005  0.1327078E+03  0.7546771E-02  0.1224063E+00
         -2   -1    0    0    0  501 -0.00000000000E+00  0.00000000000E+00  0.54282157123E+03  0.54282157123E+03  0.00000000000E+00 0.  1.
          2   -1    0    0  502    0  0.00000000000E+00 -0.00000000000E+00 -0.48272055409E+03  0.48272055409E+03  0.00000000000E+00 0. -1.
         23    2    1    2    0    0 -0.50658295483E+02 -0.77206887331E+02  0.45540167419E+03  0.47342922955E+03  0.90649788710E+02 0.  0.
         23    2    1    2    0    0  0.51039319797E+02  0.14556151309E+03 -0.29747874666E+02  0.18022401887E+03  0.88332296882E+02 0.  0.
        -13    1    4    4    0    0  0.33202547719E+02  0.12129369138E+02  0.14947525768E+02  0.38379151858E+02  0.00000000000E+00 0.  1.
         13    1    4    4    0    0  0.17836772077E+02  0.13343214396E+03 -0.44695400434E+02  0.14184486702E+03  0.00000000000E+00 0. -1.
        -13    1    3    3    0    0 -0.11060711920E+02 -0.70307205160E+02  0.39165127756E+03  0.39806552935E+03  0.00000000000E+00 0.  1.
         13    1    3    3    0    0 -0.39597583563E+02 -0.68996821711E+01  0.63750396629E+02  0.75363700204E+02  0.00000000000E+00 0. -1.
         21    1    1    2  502  501 -0.38102431366E+00 -0.68354625763E+02 -0.36555278239E+03  0.37188887689E+03  0.00000000000E+00 0.  1.
<scales pt_clust_5="13000.00000" pt_clust_6="13000.00000" pt_clust_7="13000.00000" pt_clust_8="13000.00000" pt_clust_9="68.35569"></scales>
<clustering>
<clus scale="   68.356">  2  9  1 -1</clus>
<clus scale="   88.332">  5  6 -1 -1</clus>
<clus scale="   90.650">  7  8 -1 -1</clus>
<clus scale="  131.136">  2  5  1 -1</clus>
<clus scale="   68.356">  2  5  1 -1</clus>
</clustering>
</event>
<event>
 9    1  0.1803370E-005  0.1001655E+03  0.7546771E-02  0.1280937E+00
         -1   -1    0    0    0  501 -0.00000000000E+00  0.00000000000E+00  0.34884926608E+02  0.34884926608E+02  0.00000000000E+00 0.  1.
          1   -1    0    0  502    0  0.00000000000E+00 -0.00000000000E+00 -0.41023110205E+03  0.41023110205E+03  0.00000000000E+00 0. -1.
         23    2    1    2    0    0 -0.15392404417E+02 -0.30478217397E+02 -0.15739417534E+03  0.18654209608E+03  0.94123213550E+02 0.  0.
         23    2    1    2    0    0 -0.21168268062E+02  0.37835674167E+02 -0.15803959985E+03  0.18800261654E+03  0.92134873397E+02 0.  0.
        -11    1    3    3    0    0  0.19055639194E+02 -0.42150606361E+02 -0.32692645856E+02  0.56644506307E+02  0.00000000000E+00 0. -1.
         11    1    3    3    0    0 -0.34448043611E+02  0.11672388965E+02 -0.12470152949E+03  0.12989758977E+03  0.00000000000E+00 0.  1.
        -13    1    4    4    0    0 -0.55377025608E+02  0.75244885061E+01 -0.80562857887E+02  0.98049002868E+02  0.00000000000E+00 0.  1.
         13    1    4    4    0    0  0.34208757546E+02  0.30311185661E+02 -0.77476741959E+02  0.89953613677E+02  0.00000000000E+00 0. -1.
         21    1    1    2  502  501  0.36560672480E+02 -0.73574567703E+01 -0.59912400254E+02  0.70571316032E+02  0.00000000000E+00 0. -1.
<scales pt_clust_5="13000.00000" pt_clust_6="13000.00000" pt_clust_7="13000.00000" pt_clust_8="13000.00000" pt_clust_9="37.29363"></scales>
<clustering>
<clus scale="   37.294">  2  9  1 -1</clus>
<clus scale="   92.135">  7  8 -1 -1</clus>
<clus scale="   94.123">  5  6 -1 -1</clus>
<clus scale="   98.299">  2  7  1 -1</clus>
<clus scale="   37.294">  2  5  1 -1</clus>
</clustering>
</event>
<event>
 9    1  0.1803370E-005  0.1228824E+03  0.7546771E-02  0.1239201E+00
          2   -1    0    0  502    0  0.00000000000E+00  0.00000000000E+00  0.47096567858E+03  0.47096567858E+03  0.00000000000E+00 0. -1.
         -2   -1    0    0    0  501 -0.00000000000E+00 -0.00000000000E+00 -0.19296097198E+03  0.19296097198E+03  0.00000000000E+00 0.  1.
         23    2    1    2    0    0 -0.77253173450E+02 -0.10780875483E+02 -0.15129710702E+03  0.19286349893E+03  0.90671023729E+02 0.  0.
         23    2    1    2    0    0  0.10158854875E+03  0.37157258824E+02  0.24747501080E+03  0.28572856146E+03  0.93252532093E+02 0.  0.
        -11    1    3    3    0    0 -0.74283970862E+02  0.21776231721E+02 -0.13662267038E+03  0.15702887204E+03  0.00000000000E+00 0.  1.
         11    1    3    3    0    0 -0.29692025883E+01 -0.32557107204E+02 -0.14674436645E+02  0.35834626890E+02  0.00000000000E+00 0. -1.
        -13    1    4    4    0    0 -0.11320347336E+01  0.37197710329E+02  0.42752612484E+02  0.56681011199E+02  0.00000000000E+00 0.  1.
         13    1    4    4    0    0  0.10272058348E+03 -0.40451504577E-01  0.20472239832E+03  0.22904755026E+03  0.00000000000E+00 0. -1.
         21    1    1    2  502  501 -0.24335375295E+02 -0.26376383341E+02  0.18182680283E+03  0.18533459017E+03  0.00000000000E+00 0. -1.
<scales pt_clust_5="13000.00000" pt_clust_6="13000.00000" pt_clust_7="13000.00000" pt_clust_8="13000.00000" pt_clust_9="35.88766"></scales>
<clustering>
<clus scale="   35.888">  1  9  2 -1</clus>
<clus scale="   90.671">  5  6 -1 -1</clus>
<clus scale="   93.253">  7  8 -1 -1</clus>
<clus scale="  120.935">  2  5  1 -1</clus>
<clus scale="   35.888">  1  5  2 -1</clus>
</clustering>
</event>
<event>
 9    1  0.1803370E-005  0.1229586E+03  0.7546771E-02  0.1238515E+00
          2   -1    0    0  502    0  0.00000000000E+00  0.00000000000E+00  0.34436911412E+03  0.34436911412E+03  0.00000000000E+00 0. -1.
         -2   -1    0    0    0  501 -0.00000000000E+00 -0.00000000000E+00 -0.96777983406E+02  0.96777983406E+02  0.00000000000E+00 0.  1.
         23    2    1    2    0    0  0.77313097852E+02 -0.38841894356E+02 -0.30653805716E+02  0.12985197548E+03  0.91847002541E+02 0.  0.
         23    2    1    2    0    0 -0.48326661730E+02  0.38142235524E+02  0.20738867391E+03  0.23473591005E+03  0.91107568506E+02 0.  0.
        -13    1    4    4    0    0 -0.41707698774E+02 -0.21182661412E+02  0.12102156973E+03  0.12974766904E+03  0.00000000000E+00 0.  1.
         13    1    4    4    0    0 -0.66189629551E+01  0.59324896935E+02  0.86367104174E+02  0.10498824101E+03  0.00000000000E+00 0. -1.
        -13    1    3    3    0    0  0.16522151023E+02 -0.59056228636E+02 -0.22268126314E+02  0.65241773924E+02  0.00000000000E+00 0.  1.
         13    1    3    3    0    0  0.60790946828E+02  0.20214334281E+02 -0.83856794014E+01  0.64610201561E+02  0.00000000000E+00 0. -1.
         21    1    1    2  502  501 -0.28986436122E+02  0.69965883194E+00  0.70856262523E+02  0.76559211988E+02  0.00000000000E+00 0.  1.
<scales pt_clust_5="13000.00000" pt_clust_6="13000.00000" pt_clust_7="13000.00000" pt_clust_8="13000.00000" pt_clust_9="28.99488"></scales>
<clustering>
<clus scale="   28.995">  1  9  2 -1</clus>
<clus scale="   91.108">  5  6 -1 -1</clus>
<clus scale="   91.847">  7  8 -1 -1</clus>
<clus scale="  122.407">  1  5  2 -1</clus>
<clus scale="   28.995">  1  5  2 -1</clus>
</clustering>
</event>
<event>
 9    1  0.1803370E-005  0.1061242E+03  0.7546771E-02  0.1269338E+00
          1   -1    0    0  502    0  0.00000000000E+00  0.00000000000E+00  0.10018213189E+03  0.10018213189E+03  0.00000000000E+00 0. -1.
         -1   -1    0    0    0  501 -0.00000000000E+00 -0.00000000000E+00 -0.27032805927E+03  0.27032805927E+03  0.00000000000E+00 0.  1.
         23    2    1    2    0    0 -0.30751908839E+02  0.41557420476E+02 -0.21091038691E+03  0.23663146611E+03  0.94013617929E+02 0.  0.
         23    2    1    2    0    0  0.38076272746E+02 -0.15115845688E+02  0.36806176434E+02  0.10615741215E+03  0.90754670371E+02 0.  0.
        -11    1    4    4    0    0  0.11445667200E+02 -0.45016206056E+02 -0.68149000122E+01  0.46945766236E+02  0.00000000000E+00 0.  1.
         11    1    4    4    0    0  0.26630605546E+02  0.29900360367E+02  0.43621076446E+02  0.59211645917E+02  0.00000000000E+00 0. -1.
        -13    1    3    3    0    0 -0.58967959292E+02  0.50394130202E+02 -0.14687795571E+03  0.16610214464E+03  0.00000000000E+00 0.  1.
         13    1    3    3    0    0  0.28216050453E+02 -0.88367097259E+01 -0.64032431198E+02  0.70529321470E+02  0.00000000000E+00 0. -1.
         21    1    1    2  502  501 -0.73243639069E+01 -0.26441574788E+02  0.39582830912E+01  0.27721312901E+02  0.00000000000E+00 0. -1.
<scales pt_clust_5="13000.00000" pt_clust_6="13000.00000" pt_clust_7="13000.00000" pt_clust_8="13000.00000" pt_clust_9="27.43726"></scales>
<clustering>
<clus scale="   27.437">  1  9  2 -1</clus>
<clus scale="   90.755">  5  6 -1 -1</clus>
<clus scale="   94.014">  7  8 -1 -1</clus>
<clus scale="  103.248">  1  5  2 -1</clus>
<clus scale="   27.437">  1  5  2 -1</clus>
</clustering>
</event>
<event>
 9    1  0.1803370E-005  0.2164422E+03  0.7546771E-02  0.1136918E+00
          2   -1    0    0  502    0  0.00000000000E+00  0.00000000000E+00  0.10205216838E+04  0.10205216838E+04  0.00000000000E+00 0. -1.
         -2   -1    0    0    0  501 -0.00000000000E+00 -0.00000000000E+00 -0.71584278288E+02  0.71584278288E+02  0.00000000000E+00 0.  1.
         23    2    1    2    0    0 -0.97545036636E+02 -0.16792446085E+03  0.17595055139E+03  0.27882576518E+03  0.95244695743E+02 0.  0.
         23    2    1    2    0    0  0.75858245529E+02  0.18068201645E+03  0.58501618700E+03  0.62363304077E+03  0.90960244110E+02 0.  0.
        -11    1    4    4    0    0  0.37187562279E+02  0.13204568669E+03  0.49905237222E+03  0.51756376263E+03  0.00000000000E+00 0. -1.
         11    1    4    4    0    0  0.38670683250E+02  0.48636329763E+02  0.85963814773E+02  0.10606927814E+03  0.00000000000E+00 0.  1.
        -11    1    3    3    0    0 -0.33652193386E+02 -0.11996470543E+03  0.14962685088E+03  0.19471054202E+03  0.00000000000E+00 0.  1.
         11    1    3    3    0    0 -0.63892843249E+02 -0.47959755422E+02  0.26323700513E+02  0.84115223160E+02  0.00000000000E+00 0. -1.
         21    1    1    2  502  501  0.21686791107E+02 -0.12757555604E+02  0.18797066714E+03  0.18964715616E+03  0.00000000000E+00 0. -1.
<scales pt_clust_5="13000.00000" pt_clust_6="13000.00000" pt_clust_7="13000.00000" pt_clust_8="13000.00000" pt_clust_9="25.16092"></scales>
<clustering>
<clus scale="   25.161">  1  9  2 -1</clus>
<clus scale="   90.960">  5  6 -1 -1</clus>
<clus scale="   95.245">  7  8 -1 -1</clus>
<clus scale="  214.591">  1  5  2 -1</clus>
<clus scale="   25.161">  1  5  2 -1</clus>
</clustering>
</event>
<event>
 9    1  0.1803370E-005  0.1126744E+03  0.7546771E-02  0.1256338E+00
          2   -1    0    0  502    0  0.00000000000E+00  0.00000000000E+00  0.31418014914E+03  0.31418014914E+03  0.00000000000E+00 0. -1.
         -2   -1    0    0    0  501 -0.00000000000E+00 -0.00000000000E+00 -0.78349059590E+02  0.78349059590E+02  0.00000000000E+00 0.  1.
         23    2    1    2    0    0  0.35691811667E+01  0.63753191066E+02  0.72916359296E+00  0.11261458534E+03  0.92759391583E+02 0.  0.
         23    2    1    2    0    0  0.28041596811E+02 -0.63978892676E+02  0.14809868897E+03  0.18734651078E+03  0.91026718977E+02 0.  0.
        -11    1    3    3    0    0 -0.24487233026E+02 -0.12162001055E+02  0.13809298631E+02  0.30630631395E+02  0.00000000000E+00 0. -1.
         11    1    3    3    0    0  0.28056414193E+02  0.75915192121E+02 -0.13080135038E+02  0.81983953947E+02  0.00000000000E+00 0.  1.
        -11    1    4    4    0    0  0.18145667691E+02  0.21729092484E+02  0.40879697984E+02  0.49724927586E+02  0.00000000000E+00 0.  1.
         11    1    4    4    0    0  0.98959291204E+01 -0.85707985161E+02  0.10721899099E+03  0.13762158320E+03  0.00000000000E+00 0. -1.
         21    1    1    2  502  501 -0.31610777978E+02  0.22570161063E+00  0.87003236987E+02  0.92568112608E+02  0.00000000000E+00 0. -1.
<scales pt_clust_5="13000.00000" pt_clust_6="13000.00000" pt_clust_7="13000.00000" pt_clust_8="13000.00000" pt_clust_9="31.61158"></scales>
<clustering>
<clus scale="   31.612">  1  9  2 -1</clus>
<clus scale="   91.027">  7  8 -1 -1</clus>
<clus scale="   92.759">  5  6 -1 -1</clus>
<clus scale="  111.252">  1  7  2 -1</clus>
<clus scale="   31.612">  1  5  2 -1</clus>
</clustering>
</event>
<event>
 9    1  0.1803370E-005  0.9709423E+02  0.7546771E-02  0.1288976E+00
         -3   -1    0    0    0  501 -0.00000000000E+00  0.00000000000E+00  0.25522381848E+03  0.25522381848E+03  0.00000000000E+00 0.  1.
          3   -1    0    0  502    0  0.00000000000E+00 -0.00000000000E+00 -0.12756529240E+03  0.12756529240E+03  0.00000000000E+00 0. -1.
         23    2    1    2    0    0  0.22374011586E+02  0.12445494489E+02  0.97630185331E+02  0.13317346771E+03  0.86879414628E+02 0.  0.
         23    2    1    2    0    0  0.13973781683E+02 -0.56247689415E+02  0.10807158091E+03  0.15302091406E+03  0.91525211839E+02 0.  0.
        -11    1    3    3    0    0  0.36663653452E+02  0.37234576281E+02  0.89140139104E+02  0.10332764177E+03  0.00000000000E+00 0.  1.
         11    1    3    3    0    0 -0.14289641866E+02 -0.24789081792E+02  0.84900462266E+01  0.29845825933E+02  0.00000000000E+00 0. -1.
        -13    1    4    4    0    0  0.35386903154E+02  0.11443678277E+02  0.40939269575E+02  0.55310166160E+02  0.00000000000E+00 0.  1.
         13    1    4    4    0    0 -0.21413121471E+02 -0.67691367692E+02  0.67132311333E+02  0.97710747904E+02  0.00000000000E+00 0. -1.
         21    1    1    2  502  501 -0.36347793269E+02  0.43802194926E+02 -0.78043240159E+02  0.96594729103E+02  0.00000000000E+00 0. -1.
<scales pt_clust_5="13000.00000" pt_clust_6="13000.00000" pt_clust_7="13000.00000" pt_clust_8="13000.00000" pt_clust_9="56.91919"></scales>
<clustering>
<clus scale="   56.919">  2  9  1 -1</clus>
<clus scale="   86.879">  5  6 -1 -1</clus>
<clus scale="   91.525">  7  8 -1 -1</clus>
<clus scale="   92.728">  1  5  2 -1</clus>
<clus scale="   56.919">  2  5  1 -1</clus>
</clustering>
</event>
<event>
 9    1  0.1803370E-005  0.1089924E+03  0.7546771E-02  0.1262545E+00
         -2   -1    0    0    0  501 -0.00000000000E+00  0.00000000000E+00  0.86298237883E+02  0.86298237883E+02  0.00000000000E+00 0.  1.
          2   -1    0    0  502    0  0.00000000000E+00 -0.00000000000E+00 -0.41724545535E+03  0.41724545535E+03  0.00000000000E+00 0. -1.
         23    2    1    2    0    0  0.16394905682E+01  0.62332991103E+02  0.26698476345E+02  0.11616758198E+03  0.94308052437E+02 0.  0.
         23    2    1    2    0    0 -0.76839249116E+01 -0.22362351683E+02 -0.17278672707E+03  0.19814866930E+03  0.94066596728E+02 0.  0.
        -11    1    3    3    0    0 -0.38010107862E+02  0.26262204306E+02  0.39808865555E+02  0.60985387196E+02  0.00000000000E+00 0.  1.
         11    1    3    3    0    0  0.39649598430E+02  0.36070786797E+02 -0.13110389210E+02  0.55182194783E+02  0.00000000000E+00 0. -1.
        -13    1    4    4    0    0 -0.36160311857E+02 -0.39698857796E+02 -0.59919436954E+02  0.80460589040E+02  0.00000000000E+00 0. -1.
         13    1    4    4    0    0  0.28476386945E+02  0.17336506112E+02 -0.11286729012E+03  0.11768808026E+03  0.00000000000E+00 0.  1.
         21    1    1    2  502  501  0.60444343435E+01 -0.39970639420E+02 -0.18485896674E+03  0.18922744195E+03  0.00000000000E+00 0. -1.
<scales pt_clust_5="13000.00000" pt_clust_6="13000.00000" pt_clust_7="13000.00000" pt_clust_8="13000.00000" pt_clust_9="40.42508"></scales>
<clustering>
<clus scale="   40.425">  2  9  1 -1</clus>
<clus scale="   94.067">  7  8 -1 -1</clus>
<clus scale="   94.308">  5  6 -1 -1</clus>
<clus scale="  108.783">  2  7  1 -1</clus>
<clus scale="   40.425">  2  5  1 -1</clus>
</clustering>
</event>
<event>
 9    1  0.1803370E-005  0.2259838E+03  0.7546771E-02  0.1129734E+00
         -1   -1    0    0    0  501 -0.00000000000E+00  0.00000000000E+00  0.16266990248E+04  0.16266990248E+04  0.00000000000E+00 0.  1.
          1   -1    0    0  502    0  0.00000000000E+00 -0.00000000000E+00 -0.43489539403E+02  0.43489539403E+02  0.00000000000E+00 0. -1.
         23    2    1    2    0    0 -0.14275465027E+03  0.16804262234E+03  0.88529639409E+03  0.91685193517E+03  0.90832552294E+02 0.  0.
         23    2    1    2    0    0  0.13041228445E+03 -0.14272377683E+03  0.69296784648E+03  0.72473884280E+03  0.87547207805E+02 0.  0.
        -11    1    4    4    0    0  0.84757685614E+02 -0.48343728294E+02  0.44401858165E+03  0.45461355258E+03  0.00000000000E+00 0. -1.
         11    1    4    4    0    0  0.45654598833E+02 -0.94380048538E+02  0.24894926483E+03  0.27012529022E+03  0.00000000000E+00 0.  1.
        -13    1    3    3    0    0 -0.10027738385E+03  0.10279889388E+03  0.71943446751E+03  0.73362737090E+03  0.00000000000E+00 0.  1.
         13    1    3    3    0    0 -0.42477266424E+02  0.65243728456E+02  0.16586192658E+03  0.18322456427E+03  0.00000000000E+00 0. -1.
         21    1    1    2  502  501  0.12342365828E+02 -0.25318845504E+02  0.49452448521E+01  0.28597786253E+02  0.00000000000E+00 0.  1.
<scales pt_clust_5="13000.00000" pt_clust_6="13000.00000" pt_clust_7="13000.00000" pt_clust_8="13000.00000" pt_clust_9="28.16697"></scales>
<clustering>
<clus scale="   28.167">  2  9  1 -1</clus>
<clus scale="   87.547">  5  6 -1 -1</clus>
<clus scale="   90.833">  7  8 -1 -1</clus>
<clus scale="  224.683">  2  5  1 -1</clus>
<clus scale="   28.167">  2  5  1 -1</clus>
</clustering>
</event>
<event>
 9    1  0.1803370E-005  0.1058569E+03  0.7546771E-02  0.1269651E+00
         -3   -1    0    0    0  501 -0.00000000000E+00  0.00000000000E+00  0.14981961357E+03  0.14981961357E+03  0.00000000000E+00 0.  1.
          3   -1    0    0  502    0  0.00000000000E+00 -0.00000000000E+00 -0.19581713520E+03  0.19581713520E+03  0.00000000000E+00 0. -1.
         23    2    1    2    0    0  0.12359721787E+02  0.44825146999E+02  0.90078872447E+02  0.13732589768E+03  0.92639853120E+02 0.  0.
         23    2    1    2    0    0 -0.83359350381E+01 -0.70748317354E+02 -0.63319234786E+02  0.13096871606E+03  0.89825758400E+02 0.  0.
        -13    1    3    3    0    0 -0.68726440640E+01  0.70231303805E+02  0.71412894030E+02  0.10039656719E+03  0.00000000000E+00 0.  1.
         13    1    3    3    0    0  0.19232365851E+02 -0.25406156806E+02  0.18665978418E+02  0.36929330486E+02  0.00000000000E+00 0. -1.
        -13    1    4    4    0    0 -0.23093211454E+02 -0.88088149082E+02 -0.56630107666E+02  0.10723706224E+03  0.00000000000E+00 0. -1.
         13    1    4    4    0    0  0.14757276416E+02  0.17339831727E+02 -0.66891271208E+01  0.23731653823E+02  0.00000000000E+00 0.  1.
         21    1    1    2  502  501 -0.40237867489E+01  0.25923170355E+02 -0.72757159292E+02  0.77342135019E+02  0.00000000000E+00 0. -1.
<scales pt_clust_5="13000.00000" pt_clust_6="13000.00000" pt_clust_7="13000.00000" pt_clust_8="13000.00000" pt_clust_9="26.23360"></scales>
<clustering>
<clus scale="   26.234">  2  9  1 -1</clus>
<clus scale="   89.826">  7  8 -1 -1</clus>
<clus scale="   92.640">  5  6 -1 -1</clus>
<clus scale="  103.403">  2  7  1 -1</clus>
<clus scale="   26.234">  2  5  1 -1</clus>
</clustering>
</event>
<event>
 9    1  0.1803370E-005  0.2020345E+03  0.7546771E-02  0.1175014E+00
          4   -1    0    0  502    0  0.00000000000E+00  0.00000000000E+00  0.20145388623E+03  0.20145388623E+03  0.00000000000E+00 0. -1.
         -4   -1    0    0    0  501 -0.00000000000E+00 -0.00000000000E+00 -0.15632638341E+04  0.15632638341E+04  0.00000000000E+00 0.  1.
         23    2    1    2    0    0 -0.52137163830E+02 -0.14415638557E+02 -0.41158381294E+03  0.42551334763E+03  0.93457367004E+02 0.  0.
         23    2    1    2    0    0  0.44034745776E+02 -0.17400931042E+03  0.13160169257E+03  0.24106000199E+03  0.92588444869E+02 0.  0.
        -11    1    4    4    0    0 -0.26114664629E+02 -0.82191308000E+02  0.51245087945E+02  0.10031672771E+03  0.00000000000E+00 0.  1.
         11    1    4    4    0    0  0.70149410405E+02 -0.91818002421E+02  0.80356604630E+02  0.14074327428E+03  0.00000000000E+00 0. -1.
        -13    1    3    3    0    0 -0.48531718549E+02 -0.50466058060E+02 -0.23303755802E+03  0.24332828477E+03  0.00000000000E+00 0.  1.
         13    1    3    3    0    0 -0.36054452807E+01  0.36050419503E+02 -0.17854625492E+03  0.18218506286E+03  0.00000000000E+00 0. -1.
         21    1    1    2  502  501  0.81024180537E+01  0.18842494898E+03 -0.10818278275E+04  0.10981443707E+04  0.00000000000E+00 0.  1.
<scales pt_clust_5="13000.00000" pt_clust_6="13000.00000" pt_clust_7="13000.00000" pt_clust_8="13000.00000" pt_clust_9="179.56981"></scales>
<clustering>
<clus scale="   92.588">  5  6 -1 -1</clus>
<clus scale="   93.457">  7  8 -1 -1</clus>
<clus scale="  107.983">  2  7  1 -1</clus>
<clus scale="  179.570">  2  9  1 -1</clus>
<clus scale="  202.034">  1  5  2 -1</clus>
</clustering>
</event>
<event>
 9    1  0.1803370E-005  0.9995030E+02  0.7546771E-02  0.1280690E+00
          1   -1    0    0  502    0  0.00000000000E+00  0.00000000000E+00  0.35270735365E+03  0.35270735365E+03  0.00000000000E+00 0. -1.
         -1   -1    0    0    0  501 -0.00000000000E+00 -0.00000000000E+00 -0.86874287915E+02  0.86874287915E+02  0.00000000000E+00 0.  1.
         23    2    1    2    0    0  0.22643651274E+02 -0.33840720889E+02 -0.34212985758E+02  0.10499657964E+03  0.90530790389E+02 0.  0.
         23    2    1    2    0    0 -0.51421111963E+02  0.24760750793E+02  0.16634138364E+03  0.19751746434E+03  0.89924786764E+02 0.  0.
        -11    1    3    3    0    0  0.30634470644E+02  0.20099531283E+02  0.61527908186E+01  0.37152641686E+02  0.00000000000E+00 0. -1.
         11    1    3    3    0    0 -0.79908193697E+01 -0.53940252172E+02 -0.40365776576E+02  0.67843937955E+02  0.00000000000E+00 0.  1.
        -13    1    4    4    0    0  0.24719779948E+02  0.14895571918E+01  0.24367004392E+02  0.34742440967E+02  0.00000000000E+00 0.  1.
         13    1    4    4    0    0 -0.76140891911E+02  0.23271193601E+02  0.14197437925E+03  0.16277502338E+03  0.00000000000E+00 0. -1.
         21    1    1    2  502  501  0.28777460689E+02  0.90799700959E+01  0.13370466786E+03  0.13706759759E+03  0.00000000000E+00 0.  1.
<scales pt_clust_5="13000.00000" pt_clust_6="13000.00000" pt_clust_7="13000.00000" pt_clust_8="13000.00000" pt_clust_9="30.17595"></scales>
<clustering>
<clus scale="   30.176">  1  9  2 -1</clus>
<clus scale="   89.925">  7  8 -1 -1</clus>
<clus scale="   90.531">  5  6 -1 -1</clus>
<clus scale="   99.402">  1  7  2 -1</clus>
<clus scale="   30.176">  1  5  2 -1</clus>
</clustering>
</event>
<event>
 9    1  0.1803370E-005  0.9235920E+02  0.7546771E-02  0.1297702E+00
          1   -1    0    0  502    0  0.00000000000E+00  0.00000000000E+00  0.14037334690E+03  0.14037334690E+03  0.00000000000E+00 0. -1.
         -1   -1    0    0    0  501 -0.00000000000E+00 -0.00000000000E+00 -0.12753025212E+03  0.12753025212E+03  0.00000000000E+00 0.  1.
         23    2    1    2    0    0  0.36985997393E+02  0.33673118552E+02 -0.56364410051E+02  0.11599017244E+03  0.88175566150E+02 0.  0.
         23    2    1    2    0    0 -0.19624078952E+02 -0.20315285500E+01  0.71346769135E+02  0.11575816581E+03  0.88996403878E+02 0.  0.
        -13    1    4    4    0    0  0.14633188928E+01 -0.25576188041E+02 -0.10753783834E+02  0.27783566431E+02  0.00000000000E+00 0.  1.
         13    1    4    4    0    0 -0.21087397844E+02  0.23544659491E+02  0.82100552969E+02  0.87974599381E+02  0.00000000000E+00 0. -1.
        -13    1    3    3    0    0  0.57827087392E+02  0.30151954850E+02 -0.11262527467E+02  0.66181243132E+02  0.00000000000E+00 0.  1.
         13    1    3    3    0    0 -0.20841089999E+02  0.35211637015E+01 -0.45101882583E+02  0.49808929307E+02  0.00000000000E+00 0. -1.
         21    1    1    2  502  501 -0.17361918441E+02 -0.31641590002E+02 -0.21392642997E+01  0.36155260773E+02  0.00000000000E+00 0. -1.
<scales pt_clust_5="13000.00000" pt_clust_6="13000.00000" pt_clust_7="13000.00000" pt_clust_8="13000.00000" pt_clust_9="36.09192"></scales>
<clustering>
<clus scale="   36.092">  2  9  1 -1</clus>
<clus scale="   88.176">  7  8 -1 -1</clus>
<clus scale="   88.996">  5  6 -1 -1</clus>
<clus scale="   91.569">  2  7  1 -1</clus>
<clus scale="   92.359">  1  5  2 -1</clus>
</clustering>
</event>
<event>
 9    1  0.1803370E-005  0.1029353E+03  0.7546771E-02  0.1274538E+00
         -3   -1    0    0    0  501 -0.00000000000E+00  0.00000000000E+00  0.32053190308E+03  0.32053190308E+03  0.00000000000E+00 0.  1.
          3   -1    0    0  502    0  0.00000000000E+00 -0.00000000000E+00 -0.79377115776E+02  0.79377115776E+02  0.00000000000E+00 0. -1.
         23    2    1    2    0    0 -0.17543325048E+02  0.71036857410E+02  0.18683509610E+03  0.22101608139E+03  0.92664727561E+02 0.  0.
         23    2    1    2    0    0 -0.25923325934E+00  0.23450396786E+01  0.46074809242E+02  0.10293365902E+03  0.92015670949E+02 0.  0.
        -13    1    4    4    0    0  0.25419759854E+02  0.15111467778E+02 -0.16669140117E+02  0.33946735951E+02  0.00000000000E+00 0.  1.
         13    1    4    4    0    0 -0.25678993114E+02 -0.12766428099E+02  0.62743949360E+02  0.68986923072E+02  0.00000000000E+00 0. -1.
        -13    1    3    3    0    0  0.27555005497E+02  0.64592721950E+02  0.13373723635E+03  0.15105345559E+03  0.00000000000E+00 0.  1.
         13    1    3    3    0    0 -0.45098330545E+02  0.64441354601E+01  0.53097859746E+02  0.69962625804E+02  0.00000000000E+00 0. -1.
         21    1    1    2  502  501  0.17802558308E+02 -0.73381897089E+02  0.82448819588E+01  0.75959278440E+02  0.00000000000E+00 0. -1.
<scales pt_clust_5="13000.00000" pt_clust_6="13000.00000" pt_clust_7="13000.00000" pt_clust_8="13000.00000" pt_clust_9="75.51049"></scales>
<clustering>
<clus scale="   75.510">  2  9  1 -1</clus>
<clus scale="   92.016">  5  6 -1 -1</clus>
<clus scale="   92.665">  7  8 -1 -1</clus>
<clus scale="  102.351">  2  5  1 -1</clus>
<clus scale="   75.510">  2  5  1 -1</clus>
</clustering>
</event>
<event>
 9    1  0.1803370E-005  0.9636825E+02  0.7546771E-02  0.1288939E+00
         -1   -1    0    0    0  501 -0.00000000000E+00  0.00000000000E+00  0.28699405883E+02  0.28699405883E+02  0.00000000000E+00 0.  1.
          1   -1    0    0  502    0  0.00000000000E+00 -0.00000000000E+00 -0.52810592984E+03  0.52810592984E+03  0.00000000000E+00 0. -1.
         23    2    1    2    0    0 -0.14035748087E+02  0.28639242513E+02 -0.14740181278E+03  0.17567131814E+03  0.90088340921E+02 0.  0.
         23    2    1    2    0    0  0.39012888038E+02 -0.35079601184E+00 -0.18695948464E+03  0.21182949748E+03  0.91628372321E+02 0.  0.
        -11    1    4    4    0    0  0.30281590065E+02 -0.35856382473E+02 -0.44225589298E+02  0.64486879360E+02  0.00000000000E+00 0.  1.
         11    1    4    4    0    0  0.87312979722E+01  0.35505586461E+02 -0.14273389535E+03  0.14734261812E+03  0.00000000000E+00 0. -1.
        -13    1    3    3    0    0 -0.56380174641E+01  0.61393529970E+02 -0.91269418770E+02  0.11014108936E+03  0.00000000000E+00 0. -1.
         13    1    3    3    0    0 -0.83977306230E+01 -0.32754287457E+02 -0.56132394010E+02  0.65530228778E+02  0.00000000000E+00 0.  1.
         21    1    1    2  502  501 -0.24977139951E+02 -0.28288446501E+02 -0.16504522653E+03  0.16930452010E+03  0.00000000000E+00 0. -1.
<scales pt_clust_5="13000.00000" pt_clust_6="13000.00000" pt_clust_7="13000.00000" pt_clust_8="13000.00000" pt_clust_9="37.73717"></scales>
<clustering>
<clus scale="   37.737">  2  9  1 -1</clus>
<clus scale="   90.088">  7  8 -1 -1</clus>
<clus scale="   91.628">  5  6 -1 -1</clus>
<clus scale="   94.905">  1  7  2 -1</clus>
<clus scale="   37.737">  2  5  1 -1</clus>
</clustering>
</event>
<event>
 9    1  0.1803370E-005  0.9229829E+02  0.7546771E-02  0.1301709E+00
         -3   -1    0    0    0  501 -0.00000000000E+00  0.00000000000E+00  0.22419345874E+03  0.22419345874E+03  0.00000000000E+00 0.  1.
          3   -1    0    0  502    0  0.00000000000E+00 -0.00000000000E+00 -0.52912684041E+02  0.52912684041E+02  0.00000000000E+00 0. -1.
         23    2    1    2    0    0 -0.22507912033E+02 -0.12669403905E+02  0.11756180604E+03  0.14628398064E+03  0.83133055126E+02 0.  0.
         23    2    1    2    0    0 -0.49683256067E+01  0.12566740506E+02  0.36564065278E+02  0.98430112425E+02  0.90382237946E+02 0.  0.
        -11    1    3    3    0    0 -0.34554338326E+02 -0.42280894980E+02  0.81389621676E+02  0.98009932629E+02  0.00000000000E+00 0. -1.
         11    1    3    3    0    0  0.12046426293E+02  0.29611491075E+02  0.36172184363E+02  0.48274048015E+02  0.00000000000E+00 0.  1.
        -11    1    4    4    0    0  0.25869671087E+01  0.35540455370E+02  0.56695058655E+02  0.66963766640E+02  0.00000000000E+00 0.  1.
         11    1    4    4    0    0 -0.75552927154E+01 -0.22973714864E+02 -0.20130993377E+02  0.31466345785E+02  0.00000000000E+00 0. -1.
         21    1    1    2  502  501  0.27476237640E+02  0.10266339907E+00  0.17154903386E+02  0.32392049716E+02  0.00000000000E+00 0.  1.
<scales pt_clust_5="13000.00000" pt_clust_6="13000.00000" pt_clust_7="13000.00000" pt_clust_8="13000.00000" pt_clust_9="27.47643"></scales>
<clustering>
<clus scale="   27.476">  2  9  1 -1</clus>
<clus scale="   83.133">  5  6 -1 -1</clus>
<clus scale="   85.212">  1  5  2 -1</clus>
<clus scale="   90.382">  7  8 -1 -1</clus>
<clus scale="   27.476">  2  5  1 -1</clus>
</clustering>
</event>
<event>
 9    1  0.1803370E-005  0.1093348E+03  0.7546771E-02  0.1261962E+00
         -1   -1    0    0    0  501 -0.00000000000E+00  0.00000000000E+00  0.45120353160E+02  0.45120353160E+02  0.00000000000E+00 0.  1.
          1   -1    0    0  502    0  0.00000000000E+00 -0.00000000000E+00 -0.35002587300E+03  0.35002587300E+03  0.00000000000E+00 0. -1.
         23    2    1    2    0    0 -0.55892791364E+02  0.36137888189E+02 -0.86312766363E+02  0.14200300744E+03  0.91022026974E+02 0.  0.
         23    2    1    2    0    0  0.35476202058E+02 -0.36171331194E+02 -0.16016854950E+03  0.19125440029E+03  0.91418571786E+02 0.  0.
        -11    1    3    3    0    0 -0.55898813659E+02  0.12940147538E+02 -0.51701255029E+01  0.57609504290E+02  0.00000000000E+00 0.  1.
         11    1    3    3    0    0  0.60222951339E-02  0.23197740650E+02 -0.81142640860E+02  0.84393503146E+02  0.00000000000E+00 0. -1.
        -11    1    4    4    0    0  0.86610326658E+01  0.30370590973E+02 -0.62983214586E+02  0.70457587260E+02  0.00000000000E+00 0.  1.
         11    1    4    4    0    0  0.26815169392E+02 -0.66541922167E+02 -0.97185334917E+02  0.12079681303E+03  0.00000000000E+00 0. -1.
         21    1    1    2  502  501  0.20416589306E+02  0.33443005147E-01 -0.58424203973E+02  0.61888818435E+02  0.00000000000E+00 0. -1.
<scales pt_clust_5="13000.00000" pt_clust_6="13000.00000" pt_clust_7="13000.00000" pt_clust_8="13000.00000" pt_clust_9="20.41662"></scales>
<clustering>
<clus scale="   20.417">  2  9  1 -1</clus>
<clus scale="   91.022">  5  6 -1 -1</clus>
<clus scale="   91.419">  7  8 -1 -1</clus>
<clus scale="  109.003">  1  5  2 -1</clus>
<clus scale="   20.417">  2  5  1 -1</clus>
</clustering>
</event>
<event>
 9    1  0.1803370E-005  0.1173597E+03  0.7546771E-02  0.1249334E+00
          2   -1    0    0  502    0  0.00000000000E+00  0.00000000000E+00  0.57704691410E+03  0.57704691410E+03  0.00000000000E+00 0. -1.
         -2   -1    0    0    0  501 -0.00000000000E+00 -0.00000000000E+00 -0.64136007172E+02  0.64136007172E+02  0.00000000000E+00 0.  1.
         23    2    1    2    0    0  0.51822934941E+02 -0.47598505002E+02  0.74638713254E+01  0.11162419034E+03  0.86330853288E+02 0.  0.
         23    2    1    2    0    0 -0.59952798882E+02  0.72739244996E+02  0.42195930737E+03  0.44198960246E+03  0.91759554029E+02 0.  0.
        -13    1    4    4    0    0 -0.98143798739E+01 -0.22120224128E+02  0.72834986213E+02  0.76749994035E+02  0.00000000000E+00 0.  1.
         13    1    4    4    0    0 -0.50138419008E+02  0.94859469125E+02  0.34912432115E+03  0.36523960843E+03  0.00000000000E+00 0. -1.
        -13    1    3    3    0    0 -0.21717906257E+02  0.32477547794E+01  0.20059747911E+01  0.22050834410E+02  0.00000000000E+00 0. -1.
         13    1    3    3    0    0  0.73540841198E+02 -0.50846259781E+02  0.54578965343E+01  0.89573355929E+02  0.00000000000E+00 0.  1.
         21    1    1    2  502  501  0.81298639413E+01 -0.25140739994E+02  0.83487728232E+02  0.87569128467E+02  0.00000000000E+00 0. -1.
<scales pt_clust_5="13000.00000" pt_clust_6="13000.00000" pt_clust_7="13000.00000" pt_clust_8="13000.00000" pt_clust_9="26.42256"></scales>
<clustering>
<clus scale="   26.423">  1  9  2 -1</clus>
<clus scale="   86.331">  7  8 -1 -1</clus>
<clus scale="   91.760">  5  6 -1 -1</clus>
<clus scale="  113.166">  2  7  1 -1</clus>
<clus scale="   26.423">  1  5  2 -1</clus>
</clustering>
</event>
<event>
 9    1  0.1803370E-005  0.1825560E+03  0.7546771E-02  0.1165551E+00
         -2   -1    0    0    0  501 -0.00000000000E+00  0.00000000000E+00  0.12080019575E+03  0.12080019575E+03  0.00000000000E+00 0.  1.
          2   -1    0    0  502    0  0.00000000000E+00 -0.00000000000E+00 -0.77687208007E+03  0.77687208007E+03  0.00000000000E+00 0. -1.
         23    2    1    2    0    0  0.15341808807E+03  0.47045778645E+02  0.26955118803E+02  0.18678222655E+03  0.91709359884E+02 0.  0.
         23    2    1    2    0    0 -0.12054381848E+03 -0.46091793468E+02 -0.61556456166E+03  0.63583800934E+03  0.93354051584E+02 0.  0.
        -13    1    3    3    0    0  0.13911257466E+03  0.69034450833E+02  0.35286711417E+02  0.15925833050E+03  0.00000000000E+00 0.  1.
         13    1    3    3    0    0  0.14305513410E+02 -0.21988672187E+02 -0.83315926135E+01  0.27523896054E+02  0.00000000000E+00 0. -1.
        -13    1    4    4    0    0 -0.23655755239E+02  0.27367669933E+02 -0.10734624067E+03  0.11327753308E+03  0.00000000000E+00 0.  1.
         13    1    4    4    0    0 -0.96888063244E+02 -0.73459463401E+02 -0.50821832098E+03  0.52256047626E+03  0.00000000000E+00 0. -1.
         21    1    1    2  502  501 -0.32874269587E+02 -0.95398517728E+00 -0.67462441468E+02  0.75052039928E+02  0.00000000000E+00 0. -1.
<scales pt_clust_5="13000.00000" pt_clust_6="13000.00000" pt_clust_7="13000.00000" pt_clust_8="13000.00000" pt_clust_9="32.88811"></scales>
<clustering>
<clus scale="   32.888">  2  9  1 -1</clus>
<clus scale="   91.709">  5  6 -1 -1</clus>
<clus scale="   93.354">  7  8 -1 -1</clus>
<clus scale="  181.720">  1  5  2 -1</clus>
<clus scale="   32.888">  2  5  1 -1</clus>
</clustering>
</event>
<event>
 9    1  0.1803370E-005  0.1093685E+03  0.7546771E-02  0.1261871E+00
          1   -1    0    0  502    0  0.00000000000E+00  0.00000000000E+00  0.24997966749E+03  0.24997966749E+03  0.00000000000E+00 0. -1.
         -1   -1    0    0    0  501 -0.00000000000E+00 -0.00000000000E+00 -0.84170713166E+02  0.84170713166E+02  0.00000000000E+00 0.  1.
         23    2    1    2    0    0 -0.38746086600E+02  0.56247756751E+02 -0.11963067369E+02  0.11422093849E+03  0.90764742289E+02 0.  0.
         23    2    1    2    0    0  0.23800277422E+02 -0.29187153990E+02  0.13506200382E+03  0.16720564241E+03  0.91091376179E+02 0.  0.
        -13    1    3    3    0    0 -0.53627886920E+02  0.37583454770E+02 -0.40514075528E+02  0.77005562421E+02  0.00000000000E+00 0.  1.
         13    1    3    3    0    0  0.14881800320E+02  0.18664301982E+02  0.28551008159E+02  0.37215376071E+02  0.00000000000E+00 0. -1.
        -13    1    4    4    0    0  0.28998228678E+02 -0.20552910550E+01 -0.28073025483E+00  0.29072328721E+02  0.00000000000E+00 0. -1.
         13    1    4    4    0    0 -0.51979512563E+01 -0.27131862935E+02  0.13534273408E+03  0.13813331369E+03  0.00000000000E+00 0.  1.
         21    1    1    2  502  501  0.14945809179E+02 -0.27060602761E+02  0.42710017873E+02  0.52723799755E+02  0.00000000000E+00 0. -1.
<scales pt_clust_5="13000.00000" pt_clust_6="13000.00000" pt_clust_7="13000.00000" pt_clust_8="13000.00000" pt_clust_9="30.91364"></scales>
<clustering>
<clus scale="   30.914">  1  9  2 -1</clus>
<clus scale="   90.765">  5  6 -1 -1</clus>
<clus scale="   91.091">  7  8 -1 -1</clus>
<clus scale="  109.097">  2  5  1 -1</clus>
<clus scale="   30.914">  1  5  2 -1</clus>
</clustering>
</event>
<event>
 9    1  0.1803370E-005  0.1176036E+03  0.7546771E-02  0.1247921E+00
         -3   -1    0    0    0  501 -0.00000000000E+00  0.00000000000E+00  0.76233388758E+02  0.76233388758E+02  0.00000000000E+00 0.  1.
          3   -1    0    0  502    0  0.00000000000E+00 -0.00000000000E+00 -0.29728467674E+03  0.29728467674E+03  0.00000000000E+00 0. -1.
         23    2    1    2    0    0 -0.32592653050E+02 -0.54007838984E+02 -0.27336876216E+02  0.11596444364E+03  0.93388006097E+02 0.  0.
         23    2    1    2    0    0  0.53006061152E+02  0.69227826357E+02 -0.10124080447E+03  0.16163843384E+03  0.90967842361E+02 0.  0.
        -11    1    3    3    0    0 -0.21576408489E+01 -0.69513151826E+02 -0.39166420311E+02  0.79816929098E+02  0.00000000000E+00 0.  1.
         11    1    3    3    0    0 -0.30435012201E+02  0.15505312841E+02  0.11829544095E+02  0.36147514541E+02  0.00000000000E+00 0. -1.
        -13    1    4    4    0    0  0.34524598094E+02  0.91066340368E+02 -0.77659562932E+02  0.12456337317E+03  0.00000000000E+00 0. -1.
         13    1    4    4    0    0  0.18481463057E+02 -0.21838514012E+02 -0.23581241534E+02  0.37075060664E+02  0.00000000000E+00 0.  1.
         21    1    1    2  502  501 -0.20413408102E+02 -0.15219987372E+02 -0.92473607300E+02  0.95915188020E+02  0.00000000000E+00 0. -1.
<scales pt_clust_5="13000.00000" pt_clust_6="13000.00000" pt_clust_7="13000.00000" pt_clust_8="13000.00000" pt_clust_9="25.46282"></scales>
<clustering>
<clus scale="   25.463">  2  9  1 -1</clus>
<clus scale="   90.968">  7  8 -1 -1</clus>
<clus scale="   93.388">  5  6 -1 -1</clus>
<clus scale="  115.691">  2  7  1 -1</clus>
<clus scale="   25.463">  2  5  1 -1</clus>
</clustering>
</event>
<event>
 9    1  0.1803370E-005  0.9949706E+02  0.7546771E-02  0.1283167E+00
          3   -1    0    0  502    0  0.00000000000E+00  0.00000000000E+00  0.21217651960E+03  0.21217651960E+03  0.00000000000E+00 0. -1.
         -3   -1    0    0    0  501 -0.00000000000E+00 -0.00000000000E+00 -0.26521188877E+03  0.26521188877E+03  0.00000000000E+00 0.  1.
         23    2    1    2    0    0  0.80442563001E+02  0.43884146638E+02 -0.18014754663E+03  0.22387722166E+03  0.96286279137E+02 0.  0.
         23    2    1    2    0    0 -0.18656619773E+02  0.14170995018E+02  0.13808771685E+03  0.16802221246E+03  0.92813575380E+02 0.  0.
        -11    1    4    4    0    0  0.37701125948E+02  0.76607688320E+01  0.64534773191E+02  0.75131878904E+02  0.00000000000E+00 0. -1.
         11    1    4    4    0    0 -0.56357745721E+02  0.65102261856E+01  0.73552943662E+02  0.92890333561E+02  0.00000000000E+00 0.  1.
        -11    1    3    3    0    0 -0.20264054302E+02  0.18622860817E+02 -0.53033344412E+02  0.59749296743E+02  0.00000000000E+00 0.  1.
         11    1    3    3    0    0  0.10070661730E+03  0.25261285821E+02 -0.12711420222E+03  0.16412792491E+03  0.00000000000E+00 0. -1.
         21    1    1    2  502  501 -0.61785943228E+02 -0.58055141656E+02 -0.10975539383E+02  0.85488974248E+02  0.00000000000E+00 0.  1.
<scales pt_clust_5="13000.00000" pt_clust_6="13000.00000" pt_clust_7="13000.00000" pt_clust_8="13000.00000" pt_clust_9="84.78150"></scales>
<clustering>
<clus scale="   84.781">  2  9  1 -1</clus>
<clus scale="   92.814">  5  6 -1 -1</clus>
<clus scale="   96.140">  1  5  2 -1</clus>
<clus scale="   96.286">  7  8 -1 -1</clus>
<clus scale="   96.140">  1  5  2 -1</clus>
</clustering>
</event>
<event>
 9    1  0.1803370E-005  0.1844135E+03  0.7546771E-02  0.1163717E+00
         -2   -1    0    0    0  501 -0.00000000000E+00  0.00000000000E+00  0.30890242298E+03  0.30890242298E+03  0.00000000000E+00 0.  1.
          2   -1    0    0  502    0  0.00000000000E+00 -0.00000000000E+00 -0.33105051285E+03  0.33105051285E+03  0.00000000000E+00 0. -1.
         23    2    1    2    0    0  0.58134490485E+02  0.14463851011E+03  0.21321029736E+03  0.27923757712E+03  0.90637056347E+02 0.  0.
         23    2    1    2    0    0 -0.53573206093E+02 -0.17883921333E+03 -0.11789589443E+03  0.23829015449E+03  0.89605821061E+02 0.  0.
        -11    1    3    3    0    0  0.39037292203E+02  0.45777748379E+02  0.23743875453E+02  0.64678312059E+02  0.00000000000E+00 0. -1.
         11    1    3    3    0    0  0.19097198282E+02  0.98860761729E+02  0.18946642191E+03  0.21455926506E+03  0.00000000000E+00 0.  1.
        -11    1    4    4    0    0  0.33199645774E+01 -0.53783481463E+02  0.47865145659E+01  0.54098019971E+02  0.00000000000E+00 0.  1.
         11    1    4    4    0    0 -0.56893170671E+02 -0.12505573186E+03 -0.12268240900E+03  0.18419213452E+03  0.00000000000E+00 0. -1.
         21    1    1    2  502  501 -0.45612843912E+01  0.34200703218E+02 -0.11746249280E+03  0.12242520423E+03  0.00000000000E+00 0.  1.
<scales pt_clust_5="13000.00000" pt_clust_6="13000.00000" pt_clust_7="13000.00000" pt_clust_8="13000.00000" pt_clust_9="34.50353"></scales>
<clustering>
<clus scale="   34.504">  2  9  1 -1</clus>
<clus scale="   89.606">  7  8 -1 -1</clus>
<clus scale="   90.637">  5  6 -1 -1</clus>
<clus scale="  183.909">  2  7  1 -1</clus>
<clus scale="   34.504">  2  5  1 -1</clus>
</clustering>
</event>
<event>
 9    1  0.1803370E-005  0.2365656E+03  0.7546771E-02  0.1122119E+00
          2   -1    0    0  502    0  0.00000000000E+00  0.00000000000E+00  0.46711407506E+03  0.46711407506E+03  0.00000000000E+00 0. -1.
         -2   -1    0    0    0  501 -0.00000000000E+00 -0.00000000000E+00 -0.38073328304E+03  0.38073328304E+03  0.00000000000E+00 0.  1.
         23    2    1    2    0    0 -0.11556548170E+03 -0.18473358704E+03 -0.24951792462E+03  0.34381192989E+03  0.92008530509E+02 0.  0.
         23    2    1    2    0    0  0.15897575603E+03  0.15563964713E+03  0.97267679014E+02  0.25974936358E+03  0.92259090267E+02 0.  0.
        -11    1    3    3    0    0 -0.33730091450E+02 -0.32310920724E+02 -0.90491236436E+01  0.47577319239E+02  0.00000000000E+00 0. -1.
         11    1    3    3    0    0 -0.81835390252E+02 -0.15242266631E+03 -0.24046880097E+03  0.29623461065E+03  0.00000000000E+00 0.  1.
        -13    1    4    4    0    0  0.29523972759E+02  0.76982358221E+02  0.54737779231E+01  0.82631172625E+02  0.00000000000E+00 0.  1.
         13    1    4    4    0    0  0.12945178327E+03  0.78657288911E+02  0.91793901091E+02  0.17711819096E+03  0.00000000000E+00 0. -1.
         21    1    1    2  502  501 -0.43410274330E+02  0.29093939904E+02  0.23863103762E+03  0.24428606463E+03  0.00000000000E+00 0. -1.
<scales pt_clust_5="13000.00000" pt_clust_6="13000.00000" pt_clust_7="13000.00000" pt_clust_8="13000.00000" pt_clust_9="52.25810"></scales>
<clustering>
<clus scale="   52.258">  1  9  2 -1</clus>
<clus scale="   92.009">  5  6 -1 -1</clus>
<clus scale="   92.259">  7  8 -1 -1</clus>
<clus scale="  236.468">  2  5  1 -1</clus>
<clus scale="   52.258">  1  5  2 -1</clus>
</clustering>
</event>
<event>
 9    1  0.1803370E-005  0.1212027E+03  0.7546771E-02  0.1241545E+00
         -1   -1    0    0    0  501 -0.00000000000E+00  0.00000000000E+00  0.13869527793E+03  0.13869527793E+03  0.00000000000E+00 0.  1.
          1   -1    0    0  502    0  0.00000000000E+00 -0.00000000000E+00 -0.26468064598E+03  0.26468064598E+03  0.00000000000E+00 0. -1.
         23    2    1    2    0    0 -0.73361430545E+02  0.20021833693E+02  0.73463251936E+02  0.13921324291E+03  0.90557740141E+02 0.  0.
         23    2    1    2    0    0  0.95063596179E+02  0.75955095628E+00 -0.11755843048E+03  0.17693394102E+03  0.91912842801E+02 0.  0.
        -13    1    3    3    0    0 -0.70644558758E+02 -0.20929131930E+02  0.30339793742E+02  0.79681775392E+02  0.00000000000E+00 0.  1.
         13    1    3    3    0    0 -0.27168717869E+01  0.40950965622E+02  0.43123458194E+02  0.59531467513E+02  0.00000000000E+00 0. -1.
        -13    1    4    4    0    0  0.10124219857E+03 -0.26182233696E+02 -0.91745975670E+02  0.13911439963E+03  0.00000000000E+00 0. -1.
         13    1    4    4    0    0 -0.61786023896E+01  0.26941784653E+02 -0.25812454807E+02  0.37819541390E+02  0.00000000000E+00 0.  1.
         21    1    1    2  502  501 -0.21702165634E+02 -0.20781384649E+02 -0.81890189506E+02  0.87228739980E+02  0.00000000000E+00 0.  1.
<scales pt_clust_5="13000.00000" pt_clust_6="13000.00000" pt_clust_7="13000.00000" pt_clust_8="13000.00000" pt_clust_9="30.04746"></scales>
<clustering>
<clus scale="   30.047">  2  9  1 -1</clus>
<clus scale="   90.558">  5  6 -1 -1</clus>
<clus scale="   91.913">  7  8 -1 -1</clus>
<clus scale="  120.178">  1  5  2 -1</clus>
<clus scale="   30.047">  2  5  1 -1</clus>
</clustering>
</event>
<event>
 9    1  0.1803370E-005  0.1067993E+03  0.7546771E-02  0.1267326E+00
         -4   -1    0    0    0  501 -0.00000000000E+00  0.00000000000E+00  0.68775162734E+02  0.68775162734E+02  0.00000000000E+00 0.  1.
          4   -1    0    0  502    0  0.00000000000E+00 -0.00000000000E+00 -0.29086666974E+03  0.29086666974E+03  0.00000000000E+00 0. -1.
         23    2    1    2    0    0  0.30657451816E+02 -0.62602776879E+02 -0.33516392238E+02  0.11893981540E+03  0.90356760196E+02 0.  0.
         23    2    1    2    0    0 -0.16268697858E+02  0.37139105553E+02 -0.73758239528E+02  0.12221847545E+03  0.88617685317E+02 0.  0.
        -11    1    4    4    0    0 -0.47323258521E+02 -0.18917984321E+01 -0.39975680347E+02  0.61976807901E+02  0.00000000000E+00 0. -1.
         11    1    4    4    0    0  0.31054560663E+02  0.39030903985E+02 -0.33782559181E+02  0.60241667546E+02  0.00000000000E+00 0.  1.
        -13    1    3    3    0    0 -0.12788006565E+00 -0.41959715359E+02 -0.60120191751E+02  0.73314879271E+02  0.00000000000E+00 0. -1.
         13    1    3    3    0    0  0.30785331881E+02 -0.20643061520E+02  0.26603799513E+02  0.45624936125E+02  0.00000000000E+00 0.  1.
         21    1    1    2  502  501 -0.14388753957E+02  0.25463671326E+02 -0.11481687523E+03  0.11848354163E+03  0.00000000000E+00 0. -1.
<scales pt_clust_5="13000.00000" pt_clust_6="13000.00000" pt_clust_7="13000.00000" pt_clust_8="13000.00000" pt_clust_9="29.24782"></scales>
<clustering>
<clus scale="   29.248">  2  9  1 -1</clus>
<clus scale="   88.618">  5  6 -1 -1</clus>
<clus scale="   90.357">  7  8 -1 -1</clus>
<clus scale="  105.332">  2  5  1 -1</clus>
<clus scale="   29.248">  2  5  1 -1</clus>
</clustering>
</event>
<event>
 9    1  0.1803370E-005  0.3009779E+03  0.7546771E-02  0.1084801E+00
         -1   -1    0    0    0  501 -0.00000000000E+00  0.00000000000E+00  0.13827302906E+04  0.13827302906E+04  0.00000000000E+00 0.  1.
          1   -1    0    0  502    0  0.00000000000E+00 -0.00000000000E+00 -0.12551771471E+03  0.12551771471E+03  0.00000000000E+00 0. -1.
         23    2    1    2    0    0  0.14014957818E+03  0.23640125368E+03  0.75149697879E+03  0.80542116365E+03  0.91804600766E+02 0.  0.
         23    2    1    2    0    0 -0.16335630301E+03 -0.25782536940E+03  0.55760088579E+03  0.64208453362E+03  0.90524016869E+02 0.  0.
        -11    1    4    4    0    0 -0.99174935542E+01 -0.76604405589E+02  0.98148093087E+02  0.12489851805E+03  0.00000000000E+00 0. -1.
         11    1    4    4    0    0 -0.15343880946E+03 -0.18122096381E+03  0.45945279271E+03  0.51718601557E+03  0.00000000000E+00 0.  1.
        -13    1    3    3    0    0  0.19997813159E+01  0.39748913931E+02  0.19863597038E+03  0.20258386908E+03  0.00000000000E+00 0.  1.
         13    1    3    3    0    0  0.13814979686E+03  0.19665233975E+03  0.55286100841E+03  0.60283729457E+03  0.00000000000E+00 0. -1.
         21    1    1    2  502  501  0.23206724833E+02  0.21424115724E+02 -0.51885288660E+02  0.60742308084E+02  0.00000000000E+00 0. -1.
<scales pt_clust_5="13000.00000" pt_clust_6="13000.00000" pt_clust_7="13000.00000" pt_clust_8="13000.00000" pt_clust_9="31.58393"></scales>
<clustering>
<clus scale="   31.584">  2  9  1 -1</clus>
<clus scale="   90.524">  5  6 -1 -1</clus>
<clus scale="   91.805">  7  8 -1 -1</clus>
<clus scale="  300.590">  2  5  1 -1</clus>
<clus scale="   31.584">  2  5  1 -1</clus>
</clustering>
</event>
<event>
 9    1  0.1803370E-005  0.9805460E+02  0.7546771E-02  0.1285589E+00
          1   -1    0    0  502    0  0.00000000000E+00  0.00000000000E+00  0.73131106405E+03  0.73131106405E+03  0.00000000000E+00 0. -1.
         -1   -1    0    0    0  501 -0.00000000000E+00 -0.00000000000E+00 -0.17309605800E+02  0.17309605800E+02  0.00000000000E+00 0.  1.
         23    2    1    2    0    0 -0.35637352601E+02 -0.14867488314E+02  0.27909849870E+03  0.29604895412E+03  0.90873253210E+02 0.  0.
         23    2    1    2    0    0  0.13186417804E+02  0.22384433888E+02  0.28827968675E+03  0.30404921552E+03  0.93090295776E+02 0.  0.
        -13    1    4    4    0    0 -0.39829203318E+02  0.35427781790E+01  0.10639686596E+03  0.11366270188E+03  0.00000000000E+00 0.  1.
         13    1    4    4    0    0  0.53015621122E+02  0.18841655709E+02  0.18188282080E+03  0.19038651363E+03  0.00000000000E+00 0. -1.
        -13    1    3    3    0    0 -0.10890117780E+02 -0.52543191378E+02  0.15109242524E+03  0.16033808840E+03  0.00000000000E+00 0. -1.
         13    1    3    3    0    0 -0.24747234821E+02  0.37675703064E+02  0.12800607346E+03  0.13571086572E+03  0.00000000000E+00 0.  1.
         21    1    1    2  502  501  0.22450934797E+02 -0.75169455740E+01  0.14662327280E+03  0.14852250022E+03  0.00000000000E+00 0. -1.
<scales pt_clust_5="13000.00000" pt_clust_6="13000.00000" pt_clust_7="13000.00000" pt_clust_8="13000.00000" pt_clust_9="23.67591"></scales>
<clustering>
<clus scale="   23.676">  1  9  2 -1</clus>
<clus scale="   90.873">  7  8 -1 -1</clus>
<clus scale="   93.090">  5  6 -1 -1</clus>
<clus scale="   95.952">  2  7  1 -1</clus>
<clus scale="   23.676">  1  5  2 -1</clus>
</clustering>
</event>
<event>
 9    1  0.1803370E-005  0.1518500E+03  0.7546771E-02  0.1199259E+00
          2   -1    0    0  502    0  0.00000000000E+00  0.00000000000E+00  0.81872001544E+03  0.81872001544E+03  0.00000000000E+00 0.  1.
         -2   -1    0    0    0  501 -0.00000000000E+00 -0.00000000000E+00 -0.35195212579E+02  0.35195212579E+02  0.00000000000E+00 0. -1.
         23    2    1    2    0    0 -0.65019911771E+02  0.91949303672E+02  0.24226608925E+03  0.28285884272E+03  0.92919338852E+02 0.  0.
         23    2    1    2    0    0  0.76001631727E+02 -0.11070931758E+03  0.48431899998E+03  0.51010831492E+03  0.87251350587E+02 0.  0.
        -13    1    3    3    0    0 -0.65165332136E+01  0.26701393021E+02  0.25228429774E+01  0.27600621932E+02  0.00000000000E+00 0.  1.
         13    1    3    3    0    0 -0.58503378557E+02  0.65247910651E+02  0.23974324627E+03  0.25525822079E+03  0.00000000000E+00 0. -1.
        -13    1    4    4    0    0  0.19725866167E+02 -0.99383393581E+02  0.34052972125E+03  0.35528391431E+03  0.00000000000E+00 0.  1.
         13    1    4    4    0    0  0.56275765560E+02 -0.11325924002E+02  0.14378927873E+03  0.15482440060E+03  0.00000000000E+00 0. -1.
         21    1    1    2  502  501 -0.10981719956E+02  0.18760013910E+02  0.56939713633E+02  0.60948070386E+02  0.00000000000E+00 0. -1.
<scales pt_clust_5="13000.00000" pt_clust_6="13000.00000" pt_clust_7="13000.00000" pt_clust_8="13000.00000" pt_clust_9="21.73790"></scales>
<clustering>
<clus scale="   21.738">  1  9  2 -1</clus>
<clus scale="   87.251">  7  8 -1 -1</clus>
<clus scale="   92.919">  5  6 -1 -1</clus>
<clus scale="  148.449">  1  7  2 -1</clus>
<clus scale="   21.738">  1  5  2 -1</clus>
</clustering>
</event>
<event>
 9    1  0.1803370E-005  0.9213411E+02  0.7546771E-02  0.1304886E+00
          1   -1    0    0  502    0  0.00000000000E+00  0.00000000000E+00  0.84584709404E+02  0.84584709404E+02  0.00000000000E+00 0. -1.
         -1   -1    0    0    0  501 -0.00000000000E+00 -0.00000000000E+00 -0.13814728741E+03  0.13814728741E+03  0.00000000000E+00 0.  1.
         23    2    1    2    0    0 -0.10148340966E+01  0.13318106412E+01 -0.49127485284E+02  0.94320676079E+02  0.80498922463E+02 0.  0.
         23    2    1    2    0    0 -0.18712061086E+02  0.97474016162E+01 -0.25356314647E+02  0.97595791126E+02  0.91852287313E+02 0.  0.
        -11    1    3    3    0    0  0.20861785216E+02 -0.26708579787E+02 -0.47973968254E+02  0.58737244970E+02  0.00000000000E+00 0.  1.
         11    1    3    3    0    0 -0.21876619313E+02  0.28040390428E+02 -0.11535170301E+01  0.35583431109E+02  0.00000000000E+00 0. -1.
        -13    1    4    4    0    0 -0.56182513002E+02  0.61919448566E+01 -0.13211594802E+02  0.58046198718E+02  0.00000000000E+00 0. -1.
         13    1    4    4    0    0  0.37470451916E+02  0.35554567597E+01 -0.12144719844E+02  0.39549592408E+02  0.00000000000E+00 0.  1.
         21    1    1    2  502  501  0.19726895183E+02 -0.11079212257E+02  0.20921221929E+02  0.30815529604E+02  0.00000000000E+00 0.  1.
<scales pt_clust_5="13000.00000" pt_clust_6="13000.00000" pt_clust_7="13000.00000" pt_clust_8="13000.00000" pt_clust_9="22.62519"></scales>
<clustering>
<clus scale="   22.625">  1  9  2 -1</clus>
<clus scale="   80.499">  5  6 -1 -1</clus>
<clus scale="   80.820">  2  5  1 -1</clus>
<clus scale="   91.852">  7  8 -1 -1</clus>
<clus scale="   22.625">  1  5  2 -1</clus>
</clustering>
</event>
<event>
 9    1  0.1803370E-005  0.1031043E+03  0.7546771E-02  0.1274205E+00
          1   -1    0    0  502    0  0.00000000000E+00  0.00000000000E+00  0.38155101673E+03  0.38155101673E+03  0.00000000000E+00 0. -1.
         -1   -1    0    0    0  501 -0.00000000000E+00 -0.00000000000E+00 -0.40418934180E+02  0.40418934180E+02  0.00000000000E+00 0.  1.
         23    2    1    2    0    0 -0.17157560160E+02  0.55137002047E+02  0.98537235635E+02  0.14627808640E+03  0.91395956632E+02 0.  0.
         23    2    1    2    0    0  0.14468657887E+02 -0.28281778426E+02  0.14683486669E+03  0.17620112603E+03  0.92071481392E+02 0.  0.
        -11    1    4    4    0    0  0.28607524861E+02  0.57744560127E+00  0.14057880797E+03  0.14346123230E+03  0.00000000000E+00 0. -1.
         11    1    4    4    0    0 -0.14138866975E+02 -0.28859224027E+02  0.62560587207E+01  0.32739893731E+02  0.00000000000E+00 0.  1.
        -13    1    3    3    0    0  0.28276726650E+02  0.48464887106E+02  0.77720107256E+02  0.95858404035E+02  0.00000000000E+00 0. -1.
         13    1    3    3    0    0 -0.45434286810E+02  0.66721149406E+01  0.20817128379E+02  0.50419682364E+02  0.00000000000E+00 0.  1.
         21    1    1    2  502  501  0.26889022733E+01 -0.26855223621E+02  0.95759980220E+02  0.99490738478E+02  0.00000000000E+00 0. -1.
<scales pt_clust_5="13000.00000" pt_clust_6="13000.00000" pt_clust_7="13000.00000" pt_clust_8="13000.00000" pt_clust_9="26.98950"></scales>
<clustering>
<clus scale="   26.990">  1  9  2 -1</clus>
<clus scale="   91.396">  7  8 -1 -1</clus>
<clus scale="   92.071">  5  6 -1 -1</clus>
<clus scale="  102.501">  2  7  1 -1</clus>
<clus scale="   26.990">  1  5  2 -1</clus>
</clustering>
</event>
<event>
 9    1  0.1803370E-005  0.9648519E+02  0.7546771E-02  0.1288041E+00
         -1   -1    0    0    0  501 -0.00000000000E+00  0.00000000000E+00  0.14401084440E+03  0.14401084440E+03  0.00000000000E+00 0.  1.
          1   -1    0    0  502    0  0.00000000000E+00 -0.00000000000E+00 -0.16261521917E+03  0.16261521917E+03  0.00000000000E+00 0. -1.
         23    2    1    2    0    0 -0.32896219198E+02  0.32357225772E+01  0.99188489086E+02  0.13887672342E+03  0.91409828805E+02 0.  0.
         23    2    1    2    0    0  0.91810115603E+01 -0.84564539406E+01 -0.10603388607E+03  0.14076896454E+03  0.91743739826E+02 0.  0.
        -11    1    4    4    0    0  0.18820361511E+02 -0.46393274335E+02 -0.40327339792E+02  0.64287139037E+02  0.00000000000E+00 0. -1.
         11    1    4    4    0    0 -0.96393499506E+01  0.37936820394E+02 -0.65706546278E+02  0.76481825507E+02  0.00000000000E+00 0.  1.
        -13    1    3    3    0    0 -0.29098183952E+02  0.38954369252E+02  0.89204130667E+02  0.10159490204E+03  0.00000000000E+00 0.  1.
         13    1    3    3    0    0 -0.37980352464E+01 -0.35718646675E+02  0.99843584192E+01  0.37281821375E+02  0.00000000000E+00 0. -1.
         21    1    1    2  502  501  0.23715207638E+02  0.52207313634E+01 -0.11758977781E+02  0.26980375604E+02  0.00000000000E+00 0.  1.
<scales pt_clust_5="13000.00000" pt_clust_6="13000.00000" pt_clust_7="13000.00000" pt_clust_8="13000.00000" pt_clust_9="24.28306"></scales>
<clustering>
<clus scale="   24.283">  2  9  1 -1</clus>
<clus scale="   91.410">  7  8 -1 -1</clus>
<clus scale="   91.744">  5  6 -1 -1</clus>
<clus scale="   96.168">  1  7  2 -1</clus>
<clus scale="   24.283">  2  5  1 -1</clus>
</clustering>
</event>
<event>
 9    1  0.1803370E-005  0.1344218E+03  0.7546771E-02  0.1221163E+00
         -1   -1    0    0    0  501 -0.00000000000E+00  0.00000000000E+00  0.50956301828E+03  0.50956301828E+03  0.00000000000E+00 0.  1.
          1   -1    0    0  502    0  0.00000000000E+00 -0.00000000000E+00 -0.29393065473E+03  0.29393065473E+03  0.00000000000E+00 0. -1.
         23    2    1    2    0    0 -0.12468713915E+03  0.31344597504E+02  0.35888234851E+03  0.39204234098E+03  0.91494757123E+02 0.  0.
         23    2    1    2    0    0  0.23333695100E+02 -0.70488870847E+02  0.94056932775E+02  0.15045445857E+03  0.90976344502E+02 0.  0.
        -13    1    3    3    0    0 -0.29841487295E+02  0.49267540611E+02  0.95452349805E+02  0.11148522774E+03  0.00000000000E+00 0. -1.
         13    1    3    3    0    0 -0.94845651851E+02 -0.17922943107E+02  0.26342999871E+03  0.28055711323E+03  0.00000000000E+00 0.  1.
        -13    1    4    4    0    0 -0.28030291884E+02  0.30319222219E+00  0.11889259393E+02  0.30449034099E+02  0.00000000000E+00 0. -1.
         13    1    4    4    0    0  0.51363986984E+02 -0.70792063070E+02  0.82167673382E+02  0.12000542447E+03  0.00000000000E+00 0.  1.
         21    1    1    2  502  501  0.10135344405E+03  0.39144273344E+02 -0.23730691774E+03  0.26099687347E+03  0.00000000000E+00 0. -1.
<scales pt_clust_5="13000.00000" pt_clust_6="13000.00000" pt_clust_7="13000.00000" pt_clust_8="13000.00000" pt_clust_9="108.64987"></scales>
<clustering>
<clus scale="   90.976">  7  8 -1 -1</clus>
<clus scale="   91.495">  5  6 -1 -1</clus>
<clus scale="  108.650">  2  9  1 -1</clus>
<clus scale="  134.070">  2  7  1 -1</clus>
<clus scale="  108.650">  2  5  1 -1</clus>
</clustering>
</event>
<event>
 9    1  0.1803370E-005  0.1062862E+03  0.7546771E-02  0.1272389E+00
         -2   -1    0    0    0  501 -0.00000000000E+00  0.00000000000E+00  0.79795210506E+02  0.79795210506E+02  0.00000000000E+00 0.  1.
          2   -1    0    0  502    0  0.00000000000E+00 -0.00000000000E+00 -0.19220491359E+03  0.19220491359E+03  0.00000000000E+00 0. -1.
         23    2    1    2    0    0  0.16503004896E+02  0.33698110112E+02 -0.23769006584E+01  0.98752689852E+02  0.91315564394E+02 0.  0.
         23    2    1    2    0    0  0.39521760236E+01 -0.26066876895E+02 -0.64870720501E+02  0.12308505999E+03  0.10122558890E+03 0.  0.
        -11    1    4    4    0    0 -0.26366353014E+02 -0.48164295532E+02 -0.65617631966E+02  0.85560841278E+02  0.00000000000E+00 0. -1.
         11    1    4    4    0    0  0.30318529038E+02  0.22097418638E+02  0.74691146445E+00  0.37524218715E+02  0.00000000000E+00 0.  1.
        -13    1    3    3    0    0  0.46585535715E+02  0.53001396204E+01 -0.23341288429E+02  0.52374797024E+02  0.00000000000E+00 0.  1.
         13    1    3    3    0    0 -0.30082530819E+02  0.28397970492E+02  0.20964387771E+02  0.46377892828E+02  0.00000000000E+00 0. -1.
         21    1    1    2  502  501 -0.20455180919E+02 -0.76312332172E+01 -0.45162081927E+02  0.50162374255E+02  0.00000000000E+00 0. -1.
<scales pt_clust_5="13000.00000" pt_clust_6="13000.00000" pt_clust_7="13000.00000" pt_clust_8="13000.00000" pt_clust_9="21.83232"></scales>
<clustering>
<clus scale="   21.832">  2  9  1 -1</clus>
<clus scale="   91.316">  7  8 -1 -1</clus>
<clus scale="   96.895">  1  7  2 -1</clus>
<clus scale="  101.226">  5  6 -1 -1</clus>
<clus scale="   21.832">  2  5  1 -1</clus>
</clustering>
</event>
<event>
 9    1  0.1803370E-005  0.2229674E+03  0.7546771E-02  0.1142469E+00
          2   -1    0    0  502    0  0.00000000000E+00  0.00000000000E+00  0.87382572362E+03  0.87382572362E+03  0.00000000000E+00 0. -1.
         -2   -1    0    0    0  501 -0.00000000000E+00 -0.00000000000E+00 -0.19466220376E+03  0.19466220376E+03  0.00000000000E+00 0.  1.
         23    2    1    2    0    0 -0.15800066865E+03  0.11133946625E+03 -0.32621043168E+02  0.22283327186E+03  0.10597097032E+03 0.  0.
         23    2    1    2    0    0 -0.94888949004E+02 -0.11128882598E+03  0.14393082659E+03  0.22403497496E+03  0.89924811543E+02 0.  0.
        -11    1    4    4    0    0 -0.39077469011E+02 -0.10874293479E+03  0.91122943137E+02  0.14715796008E+03  0.00000000000E+00 0. -1.
         11    1    4    4    0    0 -0.55811479994E+02 -0.25458911901E+01  0.52807883454E+02  0.76877014874E+02  0.00000000000E+00 0.  1.
        -13    1    3    3    0    0 -0.19255741764E+02 -0.16548634425E+02  0.13256138905E+02  0.28642033986E+02  0.00000000000E+00 0. -1.
         13    1    3    3    0    0 -0.13874492689E+03  0.12788810068E+03 -0.45877182074E+02  0.19419123787E+03  0.00000000000E+00 0.  1.
         21    1    1    2  502  501  0.25288961766E+03 -0.50640277237E-01  0.56785373643E+03  0.62161968056E+03  0.00000000000E+00 0. -1.
<scales pt_clust_5="13000.00000" pt_clust_6="13000.00000" pt_clust_7="13000.00000" pt_clust_8="13000.00000" pt_clust_9="196.17493"></scales>
<clustering>
<clus scale="   89.925">  5  6 -1 -1</clus>
<clus scale="  105.971">  7  8 -1 -1</clus>
<clus scale="  171.685">  1  5  2 -1</clus>
<clus scale="  196.175">  1  9  2 -1</clus>
<clus scale="  171.685">  1  5  2 -1</clus>
</clustering>
</event>
<event>
 9    1  0.1803370E-005  0.1299771E+03  0.7546771E-02  0.1228278E+00
         -1   -1    0    0    0  501 -0.00000000000E+00  0.00000000000E+00  0.11303617131E+03  0.11303617131E+03  0.00000000000E+00 0.  1.
          1   -1    0    0  502    0  0.00000000000E+00 -0.00000000000E+00 -0.30017011830E+03  0.30017011830E+03  0.00000000000E+00 0. -1.
         23    2    1    2    0    0  0.10558335513E+02  0.10735030391E+03 -0.84115778437E+01  0.14298504735E+03  0.93479425153E+02 0.  0.
         23    2    1    2    0    0  0.28547772480E+00 -0.85789606624E+02 -0.20153902564E+03  0.23700901910E+03  0.90528217564E+02 0.  0.
        -11    1    4    4    0    0 -0.42411318614E+02 -0.21642426271E+02 -0.73761329574E+02  0.87794352336E+02  0.00000000000E+00 0.  1.
         11    1    4    4    0    0  0.42696796339E+02 -0.64147180353E+02 -0.12777769607E+03  0.14921466677E+03  0.00000000000E+00 0. -1.
        -13    1    3    3    0    0 -0.13429921098E+02  0.32682329210E+02 -0.44359620194E+02  0.56712197339E+02  0.00000000000E+00 0. -1.
         13    1    3    3    0    0  0.23988256611E+02  0.74667974697E+02  0.35948042351E+02  0.86272850014E+02  0.00000000000E+00 0.  1.
         21    1    1    2  502  501 -0.10843813238E+02 -0.21560697283E+02  0.22816656500E+02  0.33212223152E+02  0.00000000000E+00 0. -1.
<scales pt_clust_5="13000.00000" pt_clust_6="13000.00000" pt_clust_7="13000.00000" pt_clust_8="13000.00000" pt_clust_9="24.13404"></scales>
<clustering>
<clus scale="   24.134">  1  9  2 -1</clus>
<clus scale="   90.528">  5  6 -1 -1</clus>
<clus scale="   93.479">  7  8 -1 -1</clus>
<clus scale="  127.871">  2  5  1 -1</clus>
<clus scale="  127.871">  2  5  1 -1</clus>
</clustering>
</event>
<event>
 9    1  0.1803370E-005  0.1062489E+03  0.7546771E-02  0.1268722E+00
          1   -1    0    0  502    0  0.00000000000E+00  0.00000000000E+00  0.32561259161E+03  0.32561259161E+03  0.00000000000E+00 0. -1.
         -1   -1    0    0    0  501 -0.00000000000E+00 -0.00000000000E+00 -0.17986685744E+03  0.17986685744E+03  0.00000000000E+00 0.  1.
         23    2    1    2    0    0 -0.42057762299E+02 -0.19393208366E+02 -0.11654065323E+03  0.15397747610E+03  0.89344207372E+02 0.  0.
         23    2    1    2    0    0  0.86389487314E+02  0.78497791648E+02  0.11906510860E+03  0.19034680452E+03  0.91816986946E+02 0.  0.
        -11    1    4    4    0    0 -0.18270905220E+02  0.22580621796E+02  0.15924153158E+02  0.33125354520E+02  0.00000000000E+00 0.  1.
         11    1    4    4    0    0  0.10466039253E+03  0.55917169853E+02  0.10314095544E+03  0.15722145000E+03  0.00000000000E+00 0. -1.
        -11    1    3    3    0    0 -0.63802145425E+02 -0.70730710284E+01 -0.45538195154E+02  0.78704951004E+02  0.00000000000E+00 0.  1.
         11    1    3    3    0    0  0.21744383127E+02 -0.12320137338E+02 -0.71002458080E+02  0.75272525101E+02  0.00000000000E+00 0. -1.
         21    1    1    2  502  501 -0.44331725016E+02 -0.59104583282E+02  0.14322127880E+03  0.16115516843E+03  0.00000000000E+00 0. -1.
<scales pt_clust_5="13000.00000" pt_clust_6="13000.00000" pt_clust_7="13000.00000" pt_clust_8="13000.00000" pt_clust_9="73.88270"></scales>
<clustering>
<clus scale="   73.883">  1  9  2 -1</clus>
<clus scale="   89.344">  7  8 -1 -1</clus>
<clus scale="   91.817">  5  6 -1 -1</clus>
<clus scale="  104.119">  2  7  1 -1</clus>
<clus scale="   73.883">  1  5  2 -1</clus>
</clustering>
</event>
<event>
 9    1  0.1803370E-005  0.9299011E+02  0.7546771E-02  0.1297251E+00
         -1   -1    0    0    0  501 -0.00000000000E+00  0.00000000000E+00  0.14641352150E+03  0.14641352150E+03  0.00000000000E+00 0.  1.
          1   -1    0    0  502    0  0.00000000000E+00 -0.00000000000E+00 -0.24598946486E+03  0.24598946486E+03  0.00000000000E+00 0. -1.
         23    2    1    2    0    0 -0.23647855349E+02 -0.20115069099E+02  0.10724583287E+03  0.14467654839E+03  0.92009770783E+02 0.  0.
         23    2    1    2    0    0  0.47126093307E+00  0.12784796870E+02 -0.20416707558E+03  0.22327373147E+03  0.89461116112E+02 0.  0.
        -11    1    3    3    0    0  0.16224125131E+02 -0.46039655738E+02  0.45442680570E+02  0.66692648427E+02  0.00000000000E+00 0. -1.
         11    1    3    3    0    0 -0.39871980480E+02  0.25924586639E+02  0.61803152298E+02  0.77983899965E+02  0.00000000000E+00 0.  1.
        -11    1    4    4    0    0 -0.42624666453E+02  0.14450183559E+02 -0.12882680038E+03  0.13646250214E+03  0.00000000000E+00 0.  1.
         11    1    4    4    0    0  0.43095927386E+02 -0.16653866894E+01 -0.75340275200E+02  0.86811229327E+02  0.00000000000E+00 0. -1.
         21    1    1    2  502  501  0.23176594415E+02  0.73302722295E+01 -0.26547006473E+01  0.24452706500E+02  0.00000000000E+00 0. -1.
<scales pt_clust_5="13000.00000" pt_clust_6="13000.00000" pt_clust_7="13000.00000" pt_clust_8="13000.00000" pt_clust_9="24.30818"></scales>
<clustering>
<clus scale="   24.308">  1  9  2 -1</clus>
<clus scale="   89.461">  7  8 -1 -1</clus>
<clus scale="   90.469">  2  7  1 -1</clus>
<clus scale="   92.010">  5  6 -1 -1</clus>
<clus scale="   90.469">  2  5  1 -1</clus>
</clustering>
</event>
<event>
 9    1  0.1803370E-005  0.1347989E+03  0.7546771E-02  0.1221185E+00
         -1   -1    0    0    0  501 -0.00000000000E+00  0.00000000000E+00  0.35658028881E+02  0.35658028881E+02  0.00000000000E+00 0.  1.
          1   -1    0    0  502    0  0.00000000000E+00 -0.00000000000E+00 -0.64522840858E+03  0.64522840858E+03  0.00000000000E+00 0. -1.
         23    2    1    2    0    0 -0.93663780232E+02  0.22041744618E+01 -0.21396176030E+03  0.25073038218E+03  0.91150027785E+02 0.  0.
         23    2    1    2    0    0  0.97236483926E+02  0.23694843094E+02 -0.36472052827E+03  0.38968881550E+03  0.93914481240E+02 0.  0.
        -11    1    3    3    0    0 -0.82252468884E+02 -0.32888695530E+02 -0.11534722144E+03  0.14543767196E+03  0.00000000000E+00 0. -1.
         11    1    3    3    0    0 -0.11411311349E+02  0.35092869992E+02 -0.98614538860E+02  0.10529271022E+03  0.00000000000E+00 0.  1.
        -13    1    4    4    0    0  0.10887774331E+03  0.19075827070E+01 -0.25600854994E+03  0.27820564247E+03  0.00000000000E+00 0.  1.
         13    1    4    4    0    0 -0.11641259388E+02  0.21787260387E+02 -0.10871197833E+03  0.11148317303E+03  0.00000000000E+00 0. -1.
         21    1    1    2  502  501 -0.35727036932E+01 -0.25899017556E+02 -0.30888091129E+02  0.40467239782E+02  0.00000000000E+00 0. -1.
<scales pt_clust_5="13000.00000" pt_clust_6="13000.00000" pt_clust_7="13000.00000" pt_clust_8="13000.00000" pt_clust_9="26.14428"></scales>
<clustering>
<clus scale="   26.144">  1  9  2 -1</clus>
<clus scale="   91.150">  5  6 -1 -1</clus>
<clus scale="   93.914">  7  8 -1 -1</clus>
<clus scale="  132.888">  1  5  2 -1</clus>
<clus scale="  134.799">  2  5  1 -1</clus>
</clustering>
</event>
<event>
 9    1  0.1803370E-005  0.1366710E+03  0.7546771E-02  0.1219609E+00
         -1   -1    0    0    0  501 -0.00000000000E+00  0.00000000000E+00  0.11943032887E+03  0.11943032887E+03  0.00000000000E+00 0.  1.
          1   -1    0    0  502    0  0.00000000000E+00 -0.00000000000E+00 -0.50431072729E+03  0.50431072729E+03  0.00000000000E+00 0. -1.
         23    2    1    2    0    0  0.60310036850E+02  0.72893793046E+02  0.53385377068E+02  0.14185443662E+03  0.91224322930E+02 0.  0.
         23    2    1    2    0    0 -0.98610875561E+02 -0.46145585465E+02 -0.37942804890E+03  0.40675807021E+03  0.98147661995E+02 0.  0.
        -11    1    4    4    0    0 -0.37707828178E+02 -0.44112455317E+02 -0.30545065994E+03  0.31091460995E+03  0.00000000000E+00 0. -1.
         11    1    4    4    0    0 -0.60903047384E+02 -0.20331301480E+01 -0.73977388961E+02  0.95843460268E+02  0.00000000000E+00 0.  1.
        -11    1    3    3    0    0  0.34164209697E+02 -0.14067031840E+02  0.87214877327E+00  0.36957208397E+02  0.00000000000E+00 0. -1.
         11    1    3    3    0    0  0.26145827152E+02  0.86960824886E+02  0.52513228295E+02  0.10489722822E+03  0.00000000000E+00 0.  1.
         21    1    1    2  502  501  0.38300838712E+02 -0.26748207581E+02 -0.58837726581E+02  0.75128549327E+02  0.00000000000E+00 0.  1.
<scales pt_clust_5="13000.00000" pt_clust_6="13000.00000" pt_clust_7="13000.00000" pt_clust_8="13000.00000" pt_clust_9="46.71639"></scales>
<clustering>
<clus scale="   46.716">  2  9  1 -1</clus>
<clus scale="   91.224">  7  8 -1 -1</clus>
<clus scale="   98.148">  5  6 -1 -1</clus>
<clus scale="  131.787">  1  7  2 -1</clus>
<clus scale="   46.716">  2  5  1 -1</clus>
</clustering>
</event>
<event>
 9    1  0.1803370E-005  0.1002746E+03  0.7546771E-02  0.1280483E+00
         -2   -1    0    0    0  501 -0.00000000000E+00  0.00000000000E+00  0.46776603873E+02  0.46776603873E+02  0.00000000000E+00 0.  1.
          2   -1    0    0  502    0  0.00000000000E+00 -0.00000000000E+00 -0.33403274307E+03  0.33403274307E+03  0.00000000000E+00 0. -1.
         23    2    1    2    0    0 -0.31999994710E+02  0.33001064177E+02 -0.46804410758E+02  0.11124146234E+03  0.89838411484E+02 0.  0.
         23    2    1    2    0    0  0.31759376274E+02 -0.83915680226E+01 -0.18733635979E+03  0.21102791890E+03  0.91426442898E+02 0.  0.
        -13    1    3    3    0    0  0.25065449413E+02 -0.81087236312E+01  0.72791653019E+00  0.26354468609E+02  0.00000000000E+00 0.  1.
         13    1    3    3    0    0 -0.57065444122E+02  0.41109787809E+02 -0.47532327288E+02  0.84886993727E+02  0.00000000000E+00 0. -1.
        -13    1    4    4    0    0  0.58343403583E+02 -0.50278072125E+01 -0.72957990848E+02  0.93552659051E+02  0.00000000000E+00 0.  1.
         13    1    4    4    0    0 -0.26584027309E+02 -0.33637608101E+01 -0.11437836894E+03  0.11747525985E+03  0.00000000000E+00 0. -1.
         21    1    1    2  502  501  0.24061843603E+00 -0.24609496155E+02 -0.53115368653E+02  0.58539965711E+02  0.00000000000E+00 0. -1.
<scales pt_clust_5="13000.00000" pt_clust_6="13000.00000" pt_clust_7="13000.00000" pt_clust_8="13000.00000" pt_clust_9="24.61067"></scales>
<clustering>
<clus scale="   24.611">  2  9  1 -1</clus>
<clus scale="   89.838">  5  6 -1 -1</clus>
<clus scale="   91.426">  7  8 -1 -1</clus>
<clus scale="   98.829">  1  5  2 -1</clus>
<clus scale="   24.611">  2  5  1 -1</clus>
</clustering>
</event>
<event>
 9    1  0.1803370E-005  0.1020962E+03  0.7546771E-02  0.1276720E+00
         -1   -1    0    0    0  501 -0.00000000000E+00  0.00000000000E+00  0.82245009001E+02  0.82245009001E+02  0.00000000000E+00 0.  1.
          1   -1    0    0  502    0  0.00000000000E+00 -0.00000000000E+00 -0.28042182012E+03  0.28042182012E+03  0.00000000000E+00 0. -1.
         23    2    1    2    0    0  0.79286670420E+01  0.45711897351E+02  0.22339101529E+02  0.10636195661E+03  0.93066583891E+02 0.  0.
         23    2    1    2    0    0  0.44272268736E+01 -0.28534034441E+02 -0.12005288014E+03  0.15363760416E+03  0.91422250704E+02 0.  0.
        -11    1    4    4    0    0  0.46026090775E+02 -0.16139075533E+01 -0.63602017299E+02  0.78525297415E+02  0.00000000000E+00 0.  1.
         11    1    4    4    0    0 -0.41598863901E+02 -0.26920126888E+02 -0.56450862840E+02  0.75112306748E+02  0.00000000000E+00 0. -1.
        -13    1    3    3    0    0  0.33370743976E+02  0.45562966249E+02 -0.17470209706E+02  0.59116822259E+02  0.00000000000E+00 0. -1.
         13    1    3    3    0    0 -0.25442076934E+02  0.14893110179E+00  0.39809311234E+02  0.47245134354E+02  0.00000000000E+00 0.  1.
         21    1    1    2  502  501 -0.12355893916E+02 -0.17177862910E+02 -0.10046303251E+03  0.10266726834E+03  0.00000000000E+00 0. -1.
<scales pt_clust_5="13000.00000" pt_clust_6="13000.00000" pt_clust_7="13000.00000" pt_clust_8="13000.00000" pt_clust_9="21.16004"></scales>
<clustering>
<clus scale="   21.160">  2  9  1 -1</clus>
<clus scale="   91.422">  5  6 -1 -1</clus>
<clus scale="   93.067">  7  8 -1 -1</clus>
<clus scale="  100.600">  2  5  1 -1</clus>
<clus scale="   21.160">  2  5  1 -1</clus>
</clustering>
</event>
<event>
 9    1  0.2203218E-005  0.9567533E+02  0.7546771E-02  0.1292276E+00
          2   -1    0    0  502    0  0.00000000000E+00  0.00000000000E+00  0.55933952593E+03  0.55933952593E+03  0.00000000000E+00 0. -1.
         -2   -1    0    0    0  501 -0.00000000000E+00 -0.00000000000E+00 -0.54709909807E+02  0.54709909807E+02  0.00000000000E+00 0.  1.
         23    2    1    2    0    0 -0.11380558813E+02 -0.25059444778E+01 -0.32663982935E+01  0.91419779950E+02  0.90615174953E+02 0.  0.
         23    2    1    2    0    0 -0.12222758039E+02  0.10566465091E+02  0.36416010962E+03  0.37674580169E+03  0.95203821629E+02 0.  0.
        -11    1    4    4    0    0  0.17792363229E+02  0.41202468985E+02  0.26402512298E+03  0.26781239181E+03  0.00000000000E+00 0. -1.
         11    1    4    4    0    0 -0.30015121267E+02 -0.30636003894E+02  0.10013498663E+03  0.10893340988E+03  0.00000000000E+00 0.  1.
        -13    1    3    3    0    0  0.16949311659E+02 -0.37569584505E+02 -0.16566127512E+02  0.44420596870E+02  0.00000000000E+00 0.  1.
         13    1    3    3    0    0 -0.28329870472E+02  0.35063640027E+02  0.13299729218E+02  0.46999183080E+02  0.00000000000E+00 0. -1.
         21    1    1    2  502  501  0.23603316852E+02 -0.80605206132E+01  0.14373590480E+03  0.14588385411E+03  0.00000000000E+00 0. -1.
<scales pt_clust_5="13000.00000" pt_clust_6="13000.00000" pt_clust_7="13000.00000" pt_clust_8="13000.00000" pt_clust_9="24.94170"></scales>
<clustering>
<clus scale="   24.942">  1  9  2 -1</clus>
<clus scale="   90.615">  7  8 -1 -1</clus>
<clus scale="   91.110">  2  7  1 -1</clus>
<clus scale="   95.204">  5  6 -1 -1</clus>
<clus scale="   24.942">  1  5  2 -1</clus>
</clustering>
</event>
<event>
 9    1  0.1803370E-005  0.9361206E+02  0.7546771E-02  0.1298455E+00
          1   -1    0    0  502    0  0.00000000000E+00  0.00000000000E+00  0.28464025627E+03  0.28464025627E+03  0.00000000000E+00 0. -1.
         -1   -1    0    0    0  501 -0.00000000000E+00 -0.00000000000E+00 -0.13269580340E+03  0.13269580340E+03  0.00000000000E+00 0.  1.
         23    2    1    2    0    0  0.55720865536E+01 -0.20240260940E+02 -0.10076198727E+03  0.13742889135E+03  0.91065941975E+02 0.  0.
         23    2    1    2    0    0 -0.32777702189E+02  0.20669018613E+02  0.20692699883E+03  0.22665224739E+03  0.83969472500E+02 0.  0.
        -11    1    3    3    0    0  0.46943876731E+02 -0.88345917002E+01 -0.69506590179E+02  0.84338269198E+02  0.00000000000E+00 0.  1.
         11    1    3    3    0    0 -0.41371790178E+02 -0.11405669240E+02 -0.31255397095E+02  0.53090622156E+02  0.00000000000E+00 0. -1.
        -11    1    4    4    0    0 -0.56884970044E+02  0.13125060201E+02  0.91830101772E+02  0.10881605862E+03  0.00000000000E+00 0. -1.
         11    1    4    4    0    0  0.24107267855E+02  0.75439584120E+01  0.11509689706E+03  0.11783618877E+03  0.00000000000E+00 0.  1.
         21    1    1    2  502  501  0.27205615636E+02 -0.42875767292E+00  0.45779441322E+02  0.53254920928E+02  0.00000000000E+00 0. -1.
<scales pt_clust_5="13000.00000" pt_clust_6="13000.00000" pt_clust_7="13000.00000" pt_clust_8="13000.00000" pt_clust_9="27.20899"></scales>
<clustering>
<clus scale="   27.209">  1  9  2 -1</clus>
<clus scale="   83.969">  7  8 -1 -1</clus>
<clus scale="   86.724">  1  7  2 -1</clus>
<clus scale="   91.066">  5  6 -1 -1</clus>
<clus scale="   27.209">  1  5  2 -1</clus>
</clustering>
</event>
<event>
 9    1  0.1803370E-005  0.1011007E+03  0.7546771E-02  0.1278111E+00
          2   -1    0    0  502    0  0.00000000000E+00  0.00000000000E+00  0.25453206991E+03  0.25453206991E+03  0.00000000000E+00 0. -1.
         -2   -1    0    0    0  501 -0.00000000000E+00 -0.00000000000E+00 -0.17304644547E+03  0.17304644547E+03  0.00000000000E+00 0.  1.
         23    2    1    2    0    0  0.50941635836E+02  0.19466348953E+01 -0.73648127635E+02  0.12832569179E+03  0.91894487434E+02 0.  0.
         23    2    1    2    0    0 -0.30011091271E+02  0.17735708117E+02 -0.37129518040E+02  0.10485465652E+03  0.91655206848E+02 0.  0.
        -11    1    3    3    0    0  0.70903221525E+02  0.19134452731E+02 -0.70490482378E+02  0.10179539385E+03  0.00000000000E+00 0.  1.
         11    1    3    3    0    0 -0.19961585689E+02 -0.17187817836E+02 -0.31576452573E+01  0.26530297939E+02  0.00000000000E+00 0. -1.
        -11    1    4    4    0    0 -0.25109111847E+02 -0.19931901306E+02  0.18860894822E+02  0.37195181689E+02  0.00000000000E+00 0. -1.
         11    1    4    4    0    0 -0.49019794240E+01  0.37667609423E+02 -0.55990412862E+02  0.67659474830E+02  0.00000000000E+00 0.  1.
         21    1    1    2  502  501 -0.20930544565E+02 -0.19682343012E+02  0.19226327012E+03  0.19439816707E+03  0.00000000000E+00 0. -1.
<scales pt_clust_5="13000.00000" pt_clust_6="13000.00000" pt_clust_7="13000.00000" pt_clust_8="13000.00000" pt_clust_9="28.73121"></scales>
<clustering>
<clus scale="   28.731">  1  9  2 -1</clus>
<clus scale="   91.655">  7  8 -1 -1</clus>
<clus scale="   91.894">  5  6 -1 -1</clus>
<clus scale="  100.883">  1  7  2 -1</clus>
<clus scale="   28.731">  1  5  2 -1</clus>
</clustering>
</event>
<event>
 9    1  0.1803370E-005  0.2550170E+03  0.7546771E-02  0.1111651E+00
         -1   -1    0    0    0  501 -0.00000000000E+00  0.00000000000E+00  0.28744965145E+03  0.28744965145E+03  0.00000000000E+00 0.  1.
          1   -1    0    0  502    0  0.00000000000E+00 -0.00000000000E+00 -0.45699748737E+03  0.45699748737E+03  0.00000000000E+00 0. -1.
         23    2    1    2    0    0  0.15544985294E+03 -0.15092783987E+03  0.12515663442E+03  0.27584551663E+03  0.11611501316E+03 0.  0.
         23    2    1    2    0    0 -0.14964040896E+03  0.22648327750E+03 -0.21591142071E+03  0.35928228051E+03  0.93696790321E+02 0.  0.
        -11    1    4    4    0    0 -0.13983424173E+03  0.18716386899E+03 -0.13769020522E+03  0.27118724459E+03  0.00000000000E+00 0.  1.
         11    1    4    4    0    0 -0.98061672296E+01  0.39319408513E+02 -0.78221215491E+02  0.88095035924E+02  0.00000000000E+00 0. -1.
        -13    1    3    3    0    0  0.19619232140E+02 -0.84471592539E+02  0.13254161393E+02  0.87727059737E+02  0.00000000000E+00 0.  1.
         13    1    3    3    0    0  0.13583062080E+03 -0.66456247331E+02  0.11190247303E+03  0.18811845690E+03  0.00000000000E+00 0. -1.
         21    1    1    2  502  501 -0.58094439755E+01 -0.75555437629E+02 -0.78793049623E+02  0.10931934167E+03  0.00000000000E+00 0. -1.
<scales pt_clust_5="13000.00000" pt_clust_6="13000.00000" pt_clust_7="13000.00000" pt_clust_8="13000.00000" pt_clust_9="75.77845"></scales>
<clustering>
<clus scale="   75.778">  2  9  1 -1</clus>
<clus scale="   93.697">  5  6 -1 -1</clus>
<clus scale="  116.115">  7  8 -1 -1</clus>
<clus scale="  245.622">  2  5  1 -1</clus>
<clus scale="   75.778">  2  5  1 -1</clus>
</clustering>
</event>
<event>
 9    1  0.1803370E-005  0.9173743E+02  0.7546771E-02  0.1299557E+00
         -3   -1    0    0    0  501 -0.00000000000E+00  0.00000000000E+00  0.19661741153E+02  0.19661741153E+02  0.00000000000E+00 0.  1.
          3   -1    0    0  502    0  0.00000000000E+00 -0.00000000000E+00 -0.57038231498E+03  0.57038231498E+03  0.00000000000E+00 0. -1.
         23    2    1    2    0    0  0.12288275532E+02 -0.20253460490E+00 -0.21704959725E+03  0.23591753039E+03  0.91627019724E+02 0.  0.
         23    2    1    2    0    0  0.12566525528E+02  0.91975415921E+01 -0.24221264494E+03  0.25892517222E+03  0.90181855743E+02 0.  0.
        -11    1    3    3    0    0  0.46660761098E+02 -0.76856169213E+01 -0.17406033085E+03  0.18036988138E+03  0.00000000000E+00 0. -1.
         11    1    3    3    0    0 -0.34372485566E+02  0.74830823164E+01 -0.42989266401E+02  0.55547649011E+02  0.00000000000E+00 0.  1.
        -13    1    4    4    0    0  0.15553012814E+02  0.48402060934E+02 -0.15817717799E+03  0.16614654780E+03  0.00000000000E+00 0.  1.
         13    1    4    4    0    0 -0.29864872864E+01 -0.39204519342E+02 -0.84035466951E+02  0.92778624417E+02  0.00000000000E+00 0. -1.
         21    1    1    2  502  501 -0.24854801060E+02 -0.89950069872E+01 -0.91458331628E+02  0.95201353512E+02  0.00000000000E+00 0. -1.
<scales pt_clust_5="13000.00000" pt_clust_6="13000.00000" pt_clust_7="13000.00000" pt_clust_8="13000.00000" pt_clust_9="26.43239"></scales>
<clustering>
<clus scale="   26.432">  2  9  1 -1</clus>
<clus scale="   90.182">  7  8 -1 -1</clus>
<clus scale="   90.294">  2  7  1 -1</clus>
<clus scale="   91.627">  5  6 -1 -1</clus>
<clus scale="   26.432">  2  5  1 -1</clus>
</clustering>
</event>
<event>
 9    1  0.1803370E-005  0.2153133E+03  0.7546771E-02  0.1137563E+00
         -1   -1    0    0    0  501 -0.00000000000E+00  0.00000000000E+00  0.48141396828E+03  0.48141396828E+03  0.00000000000E+00 0.  1.
          1   -1    0    0  502    0  0.00000000000E+00 -0.00000000000E+00 -0.20554254898E+03  0.20554254898E+03  0.00000000000E+00 0. -1.
         23    2    1    2    0    0 -0.66848539744E+02  0.18601150853E+03  0.30009323291E+03  0.37078399813E+03  0.91410154047E+02 0.  0.
         23    2    1    2    0    0  0.37300444969E+02 -0.18420747148E+03  0.67075805017E+02  0.22019544050E+03  0.93076058434E+02 0.  0.
        -11    1    3    3    0    0 -0.67569967889E+02  0.11935156048E+03  0.25728767483E+03  0.29156035939E+03  0.00000000000E+00 0.  1.
         11    1    3    3    0    0  0.72142814517E+00  0.66659948053E+02  0.42805558075E+02  0.79223638739E+02  0.00000000000E+00 0. -1.
        -11    1    4    4    0    0 -0.27264643648E+02 -0.97195508691E+02  0.25287756814E+02  0.10406631707E+03  0.00000000000E+00 0.  1.
         11    1    4    4    0    0  0.64565088617E+02 -0.87011962786E+02  0.41788048202E+02  0.11612912343E+03  0.00000000000E+00 0. -1.
         21    1    1    2  502  501  0.29548094775E+02 -0.18040370522E+01 -0.91297618631E+02  0.95977078629E+02  0.00000000000E+00 0. -1.
<scales pt_clust_5="13000.00000" pt_clust_6="13000.00000" pt_clust_7="13000.00000" pt_clust_8="13000.00000" pt_clust_9="29.60312"></scales>
<clustering>
<clus scale="   29.603">  2  9  1 -1</clus>
<clus scale="   91.410">  5  6 -1 -1</clus>
<clus scale="   93.076">  7  8 -1 -1</clus>
<clus scale="  214.598">  1  5  2 -1</clus>
<clus scale="   29.603">  2  5  1 -1</clus>
</clustering>
</event>
<event>
 9    1  0.1803370E-005  0.9735686E+02  0.7546771E-02  0.1287146E+00
         -1   -1    0    0    0  501 -0.00000000000E+00  0.00000000000E+00  0.56557116693E+02  0.56557116693E+02  0.00000000000E+00 0.  1.
          1   -1    0    0  502    0  0.00000000000E+00 -0.00000000000E+00 -0.23168564878E+03  0.23168564878E+03  0.00000000000E+00 0. -1.
         23    2    1    2    0    0 -0.27188965592E+02  0.32944235041E+02 -0.35575874678E+02  0.10675394781E+03  0.91138356590E+02 0.  0.
         23    2    1    2    0    0  0.13454354518E+02 -0.12639274070E+02 -0.11801857906E+03  0.14885988094E+03  0.88826281273E+02 0.  0.
        -11    1    3    3    0    0  0.45604232974E+01 -0.29839666462E+02 -0.84047389109E+01  0.31334370767E+02  0.00000000000E+00 0. -1.
         11    1    3    3    0    0 -0.31749388890E+02  0.62783901503E+02 -0.27171135767E+02  0.75419577045E+02  0.00000000000E+00 0.  1.
        -13    1    4    4    0    0  0.51244570376E+02 -0.11144388348E+02 -0.61067675823E+02  0.80495120443E+02  0.00000000000E+00 0. -1.
         13    1    4    4    0    0 -0.37790215859E+02 -0.14948857215E+01 -0.56950903234E+02  0.68364760492E+02  0.00000000000E+00 0.  1.
         21    1    1    2  502  501  0.13734611075E+02 -0.20304960971E+02 -0.21534078354E+02  0.32628936727E+02  0.00000000000E+00 0. -1.
<scales pt_clust_5="13000.00000" pt_clust_6="13000.00000" pt_clust_7="13000.00000" pt_clust_8="13000.00000" pt_clust_9="24.51389"></scales>
<clustering>
<clus scale="   24.514">  2  9  1 -1</clus>
<clus scale="   88.826">  7  8 -1 -1</clus>
<clus scale="   91.138">  5  6 -1 -1</clus>
<clus scale="   95.196">  2  7  1 -1</clus>
<clus scale="   24.514">  2  5  1 -1</clus>
</clustering>
</event>
<event>
 9    1  0.1803370E-005  0.1021077E+03  0.7546771E-02  0.1277423E+00
          3   -1    0    0  502    0  0.00000000000E+00  0.00000000000E+00  0.68871224425E+02  0.68871224425E+02  0.00000000000E+00 0. -1.
         -3   -1    0    0    0  501 -0.00000000000E+00 -0.00000000000E+00 -0.31536445438E+03  0.31536445438E+03  0.00000000000E+00 0.  1.
         23    2    1    2    0    0  0.18229239856E+02  0.19788269759E+02 -0.14620372992E+03  0.17339032288E+03  0.89245686856E+02 0.  0.
         23    2    1    2    0    0 -0.48022428832E+02 -0.57664717488E+02 -0.10952428326E+03  0.16177866026E+03  0.92441294776E+02 0.  0.
        -11    1    3    3    0    0  0.13501144435E+01  0.54296927100E+02 -0.94197621407E+02  0.10873440569E+03  0.00000000000E+00 0. -1.
         11    1    3    3    0    0  0.16879125412E+02 -0.34508657341E+02 -0.52006108511E+02  0.64655917197E+02  0.00000000000E+00 0.  1.
        -11    1    4    4    0    0  0.83912371112E+01 -0.34725878450E+02 -0.91563654479E+02  0.98286328225E+02  0.00000000000E+00 0.  1.
         11    1    4    4    0    0 -0.56413665943E+02 -0.22938839038E+02 -0.17960628777E+02  0.63492332038E+02  0.00000000000E+00 0. -1.
         21    1    1    2  502  501  0.29793188976E+02  0.37876447729E+02  0.92347832172E+01  0.49066695660E+02  0.00000000000E+00 0. -1.
<scales pt_clust_5="13000.00000" pt_clust_6="13000.00000" pt_clust_7="13000.00000" pt_clust_8="13000.00000" pt_clust_9="48.18983"></scales>
<clustering>
<clus scale="   48.190">  1  9  2 -1</clus>
<clus scale="   89.246">  5  6 -1 -1</clus>
<clus scale="   92.441">  7  8 -1 -1</clus>
<clus scale="   99.224">  2  5  1 -1</clus>
<clus scale="   48.190">  1  5  2 -1</clus>
</clustering>
</event>
<event>
 9    1  0.1803370E-005  0.1313902E+03  0.7546771E-02  0.1226656E+00
         -1   -1    0    0    0  501 -0.00000000000E+00  0.00000000000E+00  0.56027701511E+02  0.56027701511E+02  0.00000000000E+00 0.  1.
          1   -1    0    0  502    0  0.00000000000E+00 -0.00000000000E+00 -0.42944788488E+03  0.42944788488E+03  0.00000000000E+00 0. -1.
         23    2    1    2    0    0 -0.25471228862E+02 -0.90101617359E+02 -0.84944840614E+02  0.15858927675E+03  0.95748878860E+02 0.  0.
         23    2    1    2    0    0  0.46702427984E+02  0.71569503172E+02 -0.22273780808E+03  0.25536270139E+03  0.91075065453E+02 0.  0.
        -11    1    3    3    0    0 -0.21383345099E+02  0.11288357394E+02  0.29285640322E+01  0.24356743369E+02  0.00000000000E+00 0.  1.
         11    1    3    3    0    0 -0.40878837635E+01 -0.10138997475E+03 -0.87873404646E+02  0.13423253338E+03  0.00000000000E+00 0. -1.
        -13    1    4    4    0    0  0.13849003724E+02 -0.16273193289E+02 -0.11557306613E+02  0.24293683544E+02  0.00000000000E+00 0. -1.
         13    1    4    4    0    0  0.32853424261E+02  0.87842696462E+02 -0.21118050146E+03  0.23106901784E+03  0.00000000000E+00 0.  1.
         21    1    1    2  502  501 -0.21231199122E+02  0.18532114187E+02 -0.65737534676E+02  0.71523608254E+02  0.00000000000E+00 0. -1.
<scales pt_clust_5="13000.00000" pt_clust_6="13000.00000" pt_clust_7="13000.00000" pt_clust_8="13000.00000" pt_clust_9="28.18161"></scales>
<clustering>
<clus scale="   28.182">  2  9  1 -1</clus>
<clus scale="   91.075">  7  8 -1 -1</clus>
<clus scale="   95.749">  5  6 -1 -1</clus>
<clus scale="  128.024">  2  7  1 -1</clus>
<clus scale="   28.182">  2  5  1 -1</clus>
</clustering>
</event>
<event>
 9    1  0.1803370E-005  0.1018834E+03  0.7546771E-02  0.1276753E+00
         -2   -1    0    0    0  501 -0.00000000000E+00  0.00000000000E+00  0.14010034297E+02  0.14010034297E+02  0.00000000000E+00 0.  1.
          2   -1    0    0  502    0  0.00000000000E+00 -0.00000000000E+00 -0.10767323295E+04  0.10767323295E+04  0.00000000000E+00 0. -1.
         23    2    1    2    0    0  0.46539090328E+02  0.10571724459E+01 -0.41060938955E+03  0.42378520425E+03  0.93951178874E+02 0.  0.
         23    2    1    2    0    0 -0.24280223104E+02 -0.32296301330E+02 -0.47748918649E+03  0.48817018116E+03  0.93175223391E+02 0.  0.
        -11    1    4    4    0    0  0.20501705118E+02 -0.47594416196E+02 -0.30191719969E+03  0.30633240742E+03  0.00000000000E+00 0.  1.
         11    1    4    4    0    0 -0.44781928222E+02  0.15298114867E+02 -0.17557198679E+03  0.18183777375E+03  0.00000000000E+00 0. -1.
        -13    1    3    3    0    0  0.34576612318E+02 -0.41543436733E+02 -0.14988493226E+03  0.15933264629E+03  0.00000000000E+00 0.  1.
         13    1    3    3    0    0  0.11962478010E+02  0.42600609178E+02 -0.26072445729E+03  0.26445255796E+03  0.00000000000E+00 0. -1.
         21    1    1    2  502  501 -0.22258867224E+02  0.31239128884E+02 -0.17462371913E+03  0.17878697834E+03  0.00000000000E+00 0. -1.
<scales pt_clust_5="13000.00000" pt_clust_6="13000.00000" pt_clust_7="13000.00000" pt_clust_8="13000.00000" pt_clust_9="38.35805"></scales>
<clustering>
<clus scale="   38.358">  2  9  1 -1</clus>
<clus scale="   93.175">  5  6 -1 -1</clus>
<clus scale="   93.951">  7  8 -1 -1</clus>
<clus scale="  101.168">  2  5  1 -1</clus>
<clus scale="   38.358">  2  5  1 -1</clus>
</clustering>
</event>
<event>
 9    1  0.1803370E-005  0.1333803E+03  0.7546771E-02  0.1222879E+00
          1   -1    0    0  502    0  0.00000000000E+00  0.00000000000E+00  0.10815941647E+03  0.10815941647E+03  0.00000000000E+00 0. -1.
         -1   -1    0    0    0  501 -0.00000000000E+00 -0.00000000000E+00 -0.32594425680E+03  0.32594425680E+03  0.00000000000E+00 0.  1.
         23    2    1    2    0    0 -0.76464108812E+02  0.66591467536E+02 -0.23590527740E+03  0.27370445579E+03  0.94771544938E+02 0.  0.
         23    2    1    2    0    0  0.66227871506E+02 -0.30035401138E+02  0.51802126186E-01  0.11835635705E+03  0.93380770424E+02 0.  0.
        -11    1    3    3    0    0 -0.90255663760E+02  0.27038290056E+02 -0.13676251375E+03  0.16607570303E+03  0.00000000000E+00 0.  1.
         11    1    3    3    0    0  0.13791554948E+02  0.39553177480E+02 -0.99142763651E+02  0.10762875276E+03  0.00000000000E+00 0. -1.
        -13    1    4    4    0    0  0.45411300270E+02 -0.20888983244E+02  0.45464913528E+02  0.67569180662E+02  0.00000000000E+00 0. -1.
         13    1    4    4    0    0  0.20816571236E+02 -0.91464178941E+01 -0.45413111402E+02  0.50787176388E+02  0.00000000000E+00 0.  1.
         21    1    1    2  502  501  0.10236237307E+02 -0.36556066398E+02  0.18068634947E+02  0.42042860435E+02  0.00000000000E+00 0. -1.
<scales pt_clust_5="13000.00000" pt_clust_6="13000.00000" pt_clust_7="13000.00000" pt_clust_8="13000.00000" pt_clust_9="37.96217"></scales>
<clustering>
<clus scale="   37.962">  1  9  2 -1</clus>
<clus scale="   93.381">  7  8 -1 -1</clus>
<clus scale="   94.772">  5  6 -1 -1</clus>
<clus scale="  132.396">  1  7  2 -1</clus>
<clus scale="   37.962">  1  5  2 -1</clus>
</clustering>
</event>
<event>
 9    1  0.1803370E-005  0.1520305E+03  0.7546771E-02  0.1198167E+00
          1   -1    0    0  502    0  0.00000000000E+00  0.00000000000E+00  0.57429132730E+02  0.57429132730E+02  0.00000000000E+00 0. -1.
         -1   -1    0    0    0  501 -0.00000000000E+00 -0.00000000000E+00 -0.68154881787E+03  0.68154881787E+03  0.00000000000E+00 0.  1.
         23    2    1    2    0    0 -0.75925874797E+02 -0.12197767400E+03 -0.40937346004E+03  0.44317707348E+03  0.90421221259E+02 0.  0.
         23    2    1    2    0    0  0.64808641124E+02  0.73858034662E+02 -0.20673124917E+03  0.24576756409E+03  0.89491434937E+02 0.  0.
        -13    1    3    3    0    0  0.19805694293E+02 -0.29807812023E+02 -0.67845090257E+02  0.76705459102E+02  0.00000000000E+00 0.  1.
         13    1    3    3    0    0 -0.95731569090E+02 -0.92169861973E+02 -0.34152836979E+03  0.36647161438E+03  0.00000000000E+00 0. -1.
        -13    1    4    4    0    0  0.33853705687E+02  0.44107926080E+02 -0.28582355692E+02  0.62518266040E+02  0.00000000000E+00 0. -1.
         13    1    4    4    0    0  0.30954935437E+02  0.29750108582E+02 -0.17814889347E+03  0.18324929805E+03  0.00000000000E+00 0.  1.
         21    1    1    2  502  501  0.11117233673E+02  0.48119639334E+02 -0.80149759359E+01  0.50033313037E+02  0.00000000000E+00 0. -1.
<scales pt_clust_5="13000.00000" pt_clust_6="13000.00000" pt_clust_7="13000.00000" pt_clust_8="13000.00000" pt_clust_9="49.38717"></scales>
<clustering>
<clus scale="   49.387">  1  9  2 -1</clus>
<clus scale="   89.491">  7  8 -1 -1</clus>
<clus scale="   90.421">  5  6 -1 -1</clus>
<clus scale="  151.479">  1  7  2 -1</clus>
<clus scale="   49.387">  1  5  2 -1</clus>
</clustering>
</event>
<event>
 9    1  0.1803370E-005  0.1024795E+03  0.7546771E-02  0.1276968E+00
         -1   -1    0    0    0  501 -0.00000000000E+00  0.00000000000E+00  0.20148469301E+02  0.20148469301E+02  0.00000000000E+00 0.  1.
          1   -1    0    0  502    0  0.00000000000E+00 -0.00000000000E+00 -0.93891972045E+03  0.93891972045E+03  0.00000000000E+00 0. -1.
         23    2    1    2    0    0  0.18356826635E+02 -0.17559152687E+02 -0.26296405201E+03  0.27953990085E+03  0.91362829384E+02 0.  0.
         23    2    1    2    0    0 -0.59929240521E+02  0.36646217946E+02 -0.29108207852E+03  0.31194565156E+03  0.87446291719E+02 0.  0.
        -13    1    3    3    0    0 -0.26140267612E+02 -0.21985280681E+02 -0.42191838778E+02  0.54284596498E+02  0.00000000000E+00 0.  1.
         13    1    3    3    0    0  0.44497094247E+02  0.44261279936E+01 -0.22077221323E+03  0.22525530436E+03  0.00000000000E+00 0. -1.
        -13    1    4    4    0    0  0.10649170208E+02  0.26031599954E+02 -0.16220447993E+03  0.16462485332E+03  0.00000000000E+00 0.  1.
         13    1    4    4    0    0 -0.70578410729E+02  0.10614617993E+02 -0.12887759859E+03  0.14732079824E+03  0.00000000000E+00 0. -1.
         21    1    1    2  502  501  0.41572413886E+02 -0.19087065259E+02 -0.36472512062E+03  0.36758263733E+03  0.00000000000E+00 0.  1.
<scales pt_clust_5="13000.00000" pt_clust_6="13000.00000" pt_clust_7="13000.00000" pt_clust_8="13000.00000" pt_clust_9="45.74474"></scales>
<clustering>
<clus scale="   45.745">  2  9  1 -1</clus>
<clus scale="   87.446">  7  8 -1 -1</clus>
<clus scale="   91.363">  5  6 -1 -1</clus>
<clus scale="   99.004">  2  7  1 -1</clus>
<clus scale="   45.745">  2  5  1 -1</clus>
</clustering>
</event>
<event>
 9    1  0.1803370E-005  0.1509157E+03  0.7546771E-02  0.1199485E+00
          1   -1    0    0  502    0  0.00000000000E+00  0.00000000000E+00  0.30727360096E+03  0.30727360096E+03  0.00000000000E+00 0. -1.
         -1   -1    0    0    0  501 -0.00000000000E+00 -0.00000000000E+00 -0.12082184738E+03  0.12082184738E+03  0.00000000000E+00 0.  1.
         23    2    1    2    0    0 -0.25313369464E+02 -0.11041970057E+03  0.43760798013E+02  0.15075021949E+03  0.89315980004E+02 0.  0.
         23    2    1    2    0    0  0.91871718275E+02  0.10593469804E+03  0.76485451210E+02  0.18335960308E+03  0.90045249336E+02 0.  0.
        -11    1    3    3    0    0 -0.46706737079E+02 -0.10828348306E+03  0.21628062907E+02  0.11989414121E+03  0.00000000000E+00 0.  1.
         11    1    3    3    0    0  0.21393367615E+02 -0.21362175150E+01  0.22132735106E+02  0.30856078274E+02  0.00000000000E+00 0. -1.
        -11    1    4    4    0    0  0.18841392199E+02  0.89911560561E+02  0.43329008295E+02  0.10157012229E+03  0.00000000000E+00 0.  1.
         11    1    4    4    0    0  0.73030326076E+02  0.16023137483E+02  0.33156442915E+02  0.81789480793E+02  0.00000000000E+00 0. -1.
         21    1    1    2  502  501 -0.66558348811E+02  0.44850025294E+01  0.66205504361E+02  0.93985625773E+02  0.00000000000E+00 0. -1.
<scales pt_clust_5="13000.00000" pt_clust_6="13000.00000" pt_clust_7="13000.00000" pt_clust_8="13000.00000" pt_clust_9="66.70929"></scales>
<clustering>
<clus scale="   66.709">  1  9  2 -1</clus>
<clus scale="   89.316">  5  6 -1 -1</clus>
<clus scale="   90.045">  7  8 -1 -1</clus>
<clus scale="  150.482">  2  5  1 -1</clus>
<clus scale="   66.709">  1  5  2 -1</clus>
</clustering>
</event>
<event>
 9    1  0.1803370E-005  0.1215167E+03  0.7546771E-02  0.1240670E+00
          1   -1    0    0  502    0  0.00000000000E+00  0.00000000000E+00  0.44850010806E+03  0.44850010806E+03  0.00000000000E+00 0. -1.
         -1   -1    0    0    0  501 -0.00000000000E+00 -0.00000000000E+00 -0.10540564430E+03  0.10540564430E+03  0.00000000000E+00 0.  1.
         23    2    1    2    0    0 -0.33270659705E+02  0.28596062071E+02  0.97774480438E+02  0.14072616401E+03  0.91210375767E+02 0.  0.
         23    2    1    2    0    0  0.12574627086E+02 -0.12181085078E+03  0.27387850434E+03  0.31351559423E+03  0.91030698526E+02 0.  0.
        -11    1    4    4    0    0  0.26607058550E+02 -0.17366800214E+01  0.86563397068E+02  0.90576891833E+02  0.00000000000E+00 0.  1.
         11    1    4    4    0    0 -0.14032431464E+02 -0.12007417075E+03  0.18731510728E+03  0.22293870240E+03  0.00000000000E+00 0. -1.
        -13    1    3    3    0    0 -0.17708797023E+02  0.53960192686E+02  0.24900724327E+02  0.62010885808E+02  0.00000000000E+00 0.  1.
         13    1    3    3    0    0 -0.15561862682E+02 -0.25364130615E+02  0.72873756111E+02  0.78715278197E+02  0.00000000000E+00 0. -1.
         21    1    1    2  502  501  0.20696032619E+02  0.93214788704E+02 -0.28558521021E+02  0.99663994112E+02  0.00000000000E+00 0.  1.
<scales pt_clust_5="13000.00000" pt_clust_6="13000.00000" pt_clust_7="13000.00000" pt_clust_8="13000.00000" pt_clust_9="95.48467"></scales>
<clustering>
<clus scale="   91.031">  5  6 -1 -1</clus>
<clus scale="   91.210">  7  8 -1 -1</clus>
<clus scale="   95.485">  2  9  1 -1</clus>
<clus scale="  121.382">  1  5  2 -1</clus>
<clus scale="  121.382">  1  5  2 -1</clus>
</clustering>
</event>
<event>
 9    1  0.1803370E-005  0.1170112E+03  0.7546771E-02  0.1248764E+00
          1   -1    0    0  502    0  0.00000000000E+00  0.00000000000E+00  0.14620919292E+03  0.14620919292E+03  0.00000000000E+00 0. -1.
         -1   -1    0    0    0  501 -0.00000000000E+00 -0.00000000000E+00 -0.22702930643E+03  0.22702930643E+03  0.00000000000E+00 0.  1.
         23    2    1    2    0    0  0.41737869646E+02 -0.51718000087E+02 -0.14428170703E+03  0.18372970434E+03  0.92317885487E+02 0.  0.
         23    2    1    2    0    0 -0.61784418428E+02  0.50566183285E+02  0.57561311754E+00  0.12349487731E+03  0.94214649277E+02 0.  0.
        -11    1    4    4    0    0 -0.62361585900E+02  0.27670321603E+01 -0.27329467323E+02  0.68143405015E+02  0.00000000000E+00 0.  1.
         11    1    4    4    0    0  0.57716747220E+00  0.47799151125E+02  0.27905080441E+02  0.55351472293E+02  0.00000000000E+00 0. -1.
        -13    1    3    3    0    0  0.47331006313E+02  0.87614558807E+01 -0.38039468082E+02  0.61351352060E+02  0.00000000000E+00 0. -1.
         13    1    3    3    0    0 -0.55931366664E+01 -0.60479455968E+02 -0.10624223894E+03  0.12237835228E+03  0.00000000000E+00 0.  1.
         21    1    1    2  502  501  0.20046548781E+02  0.11518168017E+01  0.62885980397E+02  0.66013917703E+02  0.00000000000E+00 0. -1.
<scales pt_clust_5="13000.00000" pt_clust_6="13000.00000" pt_clust_7="13000.00000" pt_clust_8="13000.00000" pt_clust_9="20.07961"></scales>
<clustering>
<clus scale="   20.080">  1  9  2 -1</clus>
<clus scale="   92.318">  7  8 -1 -1</clus>
<clus scale="   94.215">  5  6 -1 -1</clus>
<clus scale="  115.489">  2  7  1 -1</clus>
<clus scale="   20.080">  1  5  2 -1</clus>
</clustering>
</event>
<event>
 9    1  0.1803370E-005  0.9227351E+02  0.7546771E-02  0.1298699E+00
          1   -1    0    0  502    0  0.00000000000E+00  0.00000000000E+00  0.11908279628E+03  0.11908279628E+03  0.00000000000E+00 0. -1.
         -1   -1    0    0    0  501 -0.00000000000E+00 -0.00000000000E+00 -0.16637868515E+03  0.16637868515E+03  0.00000000000E+00 0.  1.
         23    2    1    2    0    0 -0.11151898707E+02 -0.31744999820E+01 -0.10186938526E+03  0.13642341292E+03  0.89997409108E+02 0.  0.
         23    2    1    2    0    0 -0.12608165163E+02 -0.29060227719E+01  0.43354815403E+01  0.93133046130E+02  0.92127938673E+02 0.  0.
        -11    1    4    4    0    0 -0.15328563939E+02 -0.38245351766E+02  0.28620339784E+02  0.50167675385E+02  0.00000000000E+00 0.  1.
         11    1    4    4    0    0  0.27203987758E+01  0.35339328995E+02 -0.24284858244E+02  0.42965370745E+02  0.00000000000E+00 0. -1.
        -11    1    3    3    0    0 -0.42222324038E+02 -0.10365355349E+02 -0.94011927034E+02  0.10357802693E+03  0.00000000000E+00 0.  1.
         11    1    3    3    0    0  0.31070425330E+02  0.71908553671E+01 -0.78574582215E+01  0.32845385990E+02  0.00000000000E+00 0. -1.
         21    1    1    2  502  501  0.23760063871E+02  0.60805227539E+01  0.50238014843E+02  0.55905022382E+02  0.00000000000E+00 0. -1.
<scales pt_clust_5="13000.00000" pt_clust_6="13000.00000" pt_clust_7="13000.00000" pt_clust_8="13000.00000" pt_clust_9="24.52577"></scales>
<clustering>
<clus scale="   24.526">  1  9  2 -1</clus>
<clus scale="   89.997">  7  8 -1 -1</clus>
<clus scale="   90.146">  2  7  1 -1</clus>
<clus scale="   92.128">  5  6 -1 -1</clus>
<clus scale="   24.526">  1  5  2 -1</clus>
</clustering>
</event>
<event>
 9    1  0.1803370E-005  0.1274510E+03  0.7546771E-02  0.1246742E+00
          1   -1    0    0  502    0  0.00000000000E+00  0.00000000000E+00  0.54476963955E+03  0.54476963955E+03  0.00000000000E+00 0. -1.
         -1   -1    0    0    0  501 -0.00000000000E+00 -0.00000000000E+00 -0.62093372559E+02  0.62093372559E+02  0.00000000000E+00 0.  1.
         23    2    1    2    0    0 -0.19861812340E+02 -0.23531511616E+02  0.38800157695E+02  0.13468121365E+03  0.12524118111E+03 0.  0.
         23    2    1    2    0    0  0.27880016513E+02 -0.31074217851E+02  0.21575601776E+03  0.23748017202E+03  0.90018167993E+02 0.  0.
        -11    1    4    4    0    0  0.11141179837E+02 -0.62470615328E+02  0.13104464652E+03  0.14560014783E+03  0.00000000000E+00 0. -1.
         11    1    4    4    0    0  0.16738836676E+02  0.31396397477E+02  0.84711371242E+02  0.91880024192E+02  0.00000000000E+00 0.  1.
        -13    1    3    3    0    0 -0.66919282957E+02  0.71286548651E+01  0.40401511532E+02  0.78493886932E+02  0.00000000000E+00 0.  1.
         13    1    3    3    0    0  0.47057470617E+02 -0.30660166481E+02 -0.16013538367E+01  0.56187326717E+02  0.00000000000E+00 0. -1.
         21    1    1    2  502  501 -0.80182041728E+01  0.54605729467E+02  0.22812009153E+03  0.23470162643E+03  0.00000000000E+00 0.  1.
<scales pt_clust_5="13000.00000" pt_clust_6="13000.00000" pt_clust_7="13000.00000" pt_clust_8="13000.00000" pt_clust_9="55.19128"></scales>
<clustering>
<clus scale="   55.191">  1  9  2 -1</clus>
<clus scale="   90.018">  5  6 -1 -1</clus>
<clus scale="   93.068">  1  5  2 -1</clus>
<clus scale="  125.241">  7  8 -1 -1</clus>
<clus scale="   55.191">  1  5  2 -1</clus>
</clustering>
</event>
<event>
 9    1  0.1803370E-005  0.1056373E+03  0.7546771E-02  0.1270941E+00
         -2   -1    0    0    0  501 -0.00000000000E+00  0.00000000000E+00  0.29899920193E+02  0.29899920193E+02  0.00000000000E+00 0.  1.
          2   -1    0    0  502    0  0.00000000000E+00 -0.00000000000E+00 -0.60269256188E+03  0.60269256188E+03  0.00000000000E+00 0. -1.
         23    2    1    2    0    0  0.36844591534E+02 -0.13090407026E+02 -0.14153813606E+03  0.17326618431E+03  0.91974148447E+02 0.  0.
         23    2    1    2    0    0 -0.65364142222E+02  0.39901446418E+02 -0.28005115939E+03  0.30313843487E+03  0.87176042027E+02 0.  0.
        -11    1    4    4    0    0 -0.80492340448E+02  0.88968751933E+01 -0.20941330300E+03  0.22452639652E+03  0.00000000000E+00 0.  1.
         11    1    4    4    0    0  0.15128198226E+02  0.31004571225E+02 -0.70637856392E+02  0.78612038353E+02  0.00000000000E+00 0. -1.
        -13    1    3    3    0    0  0.62618740026E+02  0.79625803740E+01 -0.11295792391E+03  0.12939861615E+03  0.00000000000E+00 0. -1.
         13    1    3    3    0    0 -0.25774148492E+02 -0.21052987400E+02 -0.28580212157E+02  0.43867568156E+02  0.00000000000E+00 0.  1.
         21    1    1    2  502  501  0.28519550688E+02 -0.26811039392E+02 -0.15120334623E+03  0.15618786290E+03  0.00000000000E+00 0.  1.
<scales pt_clust_5="13000.00000" pt_clust_6="13000.00000" pt_clust_7="13000.00000" pt_clust_8="13000.00000" pt_clust_9="39.14328"></scales>
<clustering>
<clus scale="   39.143">  2  9  1 -1</clus>
<clus scale="   87.176">  5  6 -1 -1</clus>
<clus scale="   91.974">  7  8 -1 -1</clus>
<clus scale="  101.487">  2  5  1 -1</clus>
<clus scale="   39.143">  2  5  1 -1</clus>
</clustering>
</event>
<event>
 9    1  0.1803370E-005  0.1467368E+03  0.7546771E-02  0.1222277E+00
         -1   -1    0    0    0  501 -0.00000000000E+00  0.00000000000E+00  0.30231066443E+03  0.30231066443E+03  0.00000000000E+00 0.  1.
          1   -1    0    0  502    0  0.00000000000E+00 -0.00000000000E+00 -0.85112196683E+03  0.85112196683E+03  0.00000000000E+00 0. -1.
         23    2    1    2    0    0 -0.39652743391E+02 -0.14849281416E+02  0.27165814878E+03  0.28971932207E+03  0.91358056937E+02 0.  0.
         23    2    1    2    0    0  0.14090369014E+03  0.11231403453E+02 -0.48785575925E+03  0.51601126531E+03  0.91018623257E+02 0.  0.
        -11    1    4    4    0    0  0.41568555887E+02 -0.37581562374E+02 -0.19674317180E+03  0.20456831210E+03  0.00000000000E+00 0.  1.
         11    1    4    4    0    0  0.99335134254E+02  0.48812965827E+02 -0.29111258745E+03  0.31144295321E+03  0.00000000000E+00 0. -1.
        -13    1    3    3    0    0  0.22145476105E+02 -0.13328374888E+02  0.27019902549E+02  0.37391748058E+02  0.00000000000E+00 0. -1.
         13    1    3    3    0    0 -0.61798219496E+02 -0.15209065278E+01  0.24463824623E+03  0.25232757402E+03  0.00000000000E+00 0.  1.
         21    1    1    2  502  501 -0.10125094675E+03  0.36178779635E+01 -0.33261369193E+03  0.34770204388E+03  0.00000000000E+00 0.  1.
<scales pt_clust_5="13000.00000" pt_clust_6="13000.00000" pt_clust_7="13000.00000" pt_clust_8="13000.00000" pt_clust_9="115.09693"></scales>
<clustering>
<clus scale="   91.019">  5  6 -1 -1</clus>
<clus scale="   91.358">  7  8 -1 -1</clus>
<clus scale="  100.693">  1  7  2 -1</clus>
<clus scale="  115.097">  2  9  1 -1</clus>
<clus scale="  115.097">  2  5  1 -1</clus>
</clustering>
</event>
<event>
 9    1  0.1803370E-005  0.1113398E+03  0.7546771E-02  0.1258272E+00
         -1   -1    0    0    0  501 -0.00000000000E+00  0.00000000000E+00  0.27657811437E+02  0.27657811437E+02  0.00000000000E+00 0.  1.
          1   -1    0    0  502    0  0.00000000000E+00 -0.00000000000E+00 -0.76000518095E+03  0.76000518095E+03  0.00000000000E+00 0. -1.
         23    2    1    2    0    0  0.36077005508E+02  0.87478471436E+02 -0.33282444822E+03  0.35819205464E+03  0.92603463141E+02 0.  0.
         23    2    1    2    0    0 -0.69653853385E+01 -0.38505980635E+02 -0.27004206609E+03  0.28801040209E+03  0.92174004548E+02 0.  0.
        -11    1    4    4    0    0 -0.45274648034E+02 -0.80829839829E-01 -0.13868314743E+03  0.14588631076E+03  0.00000000000E+00 0. -1.
         11    1    4    4    0    0  0.38309262696E+02 -0.38425150796E+02 -0.13135891867E+03  0.14212409133E+03  0.00000000000E+00 0.  1.
        -13    1    3    3    0    0 -0.17349971799E+02  0.73751474972E+02 -0.21832507702E+03  0.23109768678E+03  0.00000000000E+00 0. -1.
         13    1    3    3    0    0  0.53426977307E+02  0.13726996464E+02 -0.11449937120E+03  0.12709436786E+03  0.00000000000E+00 0.  1.
         21    1    1    2  502  501 -0.29111620170E+02 -0.48972490800E+02 -0.12948085520E+03  0.14146053566E+03  0.00000000000E+00 0. -1.
<scales pt_clust_5="13000.00000" pt_clust_6="13000.00000" pt_clust_7="13000.00000" pt_clust_8="13000.00000" pt_clust_9="56.97185"></scales>
<clustering>
<clus scale="   56.972">  1  9  2 -1</clus>
<clus scale="   92.174">  5  6 -1 -1</clus>
<clus scale="   92.603">  7  8 -1 -1</clus>
<clus scale="  110.983">  2  5  1 -1</clus>
<clus scale="  110.983">  2  5  1 -1</clus>
</clustering>
</event>
<event>
 9    1  0.1803370E-005  0.1207551E+03  0.7546771E-02  0.1242301E+00
         -1   -1    0    0    0  501 -0.00000000000E+00  0.00000000000E+00  0.13905709550E+03  0.13905709550E+03  0.00000000000E+00 0.  1.
          1   -1    0    0  502    0  0.00000000000E+00 -0.00000000000E+00 -0.13537685536E+03  0.13537685536E+03  0.00000000000E+00 0. -1.
         23    2    1    2    0    0 -0.69086768210E+02 -0.12469757423E+02  0.34876069359E+02  0.12088734820E+03  0.92026813207E+02 0.  0.
         23    2    1    2    0    0  0.75760997189E+02  0.36122285224E+02 -0.35697546592E+02  0.12856154987E+03  0.90604685793E+02 0.  0.
        -11    1    3    3    0    0 -0.64991017590E+02  0.81566178740E+01  0.59510548198E+02  0.88497842512E+02  0.00000000000E+00 0.  1.
         11    1    3    3    0    0 -0.40957506198E+01 -0.20626375297E+02 -0.24634478839E+02  0.32389505688E+02  0.00000000000E+00 0. -1.
        -13    1    4    4    0    0  0.81401328194E+02  0.58047683872E+02 -0.34945290023E+02  0.10590978769E+03  0.00000000000E+00 0. -1.
         13    1    4    4    0    0 -0.56403310059E+01 -0.21925398648E+02 -0.75225656851E+00  0.22651762176E+02  0.00000000000E+00 0.  1.
         21    1    1    2  502  501 -0.66742289790E+01 -0.23652527801E+02  0.45017173678E+01  0.24985052793E+02  0.00000000000E+00 0. -1.
<scales pt_clust_5="13000.00000" pt_clust_6="13000.00000" pt_clust_7="13000.00000" pt_clust_8="13000.00000" pt_clust_9="24.57616"></scales>
<clustering>
<clus scale="   24.576">  1  9  2 -1</clus>
<clus scale="   90.605">  7  8 -1 -1</clus>
<clus scale="   92.027">  5  6 -1 -1</clus>
<clus scale="  119.675">  2  7  1 -1</clus>
<clus scale="  119.675">  2  5  1 -1</clus>
</clustering>
</event>
<event>
 9    1  0.1803370E-005  0.1098116E+03  0.7546771E-02  0.1264801E+00
          2   -1    0    0  502    0  0.00000000000E+00  0.00000000000E+00  0.39886790594E+03  0.39886790594E+03  0.00000000000E+00 0. -1.
         -2   -1    0    0    0  501 -0.00000000000E+00 -0.00000000000E+00 -0.11910478357E+03  0.11910478357E+03  0.00000000000E+00 0.  1.
         23    2    1    2    0    0 -0.38360961078E+02  0.29820191325E+02 -0.66812676615E+02  0.11988734036E+03  0.86880570196E+02 0.  0.
         23    2    1    2    0    0 -0.10068568081E+02 -0.55048542229E+02  0.31705370488E+03  0.33600924243E+03  0.96163616593E+02 0.  0.
        -11    1    4    4    0    0 -0.46454083497E+02 -0.57569984633E+02  0.23066753520E+03  0.24223913144E+03  0.00000000000E+00 0.  1.
         11    1    4    4    0    0  0.36385515415E+02  0.25214424043E+01  0.86386169684E+02  0.93770110998E+02  0.00000000000E+00 0. -1.
        -13    1    3    3    0    0  0.17462073586E+01 -0.23842956060E+02  0.18214759077E+01  0.23976104110E+02  0.00000000000E+00 0. -1.
         13    1    3    3    0    0 -0.40107168436E+02  0.53663147385E+02 -0.68634152523E+02  0.95911236254E+02  0.00000000000E+00 0.  1.
         21    1    1    2  502  501  0.48429529159E+02  0.25228350903E+02  0.29522094105E+02  0.62076106709E+02  0.00000000000E+00 0. -1.
<scales pt_clust_5="13000.00000" pt_clust_6="13000.00000" pt_clust_7="13000.00000" pt_clust_8="13000.00000" pt_clust_9="54.60668"></scales>
<clustering>
<clus scale="   54.607">  2  9  1 -1</clus>
<clus scale="   86.881">  7  8 -1 -1</clus>
<clus scale="   96.164">  5  6 -1 -1</clus>
<clus scale="  101.781">  2  7  1 -1</clus>
<clus scale="  109.812">  1  5  2 -1</clus>
</clustering>
</event>
<event>
 9    1  0.1803370E-005  0.9441823E+02  0.7546771E-02  0.1293623E+00
          1   -1    0    0  502    0  0.00000000000E+00  0.00000000000E+00  0.84064395747E+02  0.84064395747E+02  0.00000000000E+00 0. -1.
         -1   -1    0    0    0  501 -0.00000000000E+00 -0.00000000000E+00 -0.20599192789E+03  0.20599192789E+03  0.00000000000E+00 0.  1.
         23    2    1    2    0    0 -0.10278855568E+02  0.22589907952E+02 -0.93344587412E+02  0.13432068994E+03  0.93342792624E+02 0.  0.
         23    2    1    2    0    0  0.12435793779E+02  0.82355387846E+01 -0.61076657295E+02  0.11089478284E+03  0.91349995778E+02 0.  0.
        -11    1    3    3    0    0  0.34262376201E+02 -0.13447917555E+02 -0.22236554846E+02  0.43002572957E+02  0.00000000000E+00 0. -1.
         11    1    3    3    0    0 -0.44541231769E+02  0.36037825506E+02 -0.71108032566E+02  0.91318116987E+02  0.00000000000E+00 0.  1.
        -13    1    4    4    0    0 -0.18217849646E+02 -0.15975450999E+02  0.12743416708E+02  0.27376993073E+02  0.00000000000E+00 0. -1.
         13    1    4    4    0    0  0.30653643425E+02  0.24210989783E+02 -0.73820074003E+02  0.83517789766E+02  0.00000000000E+00 0.  1.
         21    1    1    2  502  501 -0.21569382108E+01 -0.30825446736E+02  0.32493712565E+02  0.44840850853E+02  0.00000000000E+00 0. -1.
<scales pt_clust_5="13000.00000" pt_clust_6="13000.00000" pt_clust_7="13000.00000" pt_clust_8="13000.00000" pt_clust_9="30.90082"></scales>
<clustering>
<clus scale="   30.901">  1  9  2 -1</clus>
<clus scale="   91.350">  7  8 -1 -1</clus>
<clus scale="   92.449">  1  7  2 -1</clus>
<clus scale="   93.343">  5  6 -1 -1</clus>
<clus scale="   30.901">  1  5  2 -1</clus>
</clustering>
</event>
<event>
 9    1  0.1803370E-005  0.1556553E+03  0.7546771E-02  0.1193733E+00
         -1   -1    0    0    0  501 -0.00000000000E+00  0.00000000000E+00  0.29337076886E+03  0.29337076886E+03  0.00000000000E+00 0.  1.
          1   -1    0    0  502    0  0.00000000000E+00 -0.00000000000E+00 -0.28409831490E+03  0.28409831490E+03  0.00000000000E+00 0. -1.
         23    2    1    2    0    0 -0.66242767630E+02  0.10941284224E+03  0.23830422017E+03  0.28602508873E+03  0.93070810287E+02 0.  0.
         23    2    1    2    0    0  0.59099497868E+02 -0.84891286886E+02 -0.13407895534E+03  0.19311612882E+03  0.92829907397E+02 0.  0.
        -13    1    3    3    0    0 -0.33157214591E+02  0.39650874292E+02  0.21675884466E+02  0.56048520756E+02  0.00000000000E+00 0. -1.
         13    1    3    3    0    0 -0.33085553040E+02  0.69761967944E+02  0.21662833570E+03  0.22997656798E+03  0.00000000000E+00 0.  1.
        -13    1    4    4    0    0 -0.13325880336E+02 -0.29629888667E+02 -0.18477954932E+01  0.32541108422E+02  0.00000000000E+00 0.  1.
         13    1    4    4    0    0  0.72425378204E+02 -0.55261398218E+02 -0.13223115984E+03  0.16057502039E+03  0.00000000000E+00 0. -1.
         21    1    1    2  502  501  0.71432697620E+01 -0.24521555351E+02 -0.94952810873E+02  0.98327866205E+02  0.00000000000E+00 0. -1.
<scales pt_clust_5="13000.00000" pt_clust_6="13000.00000" pt_clust_7="13000.00000" pt_clust_8="13000.00000" pt_clust_9="25.54081"></scales>
<clustering>
<clus scale="   25.541">  2  9  1 -1</clus>
<clus scale="   92.830">  7  8 -1 -1</clus>
<clus scale="   93.071">  5  6 -1 -1</clus>
<clus scale="  155.511">  2  7  1 -1</clus>
<clus scale="   25.541">  2  5  1 -1</clus>
</clustering>
</event>
<event>
 9    1  0.1803370E-005  0.2540611E+03  0.7546771E-02  0.1110773E+00
         -1   -1    0    0    0  501 -0.00000000000E+00  0.00000000000E+00  0.54971228874E+03  0.54971228874E+03  0.00000000000E+00 0.  1.
          1   -1    0    0  502    0  0.00000000000E+00 -0.00000000000E+00 -0.19402186689E+03  0.19402186689E+03  0.00000000000E+00 0. -1.
         23    2    1    2    0    0 -0.22790314381E+03  0.12907852571E+02  0.32823320506E+03  0.41015368212E+03  0.91556269237E+02 0.  0.
         23    2    1    2    0    0  0.26026416509E+03 -0.51658092517E+02  0.33896518336E+02  0.28268566632E+03  0.91412350564E+02 0.  0.
        -11    1    4    4    0    0  0.14465938927E+03 -0.23841322896E+02 -0.27028406836E+02  0.14908146215E+03  0.00000000000E+00 0. -1.
         11    1    4    4    0    0  0.11560477582E+03 -0.27816769621E+02  0.60924925172E+02  0.13360420417E+03  0.00000000000E+00 0.  1.
        -13    1    3    3    0    0 -0.10333201303E+03 -0.38914943654E+02  0.13347020138E+03  0.17322289806E+03  0.00000000000E+00 0.  1.
         13    1    3    3    0    0 -0.12457113078E+03  0.51822796225E+02  0.19476300369E+03  0.23693078407E+03  0.00000000000E+00 0. -1.
         21    1    1    2  502  501 -0.32361021279E+02  0.38750239946E+02 -0.64393015456E+01  0.50894807186E+02  0.00000000000E+00 0. -1.
<scales pt_clust_5="13000.00000" pt_clust_6="13000.00000" pt_clust_7="13000.00000" pt_clust_8="13000.00000" pt_clust_9="50.48581"></scales>
<clustering>
<clus scale="   50.486">  2  9  1 -1</clus>
<clus scale="   91.412">  5  6 -1 -1</clus>
<clus scale="   91.556">  7  8 -1 -1</clus>
<clus scale="  254.009">  2  5  1 -1</clus>
<clus scale="   50.486">  2  5  1 -1</clus>
</clustering>
</event>
<event>
 9    1  0.1803370E-005  0.1365821E+03  0.7546771E-02  0.1218776E+00
         -1   -1    0    0    0  501 -0.00000000000E+00  0.00000000000E+00  0.78106887986E+02  0.78106887986E+02  0.00000000000E+00 0.  1.
          1   -1    0    0  502    0  0.00000000000E+00 -0.00000000000E+00 -0.42320714094E+03  0.42320714094E+03  0.00000000000E+00 0. -1.
         23    2    1    2    0    0  0.79682370473E+02  0.68352085103E+02 -0.17921599849E+02  0.14102683685E+03  0.92445104084E+02 0.  0.
         23    2    1    2    0    0 -0.53061929109E+02 -0.68182476889E+02 -0.26438221035E+03  0.29208110812E+03  0.89157176362E+02 0.  0.
        -11    1    4    4    0    0 -0.78352346451E+02 -0.50278762889E+02 -0.19411660814E+03  0.21528655729E+03  0.00000000000E+00 0. -1.
         11    1    4    4    0    0  0.25290417341E+02 -0.17903714000E+02 -0.70265602208E+02  0.76794550836E+02  0.00000000000E+00 0.  1.
        -11    1    3    3    0    0  0.74188887152E+02  0.89205757925E+02 -0.55323259372E+01  0.11615620885E+03  0.00000000000E+00 0.  1.
         11    1    3    3    0    0  0.54934833209E+01 -0.20853672822E+02 -0.12389273911E+02  0.24870628002E+02  0.00000000000E+00 0. -1.
         21    1    1    2  502  501 -0.26620441363E+02 -0.16960821396E+00 -0.62796442752E+02  0.68206083949E+02  0.00000000000E+00 0. -1.
<scales pt_clust_5="13000.00000" pt_clust_6="13000.00000" pt_clust_7="13000.00000" pt_clust_8="13000.00000" pt_clust_9="26.62098"></scales>
<clustering>
<clus scale="   26.621">  2  9  1 -1</clus>
<clus scale="   89.157">  5  6 -1 -1</clus>
<clus scale="   92.445">  7  8 -1 -1</clus>
<clus scale="  134.378">  2  5  1 -1</clus>
<clus scale="   26.621">  2  5  1 -1</clus>
</clustering>
</event>
<event>
 9    1  0.1803370E-005  0.2091093E+03  0.7546771E-02  0.1142691E+00
          1   -1    0    0  502    0  0.00000000000E+00  0.00000000000E+00  0.27973483524E+03  0.27973483524E+03  0.00000000000E+00 0. -1.
         -1   -1    0    0    0  501 -0.00000000000E+00 -0.00000000000E+00 -0.43041142385E+03  0.43041142385E+03  0.00000000000E+00 0.  1.
         23    2    1    2    0    0  0.49104180863E+02 -0.18461323528E+03 -0.34978589486E+03  0.40846842121E+03  0.89459553267E+02 0.  0.
         23    2    1    2    0    0 -0.29723531175E+02  0.17054469143E+03  0.20004712446E+03  0.27771092294E+03  0.84472034630E+02 0.  0.
        -13    1    3    3    0    0  0.11748895764E+02 -0.15520679908E+03 -0.30833272816E+03  0.34539290422E+03  0.00000000000E+00 0.  1.
         13    1    3    3    0    0  0.37355285099E+02 -0.29406436197E+02 -0.41453166697E+02  0.63075516992E+02  0.00000000000E+00 0. -1.
        -13    1    4    4    0    0 -0.34770105921E+02  0.10386980996E+03  0.65921109862E+02  0.12784166149E+03  0.00000000000E+00 0.  1.
         13    1    4    4    0    0  0.50465747463E+01  0.66674881475E+02  0.13412601460E+03  0.14986926145E+03  0.00000000000E+00 0. -1.
         21    1    1    2  502  501 -0.19380649688E+02  0.14068543846E+02 -0.93781822327E+00  0.23966914931E+02  0.00000000000E+00 0. -1.
<scales pt_clust_5="13000.00000" pt_clust_6="13000.00000" pt_clust_7="13000.00000" pt_clust_8="13000.00000" pt_clust_9="23.94856"></scales>
<clustering>
<clus scale="   23.949">  1  9  2 -1</clus>
<clus scale="   84.472">  7  8 -1 -1</clus>
<clus scale="   89.460">  5  6 -1 -1</clus>
<clus scale="  207.025">  1  7  2 -1</clus>
<clus scale="   23.949">  1  5  2 -1</clus>
</clustering>
</event>
<event>
 9    1  0.1803370E-005  0.1512690E+03  0.7546771E-02  0.1199253E+00
          1   -1    0    0  502    0  0.00000000000E+00  0.00000000000E+00  0.82395740586E+03  0.82395740586E+03  0.00000000000E+00 0. -1.
         -1   -1    0    0    0  501 -0.00000000000E+00 -0.00000000000E+00 -0.35982305761E+02  0.35982305761E+02  0.00000000000E+00 0.  1.
         23    2    1    2    0    0  0.14267232144E+02 -0.12875916323E+03  0.24079589235E+03  0.28799359867E+03  0.90416674748E+02 0.  0.
         23    2    1    2    0    0 -0.19065295022E+02  0.10101981733E+03  0.46544869756E+03  0.48550324735E+03  0.92208590479E+02 0.  0.
        -11    1    3    3    0    0  0.26709286899E+01 -0.35077866386E+02  0.15975281530E+03  0.16358041621E+03  0.00000000000E+00 0. -1.
         11    1    3    3    0    0  0.11596303454E+02 -0.93681296843E+02  0.81043077046E+02  0.12441318246E+03  0.00000000000E+00 0.  1.
        -11    1    4    4    0    0 -0.56392155110E+02  0.58927782458E+02  0.26021309718E+03  0.27269656149E+03  0.00000000000E+00 0. -1.
         11    1    4    4    0    0  0.37326860088E+02  0.42092034877E+02  0.20523560038E+03  0.21280668586E+03  0.00000000000E+00 0.  1.
         21    1    1    2  502  501  0.47980628782E+01  0.27739345895E+02  0.81730510197E+02  0.86442865611E+02  0.00000000000E+00 0.  1.
<scales pt_clust_5="13000.00000" pt_clust_6="13000.00000" pt_clust_7="13000.00000" pt_clust_8="13000.00000" pt_clust_9="28.15125"></scales>
<clustering>
<clus scale="   28.151">  1  9  2 -1</clus>
<clus scale="   90.417">  5  6 -1 -1</clus>
<clus scale="   92.209">  7  8 -1 -1</clus>
<clus scale="  150.183">  2  5  1 -1</clus>
<clus scale="   28.151">  1  5  2 -1</clus>
</clustering>
</event>
<event>
 9    1  0.1803370E-005  0.3192796E+03  0.7546771E-02  0.1094509E+00
          2   -1    0    0  502    0  0.00000000000E+00  0.00000000000E+00  0.15090829662E+04  0.15090829662E+04  0.00000000000E+00 0. -1.
         -2   -1    0    0    0  501 -0.00000000000E+00 -0.00000000000E+00 -0.14552493139E+03  0.14552493139E+03  0.00000000000E+00 0.  1.
         23    2    1    2    0    0 -0.16205950825E+03 -0.29824655744E+03  0.19413637589E+03  0.40149778948E+03  0.91089237983E+02 0.  0.
         23    2    1    2    0    0  0.15948150699E+03  0.64617756764E+02  0.34460792122E+03  0.39584307591E+03  0.91254127683E+02 0.  0.
        -11    1    3    3    0    0 -0.12209902112E+03 -0.27195152400E+03  0.18995209076E+03  0.35347927682E+03  0.00000000000E+00 0. -1.
         11    1    3    3    0    0 -0.39960487133E+02 -0.26295033445E+02  0.41842851317E+01  0.48018512658E+02  0.00000000000E+00 0.  1.
        -13    1    4    4    0    0  0.14717387077E+03  0.40319279750E+02  0.21651279892E+03  0.26488409664E+03  0.00000000000E+00 0.  1.
         13    1    4    4    0    0  0.12307636216E+02  0.24298477014E+02  0.12809512230E+03  0.13095897927E+03  0.00000000000E+00 0. -1.
         21    1    1    2  502  501  0.25780012644E+01  0.23362880068E+03  0.82481373773E+03  0.85726703222E+03  0.00000000000E+00 0.  1.
<scales pt_clust_5="13000.00000" pt_clust_6="13000.00000" pt_clust_7="13000.00000" pt_clust_8="13000.00000" pt_clust_9="306.01018"></scales>
<clustering>
<clus scale="   91.089">  5  6 -1 -1</clus>
<clus scale="   91.254">  7  8 -1 -1</clus>
<clus scale="  194.775">  1  7  2 -1</clus>
<clus scale="  306.010">  1  9  2 -1</clus>
<clus scale="  194.775">  1  5  2 -1</clus>
</clustering>
</event>
<event>
 9    1  0.1803370E-005  0.1336845E+03  0.7546771E-02  0.1222179E+00
          1   -1    0    0  502    0  0.00000000000E+00  0.00000000000E+00  0.15057043110E+03  0.15057043110E+03  0.00000000000E+00 0. -1.
         -1   -1    0    0    0  501 -0.00000000000E+00 -0.00000000000E+00 -0.32280711730E+03  0.32280711730E+03  0.00000000000E+00 0.  1.
         23    2    1    2    0    0 -0.95098774163E+02 -0.19522213726E+02 -0.20445391496E+03  0.24410457629E+03  0.91437121271E+02 0.  0.
         23    2    1    2    0    0  0.10354563112E+03 -0.45437226921E+02 -0.17965564599E+02  0.14675393752E+03  0.91802599913E+02 0.  0.
        -11    1    4    4    0    0  0.70360717133E+02 -0.42247182395E+01  0.28793374979E+02  0.76141560284E+02  0.00000000000E+00 0.  1.
         11    1    4    4    0    0  0.33184913988E+02 -0.41212508681E+02 -0.46758939577E+02  0.70612377234E+02  0.00000000000E+00 0. -1.
        -13    1    3    3    0    0 -0.99363805031E+02  0.12719341191E+02 -0.14332850570E+03  0.17486568542E+03  0.00000000000E+00 0. -1.
         13    1    3    3    0    0  0.42650308677E+01 -0.32241554916E+02 -0.61125409262E+02  0.69238890872E+02  0.00000000000E+00 0.  1.
         21    1    1    2  502  501 -0.84468569584E+01  0.64959440647E+02  0.50182793362E+02  0.82519034599E+02  0.00000000000E+00 0. -1.
<scales pt_clust_5="13000.00000" pt_clust_6="13000.00000" pt_clust_7="13000.00000" pt_clust_8="13000.00000" pt_clust_9="65.50632"></scales>
<clustering>
<clus scale="   65.506">  1  9  2 -1</clus>
<clus scale="   91.437">  7  8 -1 -1</clus>
<clus scale="   91.803">  5  6 -1 -1</clus>
<clus scale="  133.434">  2  7  1 -1</clus>
<clus scale="   65.506">  1  5  2 -1</clus>
</clustering>
</event>
<event>
 9    1  0.1803370E-005  0.9551661E+02  0.7546771E-02  0.1290101E+00
         -3   -1    0    0    0  501 -0.00000000000E+00  0.00000000000E+00  0.43808270529E+02  0.43808270529E+02  0.00000000000E+00 0.  1.
          3   -1    0    0  502    0  0.00000000000E+00 -0.00000000000E+00 -0.48736027668E+03  0.48736027668E+03  0.00000000000E+00 0. -1.
         23    2    1    2    0    0  0.71514201439E+00 -0.10751065728E+02 -0.94443914985E+02  0.13145416092E+03  0.90798934485E+02 0.  0.
         23    2    1    2    0    0  0.60255132204E+02  0.18058087285E+02 -0.12217036698E+03  0.16461547612E+03  0.90641496773E+02 0.  0.
        -13    1    4    4    0    0  0.58458721169E+02  0.50825725779E+02 -0.88033943095E+02  0.11726317247E+03  0.00000000000E+00 0.  1.
         13    1    4    4    0    0  0.17964110344E+01 -0.32767638494E+02 -0.34136423884E+02  0.47352303647E+02  0.00000000000E+00 0. -1.
        -13    1    3    3    0    0 -0.15959636706E+02 -0.35396707012E+02 -0.93989624818E+02  0.10169408264E+03  0.00000000000E+00 0. -1.
         13    1    3    3    0    0  0.16674778720E+02  0.24645641284E+02 -0.45429016718E+00  0.29760078280E+02  0.00000000000E+00 0.  1.
         21    1    1    2  502  501 -0.60970274218E+02 -0.73070215573E+01 -0.22693772418E+03  0.23509891016E+03  0.00000000000E+00 0. -1.
<scales pt_clust_5="13000.00000" pt_clust_6="13000.00000" pt_clust_7="13000.00000" pt_clust_8="13000.00000" pt_clust_9="61.40657"></scales>
<clustering>
<clus scale="   61.407">  2  9  1 -1</clus>
<clus scale="   90.641">  5  6 -1 -1</clus>
<clus scale="   90.799">  7  8 -1 -1</clus>
<clus scale="   95.367">  2  5  1 -1</clus>
<clus scale="   61.407">  2  5  1 -1</clus>
</clustering>
</event>
<event>
 9    1  0.1803370E-005  0.1234085E+03  0.7546771E-02  0.1237578E+00
         -3   -1    0    0    0  501 -0.00000000000E+00  0.00000000000E+00  0.34063299806E+03  0.34063299806E+03  0.00000000000E+00 0.  1.
          3   -1    0    0  502    0  0.00000000000E+00 -0.00000000000E+00 -0.64045132653E+02  0.64045132653E+02  0.00000000000E+00 0. -1.
         23    2    1    2    0    0 -0.80734199041E+02  0.41471995211E+02  0.14934560710E+03  0.19729369138E+03  0.91557375550E+02 0.  0.
         23    2    1    2    0    0  0.51100826211E+02 -0.58459778755E+02  0.12475789910E+03  0.17313690489E+03  0.91558802282E+02 0.  0.
        -11    1    4    4    0    0  0.41095434261E+00 -0.67427146972E+02  0.58771479969E+02  0.89446497360E+02  0.00000000000E+00 0. -1.
         11    1    4    4    0    0  0.50689871869E+02  0.89673682168E+01  0.65986419127E+02  0.83690407527E+02  0.00000000000E+00 0.  1.
        -13    1    3    3    0    0  0.76733516883E+01  0.35176123222E+02  0.68231745603E+02  0.77147981691E+02  0.00000000000E+00 0.  1.
         13    1    3    3    0    0 -0.88407550729E+02  0.62958719889E+01  0.81113861497E+02  0.12014570969E+03  0.00000000000E+00 0. -1.
         21    1    1    2  502  501  0.29633372830E+02  0.16987783543E+02  0.24843592125E+01  0.34247534447E+02  0.00000000000E+00 0.  1.
<scales pt_clust_5="13000.00000" pt_clust_6="13000.00000" pt_clust_7="13000.00000" pt_clust_8="13000.00000" pt_clust_9="34.15731"></scales>
<clustering>
<clus scale="   34.157">  2  9  1 -1</clus>
<clus scale="   91.557">  7  8 -1 -1</clus>
<clus scale="   91.559">  5  6 -1 -1</clus>
<clus scale="  123.407">  1  7  2 -1</clus>
<clus scale="   34.157">  2  5  1 -1</clus>
</clustering>
</event>
<event>
 9    1  0.1803370E-005  0.1651399E+03  0.7546771E-02  0.1209419E+00
          1   -1    0    0  502    0  0.00000000000E+00  0.00000000000E+00  0.40185339050E+03  0.40185339050E+03  0.00000000000E+00 0. -1.
         -1   -1    0    0    0  501 -0.00000000000E+00 -0.00000000000E+00 -0.21372442168E+03  0.21372442168E+03  0.00000000000E+00 0.  1.
         23    2    1    2    0    0 -0.91222714407E+02  0.10563904486E+03 -0.13831034853E+03  0.21685974135E+03  0.91745318606E+02 0.  0.
         23    2    1    2    0    0  0.92166291736E+01 -0.15263319970E+02  0.75077132767E+02  0.11929774677E+03  0.90980554677E+02 0.  0.
        -11    1    3    3    0    0 -0.69444918209E+01  0.67211906764E+02 -0.28856609181E+02  0.73473602545E+02  0.00000000000E+00 0. -1.
         11    1    3    3    0    0 -0.84278222586E+02  0.38427138094E+02 -0.10945373935E+03  0.14338613881E+03  0.00000000000E+00 0.  1.
        -13    1    4    4    0    0 -0.16869786617E+02  0.24572317614E+02 -0.68571781553E+00  0.29813733452E+02  0.00000000000E+00 0.  1.
         13    1    4    4    0    0  0.26086415791E+02 -0.39835637584E+02  0.75762850582E+02  0.89484013315E+02  0.00000000000E+00 0. -1.
         21    1    1    2  502  501  0.82006085234E+02 -0.90375724888E+02  0.25136218458E+03  0.27942032406E+03  0.00000000000E+00 0. -1.
<scales pt_clust_5="13000.00000" pt_clust_6="13000.00000" pt_clust_7="13000.00000" pt_clust_8="13000.00000" pt_clust_9="137.30985"></scales>
<clustering>
<clus scale="   90.981">  7  8 -1 -1</clus>
<clus scale="   91.745">  5  6 -1 -1</clus>
<clus scale="   92.711">  1  7  2 -1</clus>
<clus scale="  137.310">  1  9  2 -1</clus>
<clus scale="   92.711">  1  5  2 -1</clus>
</clustering>
</event>
<event>
 9    1  0.1803370E-005  0.9186104E+02  0.7546771E-02  0.1299524E+00
         -1   -1    0    0    0  501 -0.00000000000E+00  0.00000000000E+00  0.37273022432E+02  0.37273022432E+02  0.00000000000E+00 0.  1.
          1   -1    0    0  502    0  0.00000000000E+00 -0.00000000000E+00 -0.44114402786E+03  0.44114402786E+03  0.00000000000E+00 0. -1.
         23    2    1    2    0    0 -0.19615869474E+01 -0.13403210248E+02 -0.70265756331E+02  0.11408045013E+03  0.88845814315E+02 0.  0.
         23    2    1    2    0    0 -0.22479312625E+02  0.10426314942E+02 -0.13694140416E+03  0.16613748972E+03  0.90745191471E+02 0.  0.
        -11    1    4    4    0    0  0.25873473270E+02 -0.15424616635E+02 -0.86650637132E+02  0.91737060847E+02  0.00000000000E+00 0. -1.
         11    1    4    4    0    0 -0.48352785895E+02  0.25850931577E+02 -0.50290767033E+02  0.74400428869E+02  0.00000000000E+00 0.  1.
        -11    1    3    3    0    0 -0.44976338092E+02 -0.38971129183E+01 -0.42534111981E+02  0.62025874918E+02  0.00000000000E+00 0. -1.
         11    1    3    3    0    0  0.43014751144E+02 -0.95060973295E+01 -0.27731644350E+02  0.52054575215E+02  0.00000000000E+00 0.  1.
         21    1    1    2  502  501  0.24440899572E+02  0.29768953060E+01 -0.19666384493E+03  0.19819911044E+03  0.00000000000E+00 0. -1.
<scales pt_clust_5="13000.00000" pt_clust_6="13000.00000" pt_clust_7="13000.00000" pt_clust_8="13000.00000" pt_clust_9="24.62152"></scales>
<clustering>
<clus scale="   24.622">  2  9  1 -1</clus>
<clus scale="   88.846">  7  8 -1 -1</clus>
<clus scale="   89.985">  1  7  2 -1</clus>
<clus scale="   90.745">  5  6 -1 -1</clus>
<clus scale="   24.622">  2  5  1 -1</clus>
</clustering>
</event>
<event>
 9    1  0.1803370E-005  0.1148435E+03  0.7546771E-02  0.1254465E+00
          2   -1    0    0  502    0  0.00000000000E+00  0.00000000000E+00  0.21032282217E+03  0.21032282217E+03  0.00000000000E+00 0. -1.
         -2   -1    0    0    0  501 -0.00000000000E+00 -0.00000000000E+00 -0.10788289675E+03  0.10788289675E+03  0.00000000000E+00 0.  1.
         23    2    1    2    0    0 -0.64218973684E+02 -0.19139713724E+02  0.40002040817E+02  0.12469153008E+03  0.97249211733E+02 0.  0.
         23    2    1    2    0    0  0.23576517265E+02  0.36154918019E+02  0.87885129016E+02  0.14263306573E+03  0.10371771919E+03 0.  0.
        -11    1    3    3    0    0  0.50300348768E+01 -0.44123833099E+02  0.12932284696E+02  0.46254274242E+02  0.00000000000E+00 0. -1.
         11    1    3    3    0    0 -0.69249008561E+02  0.24984119375E+02  0.27069756122E+02  0.78437255842E+02  0.00000000000E+00 0.  1.
        -13    1    4    4    0    0  0.37912546271E+02 -0.12824522523E+02  0.82018489056E+02  0.91262599621E+02  0.00000000000E+00 0. -1.
         13    1    4    4    0    0 -0.14336029006E+02  0.48979440542E+02  0.58666399606E+01  0.51370466105E+02  0.00000000000E+00 0.  1.
         21    1    1    2  502  501  0.40642456419E+02 -0.17015204295E+02 -0.25447244407E+02  0.50881123110E+02  0.00000000000E+00 0. -1.
<scales pt_clust_5="13000.00000" pt_clust_6="13000.00000" pt_clust_7="13000.00000" pt_clust_8="13000.00000" pt_clust_9="44.06049"></scales>
<clustering>
<clus scale="   44.060">  2  9  1 -1</clus>
<clus scale="   97.249">  5  6 -1 -1</clus>
<clus scale="  103.718">  7  8 -1 -1</clus>
<clus scale="  109.037">  2  5  1 -1</clus>
<clus scale="  114.844">  1  5  2 -1</clus>
</clustering>
</event>
<event>
 9    1  0.1803370E-005  0.1007289E+03  0.7546771E-02  0.1283609E+00
         -2   -1    0    0    0  501 -0.00000000000E+00  0.00000000000E+00  0.13254764486E+03  0.13254764486E+03  0.00000000000E+00 0.  1.
          2   -1    0    0  502    0  0.00000000000E+00 -0.00000000000E+00 -0.35092179298E+03  0.35092179298E+03  0.00000000000E+00 0. -1.
         23    2    1    2    0    0  0.11539103010E+02  0.56743674450E+02  0.88839145282E+02  0.13641610823E+03  0.85813549982E+02 0.  0.
         23    2    1    2    0    0  0.24213224385E+02 -0.47338213677E+02 -0.29350576663E+03  0.30762506695E+03  0.75235364441E+02 0.  0.
        -11    1    3    3    0    0 -0.57932509409E+01  0.74751706578E+02  0.49615422337E+02  0.89905892613E+02  0.00000000000E+00 0.  1.
         11    1    3    3    0    0  0.17332353950E+02 -0.18008032129E+02  0.39223722946E+02  0.46510215612E+02  0.00000000000E+00 0. -1.
        -13    1    4    4    0    0  0.43854464638E+02 -0.30587003462E+02 -0.25939104943E+03  0.26484428514E+03  0.00000000000E+00 0. -1.
         13    1    4    4    0    0 -0.19641240253E+02 -0.16751210214E+02 -0.34114717199E+02  0.42780781806E+02  0.00000000000E+00 0.  1.
         21    1    1    2  502  501 -0.35752327395E+02 -0.94054607733E+01 -0.13707526774E+02  0.39428262664E+02  0.00000000000E+00 0. -1.
<scales pt_clust_5="13000.00000" pt_clust_6="13000.00000" pt_clust_7="13000.00000" pt_clust_8="13000.00000" pt_clust_9="36.96879"></scales>
<clustering>
<clus scale="   36.969">  1  9  2 -1</clus>
<clus scale="   75.235">  7  8 -1 -1</clus>
<clus scale="   85.814">  5  6 -1 -1</clus>
<clus scale="   91.884">  2  7  1 -1</clus>
<clus scale="   91.884">  2  5  1 -1</clus>
</clustering>
</event>
<event>
 9    1  0.1803370E-005  0.2066690E+03  0.7546771E-02  0.1144443E+00
         -2   -1    0    0    0  501 -0.00000000000E+00  0.00000000000E+00  0.21397110350E+03  0.21397110350E+03  0.00000000000E+00 0.  1.
          2   -1    0    0  502    0  0.00000000000E+00 -0.00000000000E+00 -0.22528988422E+03  0.22528988422E+03  0.00000000000E+00 0. -1.
         23    2    1    2    0    0 -0.12252213520E+03 -0.12749921824E+03  0.13342343012E+02  0.20054224034E+03  0.93656007691E+02 0.  0.
         23    2    1    2    0    0  0.12410225432E+03  0.14834718933E+03 -0.11891184019E+02  0.21421964463E+03  0.91325778286E+02 0.  0.
        -11    1    4    4    0    0  0.68652987058E+02  0.11512283471E+03  0.29784389024E+02  0.13730844670E+03  0.00000000000E+00 0. -1.
         11    1    4    4    0    0  0.55449267263E+02  0.33224354618E+02 -0.41675573043E+02  0.76911197938E+02  0.00000000000E+00 0.  1.
        -13    1    3    3    0    0 -0.34176930138E+02 -0.11286564918E+02  0.38172653529E+02  0.52465232095E+02  0.00000000000E+00 0. -1.
         13    1    3    3    0    0 -0.88345205065E+02 -0.11621265332E+03 -0.24830310517E+02  0.14807700824E+03  0.00000000000E+00 0.  1.
         21    1    1    2  502  501 -0.15801191171E+01 -0.20847971094E+02 -0.12769939711E+02  0.24499102747E+02  0.00000000000E+00 0.  1.
<scales pt_clust_5="13000.00000" pt_clust_6="13000.00000" pt_clust_7="13000.00000" pt_clust_8="13000.00000" pt_clust_9="20.90777"></scales>
<clustering>
<clus scale="   20.908">  2  9  1 -1</clus>
<clus scale="   91.326">  5  6 -1 -1</clus>
<clus scale="   93.656">  7  8 -1 -1</clus>
<clus scale="  205.624">  2  5  1 -1</clus>
<clus scale="   20.908">  2  5  1 -1</clus>
</clustering>
</event>
<event>
 9    1  0.1803370E-005  0.1598706E+03  0.7546771E-02  0.1188985E+00
          1   -1    0    0  502    0  0.00000000000E+00  0.00000000000E+00  0.10912195171E+04  0.10912195171E+04  0.00000000000E+00 0. -1.
         -1   -1    0    0    0  501 -0.00000000000E+00 -0.00000000000E+00 -0.47414791001E+02  0.47414791001E+02  0.00000000000E+00 0.  1.
         23    2    1    2    0    0 -0.78683272857E+02  0.10966845235E+03  0.13157046920E+03  0.20974052621E+03  0.91989527127E+02 0.  0.
         23    2    1    2    0    0  0.52663035633E+02 -0.10101142457E+03  0.71187957967E+03  0.72667114823E+03  0.91113766850E+02 0.  0.
        -11    1    4    4    0    0  0.74121283794E+02 -0.47349214412E+02  0.41483480819E+03  0.42405640061E+03  0.00000000000E+00 0.  1.
         11    1    4    4    0    0 -0.21458248161E+02 -0.53662210154E+02  0.29704477148E+03  0.30261474762E+03  0.00000000000E+00 0. -1.
        -11    1    3    3    0    0 -0.96807144110E+02  0.69199145603E+02  0.96351690309E+02  0.15311366082E+03  0.00000000000E+00 0.  1.
         11    1    3    3    0    0  0.18123871253E+02  0.40469306750E+02  0.35218778892E+02  0.56626865397E+02  0.00000000000E+00 0. -1.
         21    1    1    2  502  501  0.26020237224E+02 -0.86570277863E+01  0.20035467725E+03  0.20222263368E+03  0.00000000000E+00 0.  1.
<scales pt_clust_5="13000.00000" pt_clust_6="13000.00000" pt_clust_7="13000.00000" pt_clust_8="13000.00000" pt_clust_9="27.42256"></scales>
<clustering>
<clus scale="   27.423">  1  9  2 -1</clus>
<clus scale="   91.114">  5  6 -1 -1</clus>
<clus scale="   91.990">  7  8 -1 -1</clus>
<clus scale="  159.368">  1  5  2 -1</clus>
<clus scale="   27.423">  1  5  2 -1</clus>
</clustering>
</event>
<event>
 9    1  0.1803370E-005  0.1260334E+03  0.7546771E-02  0.1235828E+00
         -3   -1    0    0    0  501 -0.00000000000E+00  0.00000000000E+00  0.32755830779E+03  0.32755830779E+03  0.00000000000E+00 0.  1.
          3   -1    0    0  502    0  0.00000000000E+00 -0.00000000000E+00 -0.58765938404E+02  0.58765938404E+02  0.00000000000E+00 0. -1.
         23    2    1    2    0    0 -0.93988765993E+01  0.79603579084E+02  0.17185551909E+03  0.21276251204E+03  0.96480559728E+02 0.  0.
         23    2    1    2    0    0 -0.32273415545E+01 -0.58894931870E+02  0.84779822357E+02  0.14643125714E+03  0.10380494235E+03 0.  0.
        -11    1    3    3    0    0  0.22204523735E+02  0.46697565175E+01  0.10517660462E+03  0.10759630877E+03  0.00000000000E+00 0. -1.
         11    1    3    3    0    0 -0.31603400334E+02  0.74933822567E+02  0.66678914462E+02  0.10516620327E+03  0.00000000000E+00 0.  1.
        -13    1    4    4    0    0 -0.39217612966E+02  0.95268033461E+01  0.41248415559E+02  0.57707997149E+02  0.00000000000E+00 0.  1.
         13    1    4    4    0    0  0.35990271412E+02 -0.68421735217E+02  0.43531406798E+02  0.88723259995E+02  0.00000000000E+00 0. -1.
         21    1    1    2  502  501  0.12626218154E+02 -0.20708647214E+02  0.12157027942E+02  0.27130477008E+02  0.00000000000E+00 0. -1.
<scales pt_clust_5="13000.00000" pt_clust_6="13000.00000" pt_clust_7="13000.00000" pt_clust_8="13000.00000" pt_clust_9="24.25427"></scales>
<clustering>
<clus scale="   24.254">  2  9  1 -1</clus>
<clus scale="   96.481">  5  6 -1 -1</clus>
<clus scale="  103.805">  7  8 -1 -1</clus>
<clus scale="  120.073">  1  5  2 -1</clus>
<clus scale="   24.254">  2  5  1 -1</clus>
</clustering>
</event>
<event>
 9    1  0.1803370E-005  0.9822912E+02  0.7546771E-02  0.1284151E+00
         -2   -1    0    0    0  501 -0.00000000000E+00  0.00000000000E+00  0.98824102041E+02  0.98824102041E+02  0.00000000000E+00 0.  1.
          2   -1    0    0  502    0  0.00000000000E+00 -0.00000000000E+00 -0.13939675029E+03  0.13939675029E+03  0.00000000000E+00 0. -1.
         23    2    1    2    0    0 -0.52741592074E+02  0.14650441576E+02 -0.31153487050E+02  0.11015070828E+03  0.90367736531E+02 0.  0.
         23    2    1    2    0    0  0.22671167046E+02 -0.28903644365E+01 -0.17756147334E+02  0.94722952067E+02  0.90193241755E+02 0.  0.
        -13    1    3    3    0    0 -0.78134368478E+02  0.45595571454E+01 -0.21433371979E+02  0.81148989723E+02  0.00000000000E+00 0.  1.
         13    1    3    3    0    0  0.25392776404E+02  0.10090884431E+02 -0.97201150715E+01  0.29001718554E+02  0.00000000000E+00 0. -1.
        -13    1    4    4    0    0 -0.18884732410E+01  0.35357024057E+02  0.15247683461E+02  0.38550970575E+02  0.00000000000E+00 0. -1.
         13    1    4    4    0    0  0.24559640287E+02 -0.38247388493E+02 -0.33003830795E+02  0.56171981492E+02  0.00000000000E+00 0.  1.
         21    1    1    2  502  501  0.30070425027E+02 -0.11760077140E+02  0.83369861342E+01  0.33347191988E+02  0.00000000000E+00 0.  1.
<scales pt_clust_5="13000.00000" pt_clust_6="13000.00000" pt_clust_7="13000.00000" pt_clust_8="13000.00000" pt_clust_9="32.28823"></scales>
<clustering>
<clus scale="   32.288">  1  9  2 -1</clus>
<clus scale="   90.193">  7  8 -1 -1</clus>
<clus scale="   90.368">  5  6 -1 -1</clus>
<clus scale="   98.069">  2  7  1 -1</clus>
<clus scale="   98.069">  2  5  1 -1</clus>
</clustering>
</event>
<event>
 9    1  0.1803370E-005  0.1930861E+03  0.7546771E-02  0.1155811E+00
         -1   -1    0    0    0  501 -0.00000000000E+00  0.00000000000E+00  0.87358056494E+03  0.87358056494E+03  0.00000000000E+00 0.  1.
          1   -1    0    0  502    0  0.00000000000E+00 -0.00000000000E+00 -0.84185498037E+02  0.84185498037E+02  0.00000000000E+00 0. -1.
         23    2    1    2    0    0 -0.17153068153E+03  0.57259062935E+01  0.69060803075E+03  0.71748850626E+03  0.91622834346E+02 0.  0.
         23    2    1    2    0    0  0.15895431283E+03  0.17121079168E+02  0.61398114465E+02  0.19469158015E+03  0.92603876822E+02 0.  0.
        -11    1    4    4    0    0  0.14465011288E+03 -0.57208134592E+01  0.76567210646E+02  0.16376483325E+03  0.00000000000E+00 0.  1.
         11    1    4    4    0    0  0.14304199953E+02  0.22841892628E+02 -0.15169096181E+02  0.30926746904E+02  0.00000000000E+00 0. -1.
        -13    1    3    3    0    0 -0.10475013573E+03 -0.35562450839E+02  0.48361019496E+03  0.49610089650E+03  0.00000000000E+00 0.  1.
         13    1    3    3    0    0 -0.66780545795E+02  0.41288357133E+02  0.20699783579E+03  0.22138760976E+03  0.00000000000E+00 0. -1.
         21    1    1    2  502  501  0.12576368694E+02 -0.22846985462E+02  0.37388921694E+02  0.45585976568E+02  0.00000000000E+00 0.  1.
<scales pt_clust_5="13000.00000" pt_clust_6="13000.00000" pt_clust_7="13000.00000" pt_clust_8="13000.00000" pt_clust_9="26.07968"></scales>
<clustering>
<clus scale="   26.080">  2  9  1 -1</clus>
<clus scale="   91.623">  7  8 -1 -1</clus>
<clus scale="   92.604">  5  6 -1 -1</clus>
<clus scale="  192.617">  1  7  2 -1</clus>
<clus scale="   26.080">  2  5  1 -1</clus>
</clustering>
</event>
<event>
 9    1  0.1803370E-005  0.9902364E+02  0.7546771E-02  0.1282981E+00
         -4   -1    0    0    0  501 -0.00000000000E+00  0.00000000000E+00  0.62597740456E+02  0.62597740456E+02  0.00000000000E+00 0.  1.
          4   -1    0    0  502    0  0.00000000000E+00 -0.00000000000E+00 -0.26568947189E+03  0.26568947189E+03  0.00000000000E+00 0. -1.
         23    2    1    2    0    0 -0.16009399874E+02 -0.12783308316E+02 -0.53628232317E+02  0.10821577016E+03  0.91733046137E+02 0.  0.
         23    2    1    2    0    0  0.58328868811E+02  0.11423192032E+02 -0.66845843734E+02  0.12723575752E+03  0.90486600740E+02 0.  0.
        -13    1    4    4    0    0 -0.14435767414E+02  0.16130296105E+02  0.76830763253E+01  0.22969708206E+02  0.00000000000E+00 0.  1.
         13    1    4    4    0    0  0.72764636225E+02 -0.47071040723E+01 -0.74528920059E+02  0.10426604931E+03  0.00000000000E+00 0. -1.
        -13    1    3    3    0    0 -0.32393878980E+02 -0.45367528407E+02 -0.21963705789E+02  0.59916445164E+02  0.00000000000E+00 0. -1.
         13    1    3    3    0    0  0.16384479106E+02  0.32584220091E+02 -0.31664526528E+02  0.48299324993E+02  0.00000000000E+00 0.  1.
         21    1    1    2  502  501 -0.42319468937E+02  0.13601162834E+01 -0.82617655384E+02  0.92835684672E+02  0.00000000000E+00 0. -1.
<scales pt_clust_5="13000.00000" pt_clust_6="13000.00000" pt_clust_7="13000.00000" pt_clust_8="13000.00000" pt_clust_9="42.34132"></scales>
<clustering>
<clus scale="   42.341">  2  9  1 -1</clus>
<clus scale="   90.487">  5  6 -1 -1</clus>
<clus scale="   91.733">  7  8 -1 -1</clus>
<clus scale="   97.870">  2  5  1 -1</clus>
<clus scale="   42.341">  2  5  1 -1</clus>
</clustering>
</event>
<event>
 9    1  0.1803370E-005  0.1030535E+03  0.7546771E-02  0.1276847E+00
         -1   -1    0    0    0  501 -0.00000000000E+00  0.00000000000E+00  0.30520974642E+03  0.30520974642E+03  0.00000000000E+00 0.  1.
          1   -1    0    0  502    0  0.00000000000E+00 -0.00000000000E+00 -0.55170053547E+02  0.55170053547E+02  0.00000000000E+00 0. -1.
         23    2    1    2    0    0  0.50219617907E+02  0.30922418145E+02  0.16000065275E+03  0.19030956226E+03  0.84494465156E+02 0.  0.
         23    2    1    2    0    0 -0.26315546401E+02 -0.25008378171E+02  0.10320485613E+03  0.14214678494E+03  0.90755380982E+02 0.  0.
        -11    1    3    3    0    0  0.18663090276E+02  0.55620849994E+02  0.12059069994E+03  0.13410483512E+03  0.00000000000E+00 0.  1.
         11    1    3    3    0    0  0.31556527631E+02 -0.24698431850E+02  0.39409952809E+02  0.56204727135E+02  0.00000000000E+00 0. -1.
        -13    1    4    4    0    0 -0.15051630510E+02  0.34137837195E+02  0.44267712103E+02  0.57892778861E+02  0.00000000000E+00 0.  1.
         13    1    4    4    0    0 -0.11263915891E+02 -0.59146215366E+02  0.58937144030E+02  0.84254006076E+02  0.00000000000E+00 0. -1.
         21    1    1    2  502  501 -0.23904071506E+02 -0.59140399734E+01 -0.13165816008E+02  0.27923452768E+02  0.00000000000E+00 0. -1.
<scales pt_clust_5="13000.00000" pt_clust_6="13000.00000" pt_clust_7="13000.00000" pt_clust_8="13000.00000" pt_clust_9="24.62479"></scales>
<clustering>
<clus scale="   24.625">  2  9  1 -1</clus>
<clus scale="   84.494">  5  6 -1 -1</clus>
<clus scale="   90.755">  7  8 -1 -1</clus>
<clus scale="   97.585">  1  5  2 -1</clus>
<clus scale="   24.625">  2  5  1 -1</clus>
</clustering>
</event>
<event>
 9    1  0.1803370E-005  0.1087870E+03  0.7546771E-02  0.1266354E+00
          1   -1    0    0  502    0  0.00000000000E+00  0.00000000000E+00  0.90708468082E+02  0.90708468082E+02  0.00000000000E+00 0. -1.
         -1   -1    0    0    0  501 -0.00000000000E+00 -0.00000000000E+00 -0.28220876286E+03  0.28220876286E+03  0.00000000000E+00 0.  1.
         23    2    1    2    0    0  0.37187247307E+02 -0.24909591299E+02 -0.19849939460E+03  0.22640434602E+03  0.99264994532E+02 0.  0.
         23    2    1    2    0    0 -0.47955093793E+02  0.43033032552E+01 -0.25726588405E+02  0.10636894023E+03  0.91292303378E+02 0.  0.
        -11    1    4    4    0    0  0.35855724175E+00 -0.38165070260E+02 -0.35651058900E+01  0.38332898811E+02  0.00000000000E+00 0.  1.
         11    1    4    4    0    0 -0.48313651035E+02  0.42468373515E+02 -0.22161482515E+02  0.68036041424E+02  0.00000000000E+00 0. -1.
        -11    1    3    3    0    0  0.32698124109E+02  0.18873797991E+02 -0.16960046110E+03  0.17375184596E+03  0.00000000000E+00 0.  1.
         11    1    3    3    0    0  0.44891231979E+01 -0.43783389290E+02 -0.28898933503E+02  0.52652500059E+02  0.00000000000E+00 0. -1.
         21    1    1    2  502  501  0.10767846486E+02  0.20606288044E+02  0.32725688228E+02  0.40143944685E+02  0.00000000000E+00 0. -1.
<scales pt_clust_5="13000.00000" pt_clust_6="13000.00000" pt_clust_7="13000.00000" pt_clust_8="13000.00000" pt_clust_9="23.25007"></scales>
<clustering>
<clus scale="   23.250">  1  9  2 -1</clus>
<clus scale="   91.292">  5  6 -1 -1</clus>
<clus scale="   99.265">  7  8 -1 -1</clus>
<clus scale="  101.565">  1  5  2 -1</clus>
<clus scale="   23.250">  1  5  2 -1</clus>
</clustering>
</event>
<event>
 9    1  0.1803370E-005  0.1134606E+03  0.7546771E-02  0.1254609E+00
         -1   -1    0    0    0  501 -0.00000000000E+00  0.00000000000E+00  0.43940248850E+03  0.43940248850E+03  0.00000000000E+00 0.  1.
          1   -1    0    0  502    0  0.00000000000E+00 -0.00000000000E+00 -0.16377476566E+03  0.16377476566E+03  0.00000000000E+00 0. -1.
         23    2    1    2    0    0 -0.30129679124E+02 -0.65301881335E+02  0.38493890565E+03  0.40168426889E+03  0.89443599656E+02 0.  0.
         23    2    1    2    0    0  0.65260629647E+01  0.46844372457E+02 -0.15660505870E+02  0.10316567665E+03  0.90337814149E+02 0.  0.
        -11    1    4    4    0    0  0.27296673033E+02 -0.14678390738E+02 -0.21874166758E+02  0.37934716088E+02  0.00000000000E+00 0.  1.
         11    1    4    4    0    0 -0.20770610068E+02  0.61522763196E+02  0.62136608884E+01  0.65230960559E+02  0.00000000000E+00 0. -1.
        -13    1    3    3    0    0 -0.94045507310E+01 -0.75898188420E+02  0.35801908668E+03  0.36609649959E+03  0.00000000000E+00 0.  1.
         13    1    3    3    0    0 -0.20725128393E+02  0.10596307085E+02  0.26919818970E+02  0.35587769305E+02  0.00000000000E+00 0. -1.
         21    1    1    2  502  501  0.23603616159E+02  0.18457508878E+02 -0.93650676945E+02  0.98327308628E+02  0.00000000000E+00 0. -1.
<scales pt_clust_5="13000.00000" pt_clust_6="13000.00000" pt_clust_7="13000.00000" pt_clust_8="13000.00000" pt_clust_9="29.96348"></scales>
<clustering>
<clus scale="   29.963">  2  9  1 -1</clus>
<clus scale="   89.444">  7  8 -1 -1</clus>
<clus scale="   90.338">  5  6 -1 -1</clus>
<clus scale="  112.750">  1  7  2 -1</clus>
<clus scale="   29.963">  2  5  1 -1</clus>
</clustering>
</event>
<event>
 9    1  0.1803370E-005  0.1646530E+03  0.7546771E-02  0.1187890E+00
          3   -1    0    0  502    0  0.00000000000E+00  0.00000000000E+00  0.43684133488E+03  0.43684133488E+03  0.00000000000E+00 0. -1.
         -3   -1    0    0    0  501 -0.00000000000E+00 -0.00000000000E+00 -0.10960048942E+03  0.10960048942E+03  0.00000000000E+00 0.  1.
         23    2    1    2    0    0 -0.12477443886E+03 -0.47340879350E+02  0.48847878230E+02  0.18284440742E+03  0.11504843618E+03 0.  0.
         23    2    1    2    0    0  0.89602658909E+02  0.50351798698E+02  0.74706560913E+02  0.15687472375E+03  0.92003633579E+02 0.  0.
        -13    1    3    3    0    0 -0.11663699519E+03 -0.23140469622E+02  0.79434647161E+02  0.14300186415E+03  0.00000000000E+00 0. -1.
         13    1    3    3    0    0 -0.81374436655E+01 -0.24200409729E+02 -0.30586768931E+02  0.39842543268E+02  0.00000000000E+00 0.  1.
        -13    1    4    4    0    0  0.61818712656E+02  0.72166512621E+02  0.29488462451E+02  0.99494362634E+02  0.00000000000E+00 0.  1.
         13    1    4    4    0    0  0.27783946253E+02 -0.21814713923E+02  0.45218098463E+02  0.57380361113E+02  0.00000000000E+00 0. -1.
         21    1    1    2  502  501  0.35171779949E+02 -0.30109193480E+01  0.20368640631E+03  0.20672269313E+03  0.00000000000E+00 0.  1.
<scales pt_clust_5="13000.00000" pt_clust_6="13000.00000" pt_clust_7="13000.00000" pt_clust_8="13000.00000" pt_clust_9="35.30042"></scales>
<clustering>
<clus scale="   35.300">  1  9  2 -1</clus>
<clus scale="   92.004">  7  8 -1 -1</clus>
<clus scale="  115.048">  5  6 -1 -1</clus>
<clus scale="  149.463">  1  7  2 -1</clus>
<clus scale="   35.300">  1  5  2 -1</clus>
</clustering>
</event>
<event>
 9    1  0.1803370E-005  0.1219035E+03  0.7546771E-02  0.1250546E+00
         -1   -1    0    0    0  501 -0.00000000000E+00  0.00000000000E+00  0.12545749108E+03  0.12545749108E+03  0.00000000000E+00 0.  1.
          1   -1    0    0  502    0  0.00000000000E+00 -0.00000000000E+00 -0.22421577083E+03  0.22421577083E+03  0.00000000000E+00 0. -1.
         23    2    1    2    0    0 -0.16503988253E+02  0.35483386743E+02  0.47909331769E+02  0.11128233268E+03  0.92504060084E+02 0.  0.
         23    2    1    2    0    0 -0.26756200477E+02 -0.28012948053E+02 -0.51576293051E+02  0.13365502216E+03  0.11705952084E+03 0.  0.
        -11    1    3    3    0    0 -0.39125442029E+02  0.25647438170E+02  0.65853190882E+02  0.80778920814E+02  0.00000000000E+00 0.  1.
         11    1    3    3    0    0  0.22621453776E+02  0.98359485734E+01 -0.17943859113E+02  0.30503411861E+02  0.00000000000E+00 0. -1.
        -13    1    4    4    0    0  0.19815816891E+02 -0.61215938103E+02 -0.38504016616E+02  0.74984111467E+02  0.00000000000E+00 0. -1.
         13    1    4    4    0    0 -0.46572017367E+02  0.33202990051E+02 -0.13072276435E+02  0.58670910690E+02  0.00000000000E+00 0.  1.
         21    1    1    2  502  501  0.43260188729E+02 -0.74704386902E+01 -0.95091318467E+02  0.10473590708E+03  0.00000000000E+00 0. -1.
<scales pt_clust_5="13000.00000" pt_clust_6="13000.00000" pt_clust_7="13000.00000" pt_clust_8="13000.00000" pt_clust_9="43.90047"></scales>
<clustering>
<clus scale="   43.900">  2  9  1 -1</clus>
<clus scale="   92.504">  5  6 -1 -1</clus>
<clus scale="   98.562">  1  5  2 -1</clus>
<clus scale="  117.060">  7  8 -1 -1</clus>
<clus scale="   43.900">  2  5  1 -1</clus>
</clustering>
</event>
<event>
 9    1  0.1803370E-005  0.1490709E+03  0.7546771E-02  0.1204266E+00
          1   -1    0    0  502    0  0.00000000000E+00  0.00000000000E+00  0.16853554388E+03  0.16853554388E+03  0.00000000000E+00 0. -1.
         -1   -1    0    0    0  501 -0.00000000000E+00 -0.00000000000E+00 -0.19097583113E+03  0.19097583113E+03  0.00000000000E+00 0.  1.
         23    2    1    2    0    0  0.91083864464E+02 -0.62187515882E+02 -0.10085405869E+03  0.17397387820E+03  0.89060718874E+02 0.  0.
         23    2    1    2    0    0 -0.97631144899E+02  0.42445385242E+02  0.71275785865E+02  0.16354728440E+03  0.10165640856E+03 0.  0.
        -11    1    3    3    0    0  0.91199693204E+02 -0.17290412685E+02 -0.86387341658E+02  0.12680345110E+03  0.00000000000E+00 0.  1.
         11    1    3    3    0    0 -0.11582874051E+00 -0.44897103197E+02 -0.14466717028E+02  0.47170427106E+02  0.00000000000E+00 0. -1.
        -13    1    4    4    0    0 -0.58691977994E+02  0.53599719741E+02 -0.23460118698E+01  0.79518438170E+02  0.00000000000E+00 0.  1.
         13    1    4    4    0    0 -0.38939166904E+02 -0.11154334500E+02  0.73621797735E+02  0.84028846232E+02  0.00000000000E+00 0. -1.
         21    1    1    2  502  501  0.65472804351E+01  0.19742130641E+02  0.71379855693E+01  0.21990212398E+02  0.00000000000E+00 0. -1.
<scales pt_clust_5="13000.00000" pt_clust_6="13000.00000" pt_clust_7="13000.00000" pt_clust_8="13000.00000" pt_clust_9="20.79949"></scales>
<clustering>
<clus scale="   20.799">  1  9  2 -1</clus>
<clus scale="   89.061">  5  6 -1 -1</clus>
<clus scale="  101.656">  7  8 -1 -1</clus>
<clus scale="  140.783">  2  5  1 -1</clus>
<clus scale="   20.799">  1  5  2 -1</clus>
</clustering>
</event>
<event>
 9    1  0.1803370E-005  0.1072462E+03  0.7546771E-02  0.1266216E+00
          1   -1    0    0  502    0  0.00000000000E+00  0.00000000000E+00  0.35405786891E+03  0.35405786891E+03  0.00000000000E+00 0. -1.
         -1   -1    0    0    0  501 -0.00000000000E+00 -0.00000000000E+00 -0.45801564417E+02  0.45801564417E+02  0.00000000000E+00 0.  1.
         23    2    1    2    0    0 -0.12924283608E+02 -0.46089885405E+02  0.90823390007E+02  0.13888657237E+03  0.93537570891E+02 0.  0.
         23    2    1    2    0    0  0.44522844814E+02  0.46446017662E+02  0.17368648856E+03  0.20700670785E+03  0.92440599943E+02 0.  0.
        -11    1    4    4    0    0  0.68559631166E+02  0.54039614292E+02  0.13064194969E+03  0.15712422461E+03  0.00000000000E+00 0.  1.
         11    1    4    4    0    0 -0.24036786352E+02 -0.75935966307E+01  0.43044538867E+02  0.49882483240E+02  0.00000000000E+00 0. -1.
        -13    1    3    3    0    0  0.26319079609E+02  0.36090349777E+01  0.65507157129E+02  0.70688801943E+02  0.00000000000E+00 0.  1.
         13    1    3    3    0    0 -0.39243363217E+02 -0.49698920383E+02  0.25316232878E+02  0.68197770425E+02  0.00000000000E+00 0. -1.
         21    1    1    2  502  501 -0.31598561206E+02 -0.35613225628E+00  0.43746425925E+02  0.53966153112E+02  0.00000000000E+00 0.  1.
<scales pt_clust_5="13000.00000" pt_clust_6="13000.00000" pt_clust_7="13000.00000" pt_clust_8="13000.00000" pt_clust_9="31.60057"></scales>
<clustering>
<clus scale="   31.601">  1  9  2 -1</clus>
<clus scale="   92.441">  5  6 -1 -1</clus>
<clus scale="   93.538">  7  8 -1 -1</clus>
<clus scale="  106.291">  1  5  2 -1</clus>
<clus scale="   31.601">  1  5  2 -1</clus>
</clustering>
</event>
<event>
 9    1  0.1803370E-005  0.1016961E+03  0.7546771E-02  0.1277817E+00
          1   -1    0    0  502    0  0.00000000000E+00  0.00000000000E+00  0.28531682857E+03  0.28531682857E+03  0.00000000000E+00 0. -1.
         -1   -1    0    0    0  501 -0.00000000000E+00 -0.00000000000E+00 -0.29046978839E+03  0.29046978839E+03  0.00000000000E+00 0.  1.
         23    2    1    2    0    0  0.17756536242E+02  0.33750220125E+02 -0.25580861400E+03  0.27485422220E+03  0.93018409608E+02 0.  0.
         23    2    1    2    0    0 -0.14616934208E+02 -0.61353413919E+01  0.72676377998E+02  0.12079616470E+03  0.95176469296E+02 0.  0.
        -11    1    3    3    0    0  0.21421462829E+02  0.62729113789E+02 -0.13278515719E+03  0.14841064233E+03  0.00000000000E+00 0.  1.
         11    1    3    3    0    0 -0.36649265876E+01 -0.28978893663E+02 -0.12302345681E+03  0.12644357987E+03  0.00000000000E+00 0. -1.
        -11    1    4    4    0    0  0.23053460933E+01  0.42394031218E+02  0.47024217446E+02  0.63354917173E+02  0.00000000000E+00 0.  1.
         11    1    4    4    0    0 -0.16922280301E+02 -0.48529372610E+02  0.25652160551E+02  0.57441247527E+02  0.00000000000E+00 0. -1.
         21    1    1    2  502  501 -0.31396020337E+01 -0.27614878733E+02  0.17797927619E+03  0.18013623006E+03  0.00000000000E+00 0. -1.
<scales pt_clust_5="13000.00000" pt_clust_6="13000.00000" pt_clust_7="13000.00000" pt_clust_8="13000.00000" pt_clust_9="27.79278"></scales>
<clustering>
<clus scale="   27.793">  1  9  2 -1</clus>
<clus scale="   93.018">  5  6 -1 -1</clus>
<clus scale="   95.176">  7  8 -1 -1</clus>
<clus scale="   99.679">  2  5  1 -1</clus>
<clus scale="   27.793">  1  5  2 -1</clus>
</clustering>
</event>
<event>
 9    1  0.1803370E-005  0.1239739E+03  0.7546771E-02  0.1237391E+00
         -3   -1    0    0    0  501 -0.00000000000E+00  0.00000000000E+00  0.21695556874E+03  0.21695556874E+03  0.00000000000E+00 0.  1.
          3   -1    0    0  502    0  0.00000000000E+00 -0.00000000000E+00 -0.88783758481E+02  0.88783758481E+02  0.00000000000E+00 0. -1.
         23    2    1    2    0    0 -0.34950680582E+02  0.90648068117E+02  0.87584168725E+02  0.15893840076E+03  0.90287354034E+02 0.  0.
         23    2    1    2    0    0  0.18877821179E+02 -0.68820507520E+02  0.38824358172E+02  0.11963682553E+03  0.87823714614E+02 0.  0.
        -11    1    4    4    0    0  0.50796467810E+02 -0.35306089072E+02  0.45167505923E+01  0.62025818040E+02  0.00000000000E+00 0. -1.
         11    1    4    4    0    0 -0.31918646631E+02 -0.33514418447E+02  0.34307607580E+02  0.57611007494E+02  0.00000000000E+00 0.  1.
        -13    1    3    3    0    0 -0.58268129205E+02  0.82852735558E+02  0.88251831261E+02  0.13434335261E+03  0.00000000000E+00 0. -1.
         13    1    3    3    0    0  0.23317448624E+02  0.77953325591E+01 -0.66766253660E+00  0.24595048146E+02  0.00000000000E+00 0.  1.
         21    1    1    2  502  501  0.16072859402E+02 -0.21827560597E+02  0.17632833628E+01  0.27164100928E+02  0.00000000000E+00 0. -1.
<scales pt_clust_5="13000.00000" pt_clust_6="13000.00000" pt_clust_7="13000.00000" pt_clust_8="13000.00000" pt_clust_9="27.10681"></scales>
<clustering>
<clus scale="   27.107">  2  9  1 -1</clus>
<clus scale="   87.824">  5  6 -1 -1</clus>
<clus scale="   90.287">  7  8 -1 -1</clus>
<clus scale="  122.191">  2  5  1 -1</clus>
<clus scale="   27.107">  2  5  1 -1</clus>
</clustering>
</event>
<event>
 9    1  0.1803370E-005  0.1797909E+03  0.7546771E-02  0.1168108E+00
          1   -1    0    0  502    0  0.00000000000E+00  0.00000000000E+00  0.78646834979E+02  0.78646834979E+02  0.00000000000E+00 0. -1.
         -1   -1    0    0    0  501 -0.00000000000E+00 -0.00000000000E+00 -0.54944098208E+03  0.54944098208E+03  0.00000000000E+00 0.  1.
         23    2    1    2    0    0 -0.10159255066E+03  0.88572315827E+02 -0.16229735464E+03  0.22843361839E+03  0.87609275788E+02 0.  0.
         23    2    1    2    0    0  0.15269395926E+03 -0.94359347510E+02 -0.26642088874E+03  0.33320703643E+03  0.88474332489E+02 0.  0.
        -11    1    4    4    0    0  0.12972392695E+03 -0.71618975138E+02 -0.14412320638E+03  0.20671011935E+03  0.00000000000E+00 0.  1.
         11    1    4    4    0    0  0.22970032314E+02 -0.22740372372E+02 -0.12229768236E+03  0.12649691708E+03  0.00000000000E+00 0. -1.
        -13    1    3    3    0    0 -0.31279955873E+02  0.24767255362E+02 -0.11625694381E+03  0.12291269081E+03  0.00000000000E+00 0.  1.
         13    1    3    3    0    0 -0.70312594791E+02  0.63805060466E+02 -0.46040410830E+02  0.10552092758E+03  0.00000000000E+00 0. -1.
         21    1    1    2  502  501 -0.51101408599E+02  0.57870316828E+01 -0.42075903712E+02  0.66447162240E+02  0.00000000000E+00 0. -1.
<scales pt_clust_5="13000.00000" pt_clust_6="13000.00000" pt_clust_7="13000.00000" pt_clust_8="13000.00000" pt_clust_9="51.42804"></scales>
<clustering>
<clus scale="   51.428">  1  9  2 -1</clus>
<clus scale="   87.609">  7  8 -1 -1</clus>
<clus scale="   88.474">  5  6 -1 -1</clus>
<clus scale="  179.367">  2  7  1 -1</clus>
<clus scale="   51.428">  1  5  2 -1</clus>
</clustering>
</event>
<event>
 9    1  0.1803370E-005  0.1064980E+03  0.7546771E-02  0.1268657E+00
          2   -1    0    0  502    0  0.00000000000E+00  0.00000000000E+00  0.18952395875E+03  0.18952395875E+03  0.00000000000E+00 0. -1.
         -2   -1    0    0    0  501 -0.00000000000E+00 -0.00000000000E+00 -0.17564073811E+03  0.17564073811E+03  0.00000000000E+00 0.  1.
         23    2    1    2    0    0  0.46998570624E+02 -0.24177741233E+02 -0.11239382993E+03  0.15355759915E+03  0.90300246061E+02 0.  0.
         23    2    1    2    0    0 -0.67439826115E+02  0.20491740304E+02  0.33744142642E+02  0.11677160551E+03  0.86769229122E+02 0.  0.
        -11    1    4    4    0    0 -0.48953143638E+02 -0.10149081498E+01 -0.22420630006E+02  0.53852808287E+02  0.00000000000E+00 0.  1.
         11    1    4    4    0    0 -0.18486682477E+02  0.21506648454E+02  0.56164772648E+02  0.62918797218E+02  0.00000000000E+00 0. -1.
        -13    1    3    3    0    0  0.72229038034E+02 -0.30833946166E+02 -0.84749051780E+02  0.11554292687E+03  0.00000000000E+00 0.  1.
         13    1    3    3    0    0 -0.25230467410E+02  0.66562049328E+01 -0.27644778155E+02  0.38014672287E+02  0.00000000000E+00 0. -1.
         21    1    1    2  502  501  0.20441255491E+02  0.36860009288E+01  0.92532907937E+02  0.94835492197E+02  0.00000000000E+00 0. -1.
<scales pt_clust_5="13000.00000" pt_clust_6="13000.00000" pt_clust_7="13000.00000" pt_clust_8="13000.00000" pt_clust_9="20.77093"></scales>
<clustering>
<clus scale="   20.771">  1  9  2 -1</clus>
<clus scale="   86.769">  5  6 -1 -1</clus>
<clus scale="   90.300">  7  8 -1 -1</clus>
<clus scale="  103.521">  1  5  2 -1</clus>
<clus scale="   20.771">  1  5  2 -1</clus>
</clustering>
</event>
<event>
 9    1  0.1803370E-005  0.9325597E+02  0.7546771E-02  0.1296182E+00
         -1   -1    0    0    0  501 -0.00000000000E+00  0.00000000000E+00  0.43350786458E+02  0.43350786458E+02  0.00000000000E+00 0.  1.
          1   -1    0    0  502    0  0.00000000000E+00 -0.00000000000E+00 -0.32699503406E+03  0.32699503406E+03  0.00000000000E+00 0. -1.
         23    2    1    2    0    0  0.70605470851E+01  0.64781677320E+01 -0.84043680219E+02  0.12331230995E+03  0.89726069897E+02 0.  0.
         23    2    1    2    0    0 -0.27002898244E+02  0.21054351631E+02 -0.92083925625E+02  0.13427019540E+03  0.91523733410E+02 0.  0.
        -11    1    3    3    0    0 -0.33056389234E+01 -0.41184684271E+02 -0.41999616380E+02  0.58915814883E+02  0.00000000000E+00 0.  1.
         11    1    3    3    0    0  0.10366186009E+02  0.47662852003E+02 -0.42044063839E+02  0.64396495072E+02  0.00000000000E+00 0. -1.
        -11    1    4    4    0    0 -0.11151258678E+02  0.49208587829E+02 -0.88353391722E+02  0.10174555280E+03  0.00000000000E+00 0. -1.
         11    1    4    4    0    0 -0.15851639566E+02 -0.28154236197E+02 -0.37305339035E+01  0.32524642596E+02  0.00000000000E+00 0.  1.
         21    1    1    2  502  501  0.19942351159E+02 -0.27532519363E+02 -0.10751664175E+03  0.11276331516E+03  0.00000000000E+00 0.  1.
<scales pt_clust_5="13000.00000" pt_clust_6="13000.00000" pt_clust_7="13000.00000" pt_clust_8="13000.00000" pt_clust_9="33.99613"></scales>
<clustering>
<clus scale="   33.996">  2  9  1 -1</clus>
<clus scale="   89.726">  5  6 -1 -1</clus>
<clus scale="   91.492">  1  5  2 -1</clus>
<clus scale="   91.524">  7  8 -1 -1</clus>
<clus scale="   33.996">  2  5  1 -1</clus>
</clustering>
</event>
<event>
 9    1  0.1803370E-005  0.1137219E+03  0.7546771E-02  0.1254451E+00
          4   -1    0    0  502    0  0.00000000000E+00  0.00000000000E+00  0.78012317578E+02  0.78012317578E+02  0.00000000000E+00 0. -1.
         -4   -1    0    0    0  501 -0.00000000000E+00 -0.00000000000E+00 -0.33318114779E+03  0.33318114779E+03  0.00000000000E+00 0.  1.
         23    2    1    2    0    0 -0.51092186294E+02 -0.44030078636E+02 -0.21846867313E+03  0.24590683810E+03  0.90512720442E+02 0.  0.
         23    2    1    2    0    0  0.17928116731E+02  0.71491646347E+02 -0.25403697002E+02  0.12077142513E+03  0.92238367502E+02 0.  0.
        -11    1    4    4    0    0  0.19356638881E+02 -0.18974845139E+02 -0.10529836147E+02  0.29079230838E+02  0.00000000000E+00 0. -1.
         11    1    4    4    0    0 -0.14285221497E+01  0.90466491486E+02 -0.14873860855E+02  0.91692194291E+02  0.00000000000E+00 0.  1.
        -11    1    3    3    0    0  0.24570294747E+02 -0.20385405182E+01 -0.67978523569E+02  0.72311373227E+02  0.00000000000E+00 0.  1.
         11    1    3    3    0    0 -0.75662481041E+02 -0.41991538118E+02 -0.15049014956E+03  0.17359546487E+03  0.00000000000E+00 0. -1.
         21    1    1    2  502  501  0.33164069563E+02 -0.27461567711E+02 -0.11296460083E+02  0.44515202140E+02  0.00000000000E+00 0. -1.
<scales pt_clust_5="13000.00000" pt_clust_6="13000.00000" pt_clust_7="13000.00000" pt_clust_8="13000.00000" pt_clust_9="43.05802"></scales>
<clustering>
<clus scale="   43.058">  1  9  2 -1</clus>
<clus scale="   90.513">  7  8 -1 -1</clus>
<clus scale="   92.238">  5  6 -1 -1</clus>
<clus scale="  112.327">  2  7  1 -1</clus>
<clus scale="   43.058">  1  5  2 -1</clus>
</clustering>
</event>
<event>
 9    1  0.1803370E-005  0.1016538E+03  0.7546771E-02  0.1281519E+00
          1   -1    0    0  502    0  0.00000000000E+00  0.00000000000E+00  0.51042334975E+03  0.51042334975E+03  0.00000000000E+00 0. -1.
         -1   -1    0    0    0  501 -0.00000000000E+00 -0.00000000000E+00 -0.38185968750E+02  0.38185968750E+02  0.00000000000E+00 0.  1.
         23    2    1    2    0    0 -0.40933282068E+02 -0.39245980531E+02  0.84773839260E+02  0.13783424946E+03  0.92714054660E+02 0.  0.
         23    2    1    2    0    0 -0.52859707651E+01  0.16819575564E+02  0.23647700437E+03  0.25128808701E+03  0.83147396034E+02 0.  0.
        -11    1    3    3    0    0 -0.10660118178E+02 -0.43548938884E+02  0.95442830829E+02  0.10544895521E+03  0.00000000000E+00 0. -1.
         11    1    3    3    0    0 -0.30273163890E+02  0.43029583533E+01 -0.10668991569E+02  0.32385294249E+02  0.00000000000E+00 0.  1.
        -13    1    4    4    0    0 -0.27095539486E+02 -0.25613372515E+02  0.10318849714E+03  0.10971818014E+03  0.00000000000E+00 0.  1.
         13    1    4    4    0    0  0.21809568721E+02  0.42432948079E+02  0.13328850723E+03  0.14156990687E+03  0.00000000000E+00 0. -1.
         21    1    1    2  502  501  0.46219252833E+02  0.22426404967E+02  0.15098653736E+03  0.15948698203E+03  0.00000000000E+00 0. -1.
<scales pt_clust_5="13000.00000" pt_clust_6="13000.00000" pt_clust_7="13000.00000" pt_clust_8="13000.00000" pt_clust_9="51.37278"></scales>
<clustering>
<clus scale="   51.373">  1  9  2 -1</clus>
<clus scale="   83.147">  7  8 -1 -1</clus>
<clus scale="   92.714">  5  6 -1 -1</clus>
<clus scale="   93.011">  1  7  2 -1</clus>
<clus scale="   51.373">  1  5  2 -1</clus>
</clustering>
</event>
<event>
 9    1  0.1803370E-005  0.9911722E+02  0.7546771E-02  0.1282860E+00
         -2   -1    0    0    0  501 -0.00000000000E+00  0.00000000000E+00  0.45826923652E+02  0.45826923652E+02  0.00000000000E+00 0.  1.
          2   -1    0    0  502    0  0.00000000000E+00 -0.00000000000E+00 -0.40117882578E+03  0.40117882578E+03  0.00000000000E+00 0. -1.
         23    2    1    2    0    0  0.31375627365E+02 -0.53062632797E+01 -0.77381976322E+02  0.12372706576E+03  0.91147299027E+02 0.  0.
         23    2    1    2    0    0 -0.29723529676E+02  0.33357410316E+02 -0.10098211952E+03  0.14407410825E+03  0.92540559573E+02 0.  0.
        -13    1    3    3    0    0  0.12039798662E+02 -0.46423436895E+02 -0.24009597628E+02  0.53633506535E+02  0.00000000000E+00 0. -1.
         13    1    3    3    0    0  0.19335828703E+02  0.41117173615E+02 -0.53372378693E+02  0.70093559227E+02  0.00000000000E+00 0.  1.
        -13    1    4    4    0    0 -0.60107903066E+01  0.58429927353E+02 -0.31875189029E+02  0.66829736542E+02  0.00000000000E+00 0.  1.
         13    1    4    4    0    0 -0.23712739369E+02 -0.25072517037E+02 -0.69106930487E+02  0.77244371706E+02  0.00000000000E+00 0. -1.
         21    1    1    2  502  501 -0.16520976893E+01 -0.28051147036E+02 -0.17698780629E+03  0.17920457542E+03  0.00000000000E+00 0. -1.
<scales pt_clust_5="13000.00000" pt_clust_6="13000.00000" pt_clust_7="13000.00000" pt_clust_8="13000.00000" pt_clust_9="28.09976"></scales>
<clustering>
<clus scale="   28.100">  2  9  1 -1</clus>
<clus scale="   91.147">  5  6 -1 -1</clus>
<clus scale="   92.541">  7  8 -1 -1</clus>
<clus scale="   97.818">  1  5  2 -1</clus>
<clus scale="   28.100">  2  5  1 -1</clus>
</clustering>
</event>
<event>
 9    1  0.1803370E-005  0.9877216E+02  0.7546771E-02  0.1284768E+00
         -1   -1    0    0    0  501 -0.00000000000E+00  0.00000000000E+00  0.94255138128E+02  0.94255138128E+02  0.00000000000E+00 0.  1.
          1   -1    0    0  502    0  0.00000000000E+00 -0.00000000000E+00 -0.18252229263E+03  0.18252229263E+03  0.00000000000E+00 0. -1.
         23    2    1    2    0    0 -0.13299655938E+01  0.37021837690E+02  0.34384318827E+02  0.10170604909E+03  0.88257882174E+02 0.  0.
         23    2    1    2    0    0 -0.22408054336E+02 -0.31600859943E+02 -0.10599105614E+03  0.14556799050E+03  0.91952164884E+02 0.  0.
        -11    1    4    4    0    0 -0.43952172223E+02  0.72578911542E+01 -0.85986526160E+02  0.96840864867E+02  0.00000000000E+00 0. -1.
         11    1    4    4    0    0  0.21544117886E+02 -0.38858751097E+02 -0.20004529982E+02  0.48727125629E+02  0.00000000000E+00 0.  1.
        -11    1    3    3    0    0  0.40082680678E+02  0.14605395911E-01  0.12169917854E+02  0.41889478443E+02  0.00000000000E+00 0.  1.
         11    1    3    3    0    0 -0.41412646272E+02  0.37007232294E+02  0.22214400973E+02  0.59816570646E+02  0.00000000000E+00 0. -1.
         21    1    1    2  502  501  0.23738019930E+02 -0.54209777471E+01 -0.16660417192E+02  0.29503391177E+02  0.00000000000E+00 0. -1.
<scales pt_clust_5="13000.00000" pt_clust_6="13000.00000" pt_clust_7="13000.00000" pt_clust_8="13000.00000" pt_clust_9="24.34914"></scales>
<clustering>
<clus scale="   24.349">  2  9  1 -1</clus>
<clus scale="   88.258">  7  8 -1 -1</clus>
<clus scale="   91.952">  5  6 -1 -1</clus>
<clus scale="   95.343">  1  7  2 -1</clus>
<clus scale="   24.349">  2  5  1 -1</clus>
</clustering>
</event>
<event>
 9    1  0.1803370E-005  0.1050029E+03  0.7546771E-02  0.1271496E+00
         -1   -1    0    0    0  501 -0.00000000000E+00  0.00000000000E+00  0.40196513130E+03  0.40196513130E+03  0.00000000000E+00 0.  1.
          1   -1    0    0  502    0  0.00000000000E+00 -0.00000000000E+00 -0.46642361725E+02  0.46642361725E+02  0.00000000000E+00 0. -1.
         23    2    1    2    0    0 -0.21091744561E+02  0.55857899072E+02  0.27713513133E+03  0.29822870438E+03  0.92582463376E+02 0.  0.
         23    2    1    2    0    0  0.56729631019E+01 -0.26247962818E+02  0.67869025240E+02  0.11543653741E+03  0.89432944264E+02 0.  0.
        -11    1    3    3    0    0 -0.47254847778E+02  0.53769629278E+02  0.25169489035E+03  0.26167634876E+03  0.00000000000E+00 0. -1.
         11    1    3    3    0    0  0.26163103217E+02  0.20882697946E+01  0.25440240975E+02  0.36552355622E+02  0.00000000000E+00 0.  1.
        -11    1    4    4    0    0 -0.83722342430E+01  0.25189924294E+02 -0.30382090867E+01  0.26718108215E+02  0.00000000000E+00 0.  1.
         11    1    4    4    0    0  0.14045197345E+02 -0.51437887111E+02  0.70907234327E+02  0.88718429195E+02  0.00000000000E+00 0. -1.
         21    1    1    2  502  501  0.15418781460E+02 -0.29609936255E+02  0.10318613007E+02  0.34942251231E+02  0.00000000000E+00 0. -1.
<scales pt_clust_5="13000.00000" pt_clust_6="13000.00000" pt_clust_7="13000.00000" pt_clust_8="13000.00000" pt_clust_9="33.38394"></scales>
<clustering>
<clus scale="   33.384">  2  9  1 -1</clus>
<clus scale="   89.433">  7  8 -1 -1</clus>
<clus scale="   92.582">  5  6 -1 -1</clus>
<clus scale="  102.237">  2  7  1 -1</clus>
<clus scale="   33.384">  2  5  1 -1</clus>
</clustering>
</event>
<event>
 9    1  0.1803370E-005  0.2085237E+03  0.7546771E-02  0.1142836E+00
         -1   -1    0    0    0  501 -0.00000000000E+00  0.00000000000E+00  0.52419159314E+03  0.52419159314E+03  0.00000000000E+00 0.  1.
          1   -1    0    0  502    0  0.00000000000E+00 -0.00000000000E+00 -0.16597614482E+03  0.16597614482E+03  0.00000000000E+00 0. -1.
         23    2    1    2    0    0  0.10103326945E+03  0.17462342078E+03  0.26476072790E+03  0.34496525798E+03  0.90563378653E+02 0.  0.
         23    2    1    2    0    0 -0.69892339791E+02 -0.15712612982E+03  0.17136100746E+03  0.25949774119E+03  0.91656548972E+02 0.  0.
        -13    1    3    3    0    0  0.10043120404E+03  0.10385752611E+03  0.21263032537E+03  0.25706899413E+03  0.00000000000E+00 0. -1.
         13    1    3    3    0    0  0.60206540280E+00  0.70765894663E+02  0.52130402537E+02  0.87896263851E+02  0.00000000000E+00 0.  1.
        -13    1    4    4    0    0  0.19126363988E+02 -0.15486918518E+02  0.39273646427E+02  0.46347402821E+02  0.00000000000E+00 0. -1.
         13    1    4    4    0    0 -0.89018703778E+02 -0.14163921130E+03  0.13208736103E+03  0.21315033837E+03  0.00000000000E+00 0.  1.
         21    1    1    2  502  501 -0.31140929654E+02 -0.17497290954E+02 -0.77906287047E+02  0.85704738795E+02  0.00000000000E+00 0. -1.
<scales pt_clust_5="13000.00000" pt_clust_6="13000.00000" pt_clust_7="13000.00000" pt_clust_8="13000.00000" pt_clust_9="35.71992"></scales>
<clustering>
<clus scale="   35.720">  2  9  1 -1</clus>
<clus scale="   90.563">  5  6 -1 -1</clus>
<clus scale="   91.657">  7  8 -1 -1</clus>
<clus scale="  208.045">  1  5  2 -1</clus>
<clus scale="   35.720">  2  5  1 -1</clus>
</clustering>
</event>
<event>
 9    1  0.1803370E-005  0.1036526E+03  0.7546771E-02  0.1273070E+00
          1   -1    0    0  502    0  0.00000000000E+00  0.00000000000E+00  0.12273795821E+03  0.12273795821E+03  0.00000000000E+00 0. -1.
         -1   -1    0    0    0  501 -0.00000000000E+00 -0.00000000000E+00 -0.22578866784E+03  0.22578866784E+03  0.00000000000E+00 0.  1.
         23    2    1    2    0    0  0.10793610164E+02 -0.43724047838E+02 -0.11706641508E+03  0.15610229716E+03  0.92925170222E+02 0.  0.
         23    2    1    2    0    0 -0.41726833822E+02  0.24642472233E+02  0.70066269223E+02  0.12562136075E+03  0.92320442453E+02 0.  0.
        -13    1    4    4    0    0 -0.26431579800E+02 -0.27979590384E+02  0.57836577871E+02  0.69473416705E+02  0.00000000000E+00 0.  1.
         13    1    4    4    0    0 -0.15295254022E+02  0.52622062617E+02  0.12229691351E+02  0.56147944043E+02  0.00000000000E+00 0. -1.
        -13    1    3    3    0    0  0.33042709943E+02  0.16280221350E+02 -0.27254812361E+02  0.45822386280E+02  0.00000000000E+00 0. -1.
         13    1    3    3    0    0 -0.22249099780E+02 -0.60004269188E+02 -0.89811602717E+02  0.11027991088E+03  0.00000000000E+00 0.  1.
         21    1    1    2  502  501  0.30933223658E+02  0.19081575605E+02 -0.56050563774E+02  0.66802968144E+02  0.00000000000E+00 0.  1.
<scales pt_clust_5="13000.00000" pt_clust_6="13000.00000" pt_clust_7="13000.00000" pt_clust_8="13000.00000" pt_clust_9="36.34516"></scales>
<clustering>
<clus scale="   36.345">  2  9  1 -1</clus>
<clus scale="   92.320">  5  6 -1 -1</clus>
<clus scale="   92.925">  7  8 -1 -1</clus>
<clus scale="  103.111">  1  5  2 -1</clus>
<clus scale="  103.111">  1  5  2 -1</clus>
</clustering>
</event>
<event>
 9    1  0.1803370E-005  0.1024375E+03  0.7546771E-02  0.1277071E+00
         -2   -1    0    0    0  501 -0.00000000000E+00  0.00000000000E+00  0.16888364154E+03  0.16888364154E+03  0.00000000000E+00 0.  1.
          2   -1    0    0  502    0  0.00000000000E+00 -0.00000000000E+00 -0.12618175812E+03  0.12618175812E+03  0.00000000000E+00 0. -1.
         23    2    1    2    0    0 -0.95053857855E+01  0.44783282997E+02  0.54250292519E+02  0.11536506813E+03  0.90940144669E+02 0.  0.
         23    2    1    2    0    0 -0.31842413714E+02 -0.29551384961E+02  0.40219405049E+02  0.11171829108E+03  0.94742558312E+02 0.  0.
        -13    1    4    4    0    0  0.27285205885E+02 -0.35049591700E+02  0.22232077675E+02  0.49671134638E+02  0.00000000000E+00 0. -1.
         13    1    4    4    0    0 -0.59127619598E+02  0.54982067389E+01  0.17987327374E+02  0.62047156444E+02  0.00000000000E+00 0.  1.
        -13    1    3    3    0    0  0.26220214595E+02 -0.71896026973E+01 -0.63300404440E+01  0.27915219010E+02  0.00000000000E+00 0. -1.
         13    1    3    3    0    0 -0.35725600381E+02  0.51972885695E+02  0.60580332963E+02  0.87449849125E+02  0.00000000000E+00 0.  1.
         21    1    1    2  502  501  0.41347799499E+02 -0.15231898037E+02 -0.51767814151E+02  0.67982040446E+02  0.00000000000E+00 0. -1.
<scales pt_clust_5="13000.00000" pt_clust_6="13000.00000" pt_clust_7="13000.00000" pt_clust_8="13000.00000" pt_clust_9="44.06417"></scales>
<clustering>
<clus scale="   44.064">  2  9  1 -1</clus>
<clus scale="   90.940">  7  8 -1 -1</clus>
<clus scale="   94.743">  5  6 -1 -1</clus>
<clus scale="   98.931">  1  7  2 -1</clus>
<clus scale="   44.064">  2  5  1 -1</clus>
</clustering>
</event>
<event>
 9    1  0.1803370E-005  0.1129227E+03  0.7546771E-02  0.1255721E+00
          1   -1    0    0  502    0  0.00000000000E+00  0.00000000000E+00  0.61546497727E+03  0.61546497727E+03  0.00000000000E+00 0. -1.
         -1   -1    0    0    0  501 -0.00000000000E+00 -0.00000000000E+00 -0.90904275889E+02  0.90904275889E+02  0.00000000000E+00 0.  1.
         23    2    1    2    0    0  0.73075511138E+01  0.76206734698E+02 -0.28460278185E+02  0.12365644903E+03  0.92844295652E+02 0.  0.
         23    2    1    2    0    0 -0.31454227195E+02 -0.42356422513E+00  0.22067088355E+03  0.24097791096E+03  0.91570556984E+02 0.  0.
        -11    1    4    4    0    0 -0.14750565856E+02  0.40696585081E+02  0.58071615583E+02  0.72429992177E+02  0.00000000000E+00 0.  1.
         11    1    4    4    0    0 -0.16703661339E+02 -0.41120149306E+02  0.16259926797E+03  0.16854791878E+03  0.00000000000E+00 0. -1.
        -11    1    3    3    0    0 -0.17188620719E+02  0.73545149337E+02 -0.50289096549E+02  0.90737703878E+02  0.00000000000E+00 0.  1.
         11    1    3    3    0    0  0.24496171833E+02  0.26615853613E+01  0.21828818365E+02  0.32918745150E+02  0.00000000000E+00 0. -1.
         21    1    1    2  502  501  0.24146676081E+02 -0.75783170473E+02  0.33235009602E+03  0.34173489318E+03  0.00000000000E+00 0. -1.
<scales pt_clust_5="13000.00000" pt_clust_6="13000.00000" pt_clust_7="13000.00000" pt_clust_8="13000.00000" pt_clust_9="79.53710"></scales>
<clustering>
<clus scale="   79.537">  1  9  2 -1</clus>
<clus scale="   91.571">  5  6 -1 -1</clus>
<clus scale="   92.844">  7  8 -1 -1</clus>
<clus scale="  111.878">  1  5  2 -1</clus>
<clus scale="   79.537">  1  5  2 -1</clus>
</clustering>
</event>
<event>
 9    1  0.1803370E-005  0.1290614E+03  0.7546771E-02  0.1230259E+00
         -2   -1    0    0    0  501 -0.00000000000E+00  0.00000000000E+00  0.36615914718E+02  0.36615914718E+02  0.00000000000E+00 0.  1.
          2   -1    0    0  502    0  0.00000000000E+00 -0.00000000000E+00 -0.63827699573E+03  0.63827699573E+03  0.00000000000E+00 0. -1.
         23    2    1    2    0    0  0.18384291445E+02 -0.80157778155E+02 -0.15109810700E+03  0.19728945422E+03  0.96587987013E+02 0.  0.
         23    2    1    2    0    0 -0.41993546921E+02  0.84197548894E+02 -0.34000977638E+03  0.36448526053E+03  0.91597881459E+02 0.  0.
        -13    1    3    3    0    0 -0.31720948605E+02 -0.49799369622E+02 -0.38868687652E+02  0.70689254310E+02  0.00000000000E+00 0.  1.
         13    1    3    3    0    0  0.50105240049E+02 -0.30358408532E+02 -0.11222941935E+03  0.12660019991E+03  0.00000000000E+00 0. -1.
        -13    1    4    4    0    0 -0.11542166145E+02 -0.19058464525E+02 -0.40627327719E+02  0.46336016521E+02  0.00000000000E+00 0.  1.
         13    1    4    4    0    0 -0.30451380775E+02  0.10325601342E+03 -0.29938244866E+03  0.31814924401E+03  0.00000000000E+00 0. -1.
         21    1    1    2  502  501  0.23609255476E+02 -0.40397707390E+01 -0.11055319764E+03  0.11311819570E+03  0.00000000000E+00 0.  1.
<scales pt_clust_5="13000.00000" pt_clust_6="13000.00000" pt_clust_7="13000.00000" pt_clust_8="13000.00000" pt_clust_9="23.95238"></scales>
<clustering>
<clus scale="   23.952">  2  9  1 -1</clus>
<clus scale="   91.598">  7  8 -1 -1</clus>
<clus scale="   96.588">  5  6 -1 -1</clus>
<clus scale="  125.371">  2  7  1 -1</clus>
<clus scale="   23.952">  2  5  1 -1</clus>
</clustering>
</event>
<event>
 9    1  0.1803370E-005  0.3219386E+03  0.7546771E-02  0.1074786E+00
         -2   -1    0    0    0  501 -0.00000000000E+00  0.00000000000E+00  0.14482078095E+03  0.14482078095E+03  0.00000000000E+00 0.  1.
          2   -1    0    0  502    0  0.00000000000E+00 -0.00000000000E+00 -0.14262246666E+04  0.14262246666E+04  0.00000000000E+00 0. -1.
         23    2    1    2    0    0  0.17830268445E+03 -0.26524128440E+03 -0.11250821127E+03  0.35085166083E+03  0.91071422912E+02 0.  0.
         23    2    1    2    0    0 -0.15192624404E+03  0.22234957542E+03 -0.82251624672E+03  0.87017361128E+03  0.90267493183E+02 0.  0.
        -13    1    4    4    0    0 -0.40845992795E+02  0.12347523375E+03 -0.46788313350E+03  0.48562244089E+03  0.00000000000E+00 0.  1.
         13    1    4    4    0    0 -0.11108025124E+03  0.98874341670E+02 -0.35463311322E+03  0.38455117039E+03  0.00000000000E+00 0. -1.
        -13    1    3    3    0    0  0.28868126408E+02 -0.26737768984E+02 -0.48065518889E+02  0.62117397873E+02  0.00000000000E+00 0. -1.
         13    1    3    3    0    0  0.14943455804E+03 -0.23850351542E+03 -0.64442692382E+02  0.28873426296E+03  0.00000000000E+00 0.  1.
         21    1    1    2  502  501 -0.26376440410E+02  0.42891708988E+02 -0.34637942771E+03  0.35002017549E+03  0.00000000000E+00 0.  1.
<scales pt_clust_5="13000.00000" pt_clust_6="13000.00000" pt_clust_7="13000.00000" pt_clust_8="13000.00000" pt_clust_9="50.35291"></scales>
<clustering>
<clus scale="   50.353">  2  9  1 -1</clus>
<clus scale="   90.267">  5  6 -1 -1</clus>
<clus scale="   91.071">  7  8 -1 -1</clus>
<clus scale="  321.712">  2  5  1 -1</clus>
<clus scale="   50.353">  2  5  1 -1</clus>
</clustering>
</event>
<event>
 9    1  0.1803370E-005  0.9664666E+02  0.7546771E-02  0.1287646E+00
          2   -1    0    0  502    0  0.00000000000E+00  0.00000000000E+00  0.50123343685E+03  0.50123343685E+03  0.00000000000E+00 0. -1.
         -2   -1    0    0    0  501 -0.00000000000E+00 -0.00000000000E+00 -0.26671642581E+02  0.26671642581E+02  0.00000000000E+00 0.  1.
         23    2    1    2    0    0 -0.19259426608E+02  0.17074005701E+02  0.14227774246E+03  0.17029246180E+03  0.89967323864E+02 0.  0.
         23    2    1    2    0    0  0.47066385261E+02 -0.21071819279E+02  0.26871308329E+03  0.28811098095E+03  0.90232754710E+02 0.  0.
        -11    1    3    3    0    0 -0.43062644651E+02  0.11180277797E+02  0.13851344039E+03  0.14548320571E+03  0.00000000000E+00 0. -1.
         11    1    3    3    0    0  0.23803218043E+02  0.58937279039E+01  0.37643020749E+01  0.24809256093E+02  0.00000000000E+00 0.  1.
        -13    1    4    4    0    0 -0.17742640928E+02  0.15923248743E+02  0.11237205997E+03  0.11487310834E+03  0.00000000000E+00 0. -1.
         13    1    4    4    0    0  0.64809026188E+02 -0.36995068022E+02  0.15634102332E+03  0.17323787261E+03  0.00000000000E+00 0.  1.
         21    1    1    2  502  501 -0.27806958653E+02  0.39978135779E+01  0.63570968519E+02  0.69501636681E+02  0.00000000000E+00 0. -1.
<scales pt_clust_5="13000.00000" pt_clust_6="13000.00000" pt_clust_7="13000.00000" pt_clust_8="13000.00000" pt_clust_9="28.09287"></scales>
<clustering>
<clus scale="   28.093">  1  9  2 -1</clus>
<clus scale="   89.967">  5  6 -1 -1</clus>
<clus scale="   90.233">  7  8 -1 -1</clus>
<clus scale="   96.399">  2  5  1 -1</clus>
<clus scale="   28.093">  1  5  2 -1</clus>
</clustering>
</event>
<event>
 9    1  0.1803370E-005  0.9645653E+02  0.7546771E-02  0.1289429E+00
          1   -1    0    0  502    0  0.00000000000E+00  0.00000000000E+00  0.26540652243E+03  0.26540652243E+03  0.00000000000E+00 0. -1.
         -1   -1    0    0    0  501 -0.00000000000E+00 -0.00000000000E+00 -0.46730607888E+02  0.46730607888E+02  0.00000000000E+00 0.  1.
         23    2    1    2    0    0  0.14085328918E+02 -0.29844614877E+02  0.59431698589E+02  0.11281800873E+03  0.90037096623E+02 0.  0.
         23    2    1    2    0    0  0.68232553410E+01  0.19040042320E+02  0.11464451630E+03  0.14889054940E+03  0.92822144764E+02 0.  0.
        -13    1    4    4    0    0 -0.81339058846E+01  0.54789437911E+02  0.57442108161E+02  0.79797485684E+02  0.00000000000E+00 0.  1.
         13    1    4    4    0    0  0.14957161226E+02 -0.35749395591E+02  0.57202408141E+02  0.69093063719E+02  0.00000000000E+00 0. -1.
        -13    1    3    3    0    0  0.47752163821E+02 -0.81853783626E+01  0.10457925165E+02  0.49564480904E+02  0.00000000000E+00 0.  1.
         13    1    3    3    0    0 -0.33666834903E+02 -0.21659236515E+02  0.48973773423E+02  0.63253527824E+02  0.00000000000E+00 0. -1.
         21    1    1    2  502  501 -0.20908584259E+02  0.10804572557E+02  0.44599699654E+02  0.50428572190E+02  0.00000000000E+00 0. -1.
<scales pt_clust_5="13000.00000" pt_clust_6="13000.00000" pt_clust_7="13000.00000" pt_clust_8="13000.00000" pt_clust_9="23.53524"></scales>
<clustering>
<clus scale="   23.535">  1  9  2 -1</clus>
<clus scale="   90.037">  7  8 -1 -1</clus>
<clus scale="   92.822">  5  6 -1 -1</clus>
<clus scale="   93.779">  2  7  1 -1</clus>
<clus scale="   23.535">  1  5  2 -1</clus>
</clustering>
</event>
<event>
 9    1  0.1803370E-005  0.1169595E+03  0.7546771E-02  0.1248465E+00
          2   -1    0    0  502    0  0.00000000000E+00  0.00000000000E+00  0.93245735471E+03  0.93245735471E+03  0.00000000000E+00 0. -1.
         -2   -1    0    0    0  501 -0.00000000000E+00 -0.00000000000E+00 -0.26495464842E+02  0.26495464842E+02  0.00000000000E+00 0.  1.
         23    2    1    2    0    0 -0.69763577031E+02 -0.64703665807E+01  0.14927824087E+03  0.18775644032E+03  0.89775639003E+02 0.  0.
         23    2    1    2    0    0  0.89872498213E+02  0.43273265472E-01  0.66244048981E+03  0.67461765853E+03  0.90578777078E+02 0.  0.
        -11    1    3    3    0    0 -0.20277726010E+02 -0.37540745960E+02  0.22671554102E+02  0.48316592851E+02  0.00000000000E+00 0.  1.
         11    1    3    3    0    0 -0.49485851021E+02  0.31070379379E+02  0.12660668677E+03  0.13943984747E+03  0.00000000000E+00 0. -1.
        -13    1    4    4    0    0  0.16315164380E+01  0.32351224230E+02  0.13188493071E+03  0.13580463359E+03  0.00000000000E+00 0.  1.
         13    1    4    4    0    0  0.88240981775E+02 -0.32307950965E+02  0.53055555909E+03  0.53881302494E+03  0.00000000000E+00 0. -1.
         21    1    1    2  502  501 -0.20108921182E+02  0.64270933152E+01  0.94243159184E+02  0.96578720702E+02  0.00000000000E+00 0.  1.
<scales pt_clust_5="13000.00000" pt_clust_6="13000.00000" pt_clust_7="13000.00000" pt_clust_8="13000.00000" pt_clust_9="21.11105"></scales>
<clustering>
<clus scale="   21.111">  1  9  2 -1</clus>
<clus scale="   89.776">  5  6 -1 -1</clus>
<clus scale="   90.579">  7  8 -1 -1</clus>
<clus scale="  116.339">  2  5  1 -1</clus>
<clus scale="   21.111">  1  5  2 -1</clus>
</clustering>
</event>
<event>
 9    1  0.1803370E-005  0.1659092E+03  0.7546771E-02  0.1182466E+00
         -1   -1    0    0    0  501 -0.00000000000E+00  0.00000000000E+00  0.45186157602E+03  0.45186157602E+03  0.00000000000E+00 0.  1.
          1   -1    0    0  502    0  0.00000000000E+00 -0.00000000000E+00 -0.16637418023E+03  0.16637418023E+03  0.00000000000E+00 0. -1.
         23    2    1    2    0    0 -0.81545844748E+02 -0.11191775985E+03  0.37403249634E+03  0.40972933420E+03  0.93821688429E+02 0.  0.
         23    2    1    2    0    0  0.59091551809E+02  0.11002715914E+03 -0.98654006831E+02  0.18380906128E+03  0.91953089679E+02 0.  0.
        -13    1    4    4    0    0  0.40898092565E+02  0.12479887819E+03 -0.79290827373E+02  0.15340941718E+03  0.00000000000E+00 0. -1.
         13    1    4    4    0    0  0.18193459243E+02 -0.14771719050E+02 -0.19363179458E+02  0.30399644104E+02  0.00000000000E+00 0.  1.
        -13    1    3    3    0    0 -0.39949865440E+02 -0.42086410795E+02  0.27765020612E+03  0.28364924587E+03  0.00000000000E+00 0.  1.
         13    1    3    3    0    0 -0.41595979308E+02 -0.69831349058E+02  0.96382290215E+02  0.12608008833E+03  0.00000000000E+00 0. -1.
         21    1    1    2  502  501  0.22454292939E+02  0.18906007142E+01  0.10108906286E+02  0.24697360765E+02  0.00000000000E+00 0.  1.
<scales pt_clust_5="13000.00000" pt_clust_6="13000.00000" pt_clust_7="13000.00000" pt_clust_8="13000.00000" pt_clust_9="22.53374"></scales>
<clustering>
<clus scale="   22.534">  2  9  1 -1</clus>
<clus scale="   91.953">  5  6 -1 -1</clus>
<clus scale="   93.822">  7  8 -1 -1</clus>
<clus scale="  164.860">  2  5  1 -1</clus>
<clus scale="   22.534">  2  5  1 -1</clus>
</clustering>
</event>
<event>
 9    1  0.1803370E-005  0.9681394E+02  0.7546771E-02  0.1288023E+00
         -2   -1    0    0    0  501 -0.00000000000E+00  0.00000000000E+00  0.12397877413E+03  0.12397877413E+03  0.00000000000E+00 0.  1.
          2   -1    0    0  502    0  0.00000000000E+00 -0.00000000000E+00 -0.10033301601E+03  0.10033301601E+03  0.00000000000E+00 0. -1.
         23    2    1    2    0    0 -0.57470869235E+01 -0.11570383522E+02  0.24203907127E+02  0.98472895359E+02  0.94573670846E+02 0.  0.
         23    2    1    2    0    0  0.29163223538E+02  0.13500579109E+02  0.12208075263E+02  0.99099081934E+02  0.92945315617E+02 0.  0.
        -11    1    4    4    0    0 -0.19310173327E+02 -0.26165407665E+02  0.16212799573E+02  0.36336843867E+02  0.00000000000E+00 0.  1.
         11    1    4    4    0    0  0.48473396865E+02  0.39665986774E+02 -0.40047243100E+01  0.62762238067E+02  0.00000000000E+00 0. -1.
        -13    1    3    3    0    0  0.25460347139E+02  0.27271889404E+00 -0.27151923975E+02  0.37222716553E+02  0.00000000000E+00 0. -1.
         13    1    3    3    0    0 -0.31207434062E+02 -0.11843102417E+02  0.51355831102E+02  0.61250178806E+02  0.00000000000E+00 0.  1.
         21    1    1    2  502  501 -0.23416136615E+02 -0.19301955866E+01 -0.12766224267E+02  0.26739812845E+02  0.00000000000E+00 0.  1.
<scales pt_clust_5="13000.00000" pt_clust_6="13000.00000" pt_clust_7="13000.00000" pt_clust_8="13000.00000" pt_clust_9="23.49556"></scales>
<clustering>
<clus scale="   23.496">  2  9  1 -1</clus>
<clus scale="   92.945">  5  6 -1 -1</clus>
<clus scale="   94.574">  7  8 -1 -1</clus>
<clus scale="   95.224">  2  5  1 -1</clus>
<clus scale="   23.496">  2  5  1 -1</clus>
</clustering>
</event>
<event>
 9    1  0.1803370E-005  0.1841505E+03  0.7546771E-02  0.1163938E+00
          1   -1    0    0  502    0  0.00000000000E+00  0.00000000000E+00  0.57261711004E+03  0.57261711004E+03  0.00000000000E+00 0. -1.
         -1   -1    0    0    0  501 -0.00000000000E+00 -0.00000000000E+00 -0.11328628431E+03  0.11328628431E+03  0.00000000000E+00 0.  1.
         23    2    1    2    0    0 -0.71819545578E+02  0.13781465633E+03  0.43696967804E+02  0.18519813545E+03  0.90763416373E+02 0.  0.
         23    2    1    2    0    0  0.13775992269E+03 -0.12355361745E+03  0.35331435545E+03  0.40886174550E+03  0.89964440092E+02 0.  0.
        -11    1    4    4    0    0 -0.73227313716E+01 -0.34658115176E+02  0.54538658963E+02  0.65032858340E+02  0.00000000000E+00 0.  1.
         11    1    4    4    0    0  0.14508265407E+03 -0.88895502275E+02  0.29877569649E+03  0.34382888716E+03  0.00000000000E+00 0. -1.
        -11    1    3    3    0    0  0.18966608520E+02  0.46635275281E+02  0.38118942572E+01  0.50488728218E+02  0.00000000000E+00 0. -1.
         11    1    3    3    0    0 -0.90786154098E+02  0.91179381052E+02  0.39885073547E+02  0.13470940723E+03  0.00000000000E+00 0.  1.
         21    1    1    2  502  501 -0.65940377117E+02 -0.14261038883E+02  0.62319502479E+02  0.91843513399E+02  0.00000000000E+00 0.  1.
<scales pt_clust_5="13000.00000" pt_clust_6="13000.00000" pt_clust_7="13000.00000" pt_clust_8="13000.00000" pt_clust_9="67.46488"></scales>
<clustering>
<clus scale="   67.465">  1  9  2 -1</clus>
<clus scale="   89.964">  5  6 -1 -1</clus>
<clus scale="   90.763">  7  8 -1 -1</clus>
<clus scale="  183.758">  1  5  2 -1</clus>
<clus scale="   67.465">  1  5  2 -1</clus>
</clustering>
</event>
<event>
 9    1  0.1803370E-005  0.9465781E+02  0.7546771E-02  0.1292238E+00
         -1   -1    0    0    0  501 -0.00000000000E+00  0.00000000000E+00  0.86849361010E+03  0.86849361010E+03  0.00000000000E+00 0.  1.
          1   -1    0    0  502    0  0.00000000000E+00 -0.00000000000E+00 -0.27483933755E+02  0.27483933755E+02  0.00000000000E+00 0. -1.
         23    2    1    2    0    0  0.30857434571E+01  0.21974878929E+01  0.34614317586E+03  0.35801281226E+03  0.91343991496E+02 0.  0.
         23    2    1    2    0    0  0.27030513305E+02  0.45813279054E+02  0.45896066278E+03  0.47087336222E+03  0.90814800973E+02 0.  0.
        -13    1    3    3    0    0  0.23951512823E+02 -0.37701372938E+02  0.20707062029E+03  0.21183321334E+03  0.00000000000E+00 0. -1.
         13    1    3    3    0    0 -0.20865769366E+02  0.39898860831E+02  0.13907255557E+03  0.14617959891E+03  0.00000000000E+00 0.  1.
        -13    1    4    4    0    0 -0.11296649376E+02  0.58887770339E+02  0.33899373896E+03  0.34425592055E+03  0.00000000000E+00 0.  1.
         13    1    4    4    0    0  0.38327162681E+02 -0.13074491285E+02  0.11996692382E+03  0.12661744166E+03  0.00000000000E+00 0. -1.
         21    1    1    2  502  501 -0.30116256762E+02 -0.48010766946E+02  0.35905837704E+02  0.67091369381E+02  0.00000000000E+00 0.  1.
<scales pt_clust_5="13000.00000" pt_clust_6="13000.00000" pt_clust_7="13000.00000" pt_clust_8="13000.00000" pt_clust_9="56.67471"></scales>
<clustering>
<clus scale="   56.675">  2  9  1 -1</clus>
<clus scale="   90.815">  7  8 -1 -1</clus>
<clus scale="   91.344">  5  6 -1 -1</clus>
<clus scale="   94.147">  2  7  1 -1</clus>
<clus scale="   56.675">  2  5  1 -1</clus>
</clustering>
</event>
<event>
 9    1  0.1803370E-005  0.1025647E+03  0.7546771E-02  0.1275152E+00
         -1   -1    0    0    0  501 -0.00000000000E+00  0.00000000000E+00  0.40130040557E+02  0.40130040557E+02  0.00000000000E+00 0.  1.
          1   -1    0    0  502    0  0.00000000000E+00 -0.00000000000E+00 -0.50261729580E+03  0.50261729580E+03  0.00000000000E+00 0. -1.
         23    2    1    2    0    0  0.94752414371E+01 -0.14755931954E+02 -0.76371324242E+02  0.12035685838E+03  0.91354674013E+02 0.  0.
         23    2    1    2    0    0 -0.57971787956E+02  0.11550910507E+02 -0.33288745461E+03  0.35031095324E+03  0.91703624768E+02 0.  0.
        -13    1    3    3    0    0 -0.26738463400E+02 -0.40535674982E+02 -0.40748009420E+02  0.63391534474E+02  0.00000000000E+00 0.  1.
         13    1    3    3    0    0  0.36213704837E+02  0.25779743028E+02 -0.35623314822E+02  0.56965323904E+02  0.00000000000E+00 0. -1.
        -13    1    4    4    0    0  0.10413339300E+02 -0.28158385094E+02 -0.92908273726E+02  0.97638515009E+02  0.00000000000E+00 0.  1.
         13    1    4    4    0    0 -0.68385127256E+02  0.39709295602E+02 -0.23997918088E+03  0.25267243823E+03  0.00000000000E+00 0. -1.
         21    1    1    2  502  501  0.48496546519E+02  0.32050214466E+01 -0.53228476391E+02  0.72079524732E+02  0.00000000000E+00 0. -1.
<scales pt_clust_5="13000.00000" pt_clust_6="13000.00000" pt_clust_7="13000.00000" pt_clust_8="13000.00000" pt_clust_9="48.60234"></scales>
<clustering>
<clus scale="   48.602">  1  9  2 -1</clus>
<clus scale="   91.355">  5  6 -1 -1</clus>
<clus scale="   91.704">  7  8 -1 -1</clus>
<clus scale="  102.253">  1  5  2 -1</clus>
<clus scale="  102.565">  2  5  1 -1</clus>
</clustering>
</event>
<event>
 9    1  0.1803370E-005  0.1066124E+03  0.7546771E-02  0.1268240E+00
         -3   -1    0    0    0  501 -0.00000000000E+00  0.00000000000E+00  0.13512358818E+03  0.13512358818E+03  0.00000000000E+00 0.  1.
          3   -1    0    0  502    0  0.00000000000E+00 -0.00000000000E+00 -0.22356048322E+03  0.22356048322E+03  0.00000000000E+00 0. -1.
         23    2    1    2    0    0 -0.22816699735E+02 -0.48029593721E+02  0.89703078496E+02  0.14032875948E+03  0.93904604715E+02 0.  0.
         23    2    1    2    0    0 -0.17895864171E+01  0.39067400362E+02 -0.12836357320E+03  0.16211048765E+03  0.90956796829E+02 0.  0.
        -13    1    3    3    0    0  0.27321088176E+02 -0.22920680041E+02  0.73925189683E+02  0.82077604146E+02  0.00000000000E+00 0.  1.
         13    1    3    3    0    0 -0.50137787911E+02 -0.25108913680E+02  0.15777888813E+02  0.58251155338E+02  0.00000000000E+00 0. -1.
        -13    1    4    4    0    0  0.71529765128E+01 -0.28206061261E+02 -0.54647114126E+02  0.61911663257E+02  0.00000000000E+00 0.  1.
         13    1    4    4    0    0 -0.89425629299E+01  0.67273461623E+02 -0.73716459076E+02  0.10019882439E+03  0.00000000000E+00 0. -1.
         21    1    1    2  502  501  0.24606286152E+02  0.89621933587E+01 -0.49776400334E+02  0.56244824279E+02  0.00000000000E+00 0.  1.
<scales pt_clust_5="13000.00000" pt_clust_6="13000.00000" pt_clust_7="13000.00000" pt_clust_8="13000.00000" pt_clust_9="26.18760"></scales>
<clustering>
<clus scale="   26.188">  2  9  1 -1</clus>
<clus scale="   90.957">  7  8 -1 -1</clus>
<clus scale="   93.905">  5  6 -1 -1</clus>
<clus scale="  104.025">  2  7  1 -1</clus>
<clus scale="   26.188">  2  5  1 -1</clus>
</clustering>
</event>
<event>
 9    1  0.1803370E-005  0.1857188E+03  0.7546771E-02  0.1164532E+00
         -2   -1    0    0    0  501 -0.00000000000E+00  0.00000000000E+00  0.51735668543E+02  0.51735668543E+02  0.00000000000E+00 0.  1.
          2   -1    0    0  502    0  0.00000000000E+00 -0.00000000000E+00 -0.82521278183E+03  0.82521278183E+03  0.00000000000E+00 0. -1.
         23    2    1    2    0    0 -0.15101786553E+03 -0.31225859596E+02 -0.22151885101E+03  0.27952602242E+03  0.72682500235E+02 0.  0.
         23    2    1    2    0    0  0.16657884967E+03  0.56344533655E+02 -0.49117641583E+03  0.52983896199E+03  0.92476129605E+02 0.  0.
        -13    1    4    4    0    0  0.16907265778E+03  0.33801109424E+02 -0.46026087421E+03  0.49149583003E+03  0.00000000000E+00 0. -1.
         13    1    4    4    0    0 -0.24938081140E+01  0.22543424232E+02 -0.30915541622E+02  0.38343131964E+02  0.00000000000E+00 0.  1.
        -13    1    3    3    0    0 -0.47247095968E+02 -0.25765567370E+02 -0.13134131380E+03  0.14193904766E+03  0.00000000000E+00 0. -1.
         13    1    3    3    0    0 -0.10377076957E+03 -0.54602922259E+01 -0.90177537211E+02  0.13758697477E+03  0.00000000000E+00 0.  1.
         21    1    1    2  502  501 -0.15560984132E+02 -0.25118674060E+02 -0.60781846447E+02  0.67583465960E+02  0.00000000000E+00 0.  1.
<scales pt_clust_5="13000.00000" pt_clust_6="13000.00000" pt_clust_7="13000.00000" pt_clust_8="13000.00000" pt_clust_9="29.54813"></scales>
<clustering>
<clus scale="   29.548">  2  9  1 -1</clus>
<clus scale="   72.683">  7  8 -1 -1</clus>
<clus scale="   92.476">  5  6 -1 -1</clus>
<clus scale="  176.699">  1  7  2 -1</clus>
<clus scale="   29.548">  2  5  1 -1</clus>
</clustering>
</event>
<event>
 9    1  0.1803370E-005  0.1071680E+03  0.7546771E-02  0.1267639E+00
         -1   -1    0    0    0  501 -0.00000000000E+00  0.00000000000E+00  0.72610701011E+02  0.72610701011E+02  0.00000000000E+00 0.  1.
          1   -1    0    0  502    0  0.00000000000E+00 -0.00000000000E+00 -0.21159592617E+03  0.21159592617E+03  0.00000000000E+00 0. -1.
         23    2    1    2    0    0  0.50553265987E+02 -0.34432720721E+02 -0.41267995061E+02  0.12110863166E+03  0.96036494567E+02 0.  0.
         23    2    1    2    0    0 -0.20606849687E+02  0.26621519938E+02 -0.62673579666E+02  0.11634481229E+03  0.92058623603E+02 0.  0.
        -11    1    4    4    0    0  0.56784492418E+01 -0.32416197180E+02 -0.26725124839E+02  0.42394420896E+02  0.00000000000E+00 0.  1.
         11    1    4    4    0    0 -0.26285298929E+02  0.59037717118E+02 -0.35948454826E+02  0.73950391390E+02  0.00000000000E+00 0. -1.
        -13    1    3    3    0    0  0.22751167105E+02 -0.61757258796E+02 -0.21000390410E+01  0.65848194983E+02  0.00000000000E+00 0.  1.
         13    1    3    3    0    0  0.27802098882E+02  0.27324538075E+02 -0.39167956020E+02  0.55260436680E+02  0.00000000000E+00 0. -1.
         21    1    1    2  502  501 -0.29946416300E+02  0.78112007825E+01 -0.35043650434E+02  0.46753183235E+02  0.00000000000E+00 0.  1.
<scales pt_clust_5="13000.00000" pt_clust_6="13000.00000" pt_clust_7="13000.00000" pt_clust_8="13000.00000" pt_clust_9="30.94839"></scales>
<clustering>
<clus scale="   30.948">  2  9  1 -1</clus>
<clus scale="   92.059">  5  6 -1 -1</clus>
<clus scale="   96.036">  7  8 -1 -1</clus>
<clus scale="  103.618">  2  5  1 -1</clus>
<clus scale="   30.948">  2  5  1 -1</clus>
</clustering>
</event>
<event>
 9    1  0.1803370E-005  0.1123024E+03  0.7546771E-02  0.1260132E+00
          1   -1    0    0  502    0  0.00000000000E+00  0.00000000000E+00  0.40830196119E+03  0.40830196119E+03  0.00000000000E+00 0. -1.
         -1   -1    0    0    0  501 -0.00000000000E+00 -0.00000000000E+00 -0.20920693369E+03  0.20920693369E+03  0.00000000000E+00 0.  1.
         23    2    1    2    0    0 -0.42425483871E+02 -0.25887018637E+02 -0.17459854645E+03  0.20740757976E+03  0.10031546394E+03 0.  0.
         23    2    1    2    0    0  0.70974804123E+02 -0.23360097124E+01  0.19278962518E+03  0.22479658854E+03  0.91229309325E+02 0.  0.
        -11    1    4    4    0    0 -0.27345446740E+01  0.30490883816E+02  0.83595580399E+02  0.89024675190E+02  0.00000000000E+00 0.  1.
         11    1    4    4    0    0  0.73709348797E+02 -0.32826893528E+02  0.10919404478E+03  0.13577191335E+03  0.00000000000E+00 0. -1.
        -13    1    3    3    0    0 -0.46137078839E+02 -0.57860868216E+02 -0.14868780211E+03  0.16608603978E+03  0.00000000000E+00 0.  1.
         13    1    3    3    0    0  0.37115949677E+01  0.31973849579E+02 -0.25910744333E+02  0.41321539976E+02  0.00000000000E+00 0. -1.
         21    1    1    2  502  501 -0.28549320252E+02  0.28223028350E+02  0.18090394876E+03  0.18530472658E+03  0.00000000000E+00 0. -1.
<scales pt_clust_5="13000.00000" pt_clust_6="13000.00000" pt_clust_7="13000.00000" pt_clust_8="13000.00000" pt_clust_9="40.14478"></scales>
<clustering>
<clus scale="   40.145">  1  9  2 -1</clus>
<clus scale="   91.229">  5  6 -1 -1</clus>
<clus scale="  100.315">  7  8 -1 -1</clus>
<clus scale="  104.266">  1  5  2 -1</clus>
<clus scale="   40.145">  1  5  2 -1</clus>
</clustering>
</event>
<event>
 9    1  0.1803370E-005  0.1055624E+03  0.7546771E-02  0.1269297E+00
         -1   -1    0    0    0  501 -0.00000000000E+00  0.00000000000E+00  0.50582515933E+02  0.50582515933E+02  0.00000000000E+00 0.  1.
          1   -1    0    0  502    0  0.00000000000E+00 -0.00000000000E+00 -0.31892592940E+03  0.31892592940E+03  0.00000000000E+00 0. -1.
         23    2    1    2    0    0 -0.47085115167E+02 -0.44086698847E+01 -0.57170729701E+02  0.11774063711E+03  0.91421665108E+02 0.  0.
         23    2    1    2    0    0  0.60889651649E+02 -0.16537123043E+02 -0.16478907261E+03  0.19903517267E+03  0.92078962810E+02 0.  0.
        -13    1    4    4    0    0 -0.22969614876E+02 -0.14438112689E+02 -0.31807882729E+02  0.41806742390E+02  0.00000000000E+00 0. -1.
         13    1    4    4    0    0  0.83859266525E+02 -0.20990103544E+01 -0.13298118988E+03  0.15722843028E+03  0.00000000000E+00 0.  1.
        -13    1    3    3    0    0 -0.26684039505E+02 -0.10192817469E+01  0.22816203218E+02  0.35123439878E+02  0.00000000000E+00 0.  1.
         13    1    3    3    0    0 -0.20401075662E+02 -0.33893881377E+01 -0.79986932919E+02  0.82617197228E+02  0.00000000000E+00 0. -1.
         21    1    1    2  502  501 -0.13804536482E+02  0.20945792928E+02 -0.46383611162E+02  0.52732635562E+02  0.00000000000E+00 0. -1.
<scales pt_clust_5="13000.00000" pt_clust_6="13000.00000" pt_clust_7="13000.00000" pt_clust_8="13000.00000" pt_clust_9="25.08568"></scales>
<clustering>
<clus scale="   25.086">  2  9  1 -1</clus>
<clus scale="   91.422">  7  8 -1 -1</clus>
<clus scale="   92.079">  5  6 -1 -1</clus>
<clus scale="  104.990">  1  7  2 -1</clus>
<clus scale="   25.086">  2  5  1 -1</clus>
</clustering>
</event>
<event>
 9    1  0.1803370E-005  0.1989061E+03  0.7546771E-02  0.1150933E+00
          1   -1    0    0  502    0  0.00000000000E+00  0.00000000000E+00  0.83469204118E+03  0.83469204118E+03  0.00000000000E+00 0. -1.
         -1   -1    0    0    0  501 -0.00000000000E+00 -0.00000000000E+00 -0.12274278487E+03  0.12274278487E+03  0.00000000000E+00 0.  1.
         23    2    1    2    0    0 -0.15211895046E+03 -0.52388726835E+02  0.43894175626E+02  0.18973371792E+03  0.90484425594E+02 0.  0.
         23    2    1    2    0    0  0.22547316562E+03  0.33704229372E+01  0.28763495042E+03  0.37718464175E+03  0.93192709484E+02 0.  0.
        -11    1    4    4    0    0  0.58706544882E+02  0.79645714186E+01  0.21386053150E+02  0.62986157838E+02  0.00000000000E+00 0.  1.
         11    1    4    4    0    0  0.16676662074E+03 -0.45941484814E+01  0.26624889727E+03  0.31419848391E+03  0.00000000000E+00 0. -1.
        -13    1    3    3    0    0 -0.33616003855E+02 -0.48852523489E+02  0.39197943818E+02  0.71085044601E+02  0.00000000000E+00 0. -1.
         13    1    3    3    0    0 -0.11850294660E+03 -0.35362033457E+01  0.46962318083E+01  0.11864867332E+03  0.00000000000E+00 0.  1.
         21    1    1    2  502  501 -0.73354215159E+02  0.49018303897E+02  0.38042013027E+03  0.39051646638E+03  0.00000000000E+00 0.  1.
<scales pt_clust_5="13000.00000" pt_clust_6="13000.00000" pt_clust_7="13000.00000" pt_clust_8="13000.00000" pt_clust_9="88.22491"></scales>
<clustering>
<clus scale="   88.225">  1  9  2 -1</clus>
<clus scale="   90.484">  7  8 -1 -1</clus>
<clus scale="   93.193">  5  6 -1 -1</clus>
<clus scale="  197.652">  2  7  1 -1</clus>
<clus scale="   88.225">  1  5  2 -1</clus>
</clustering>
</event>
<event>
 9    1  0.1803370E-005  0.1146763E+03  0.7546771E-02  0.1260176E+00
         -1   -1    0    0    0  501 -0.00000000000E+00  0.00000000000E+00  0.42867529468E+02  0.42867529468E+02  0.00000000000E+00 0.  1.
          1   -1    0    0  502    0  0.00000000000E+00 -0.00000000000E+00 -0.53999874916E+03  0.53999874916E+03  0.00000000000E+00 0. -1.
         23    2    1    2    0    0 -0.26811598721E+01  0.41336449663E+02 -0.72588866194E+02  0.13783722172E+03  0.10960869267E+03 0.  0.
         23    2    1    2    0    0  0.16364271806E+02 -0.13435385701E+02 -0.23922476201E+03  0.25712401004E+03  0.91847541062E+02 0.  0.
        -11    1    3    3    0    0  0.46541976852E+02  0.39954109484E+02 -0.17160009988E+02  0.63694210229E+02  0.00000000000E+00 0.  1.
         11    1    3    3    0    0 -0.49223136724E+02  0.13823401785E+01 -0.55428856206E+02  0.74143011495E+02  0.00000000000E+00 0. -1.
        -13    1    4    4    0    0 -0.50738000607E+01  0.32340252583E+02 -0.15876024885E+03  0.16210012955E+03  0.00000000000E+00 0.  1.
         13    1    4    4    0    0  0.21438071867E+02 -0.45775638284E+02 -0.80464513157E+02  0.95023880489E+02  0.00000000000E+00 0. -1.
         21    1    1    2  502  501 -0.13683111934E+02 -0.27901063961E+02 -0.18531759149E+03  0.18790504686E+03  0.00000000000E+00 0. -1.
<scales pt_clust_5="13000.00000" pt_clust_6="13000.00000" pt_clust_7="13000.00000" pt_clust_8="13000.00000" pt_clust_9="31.07566"></scales>
<clustering>
<clus scale="   31.076">  2  9  1 -1</clus>
<clus scale="   91.848">  7  8 -1 -1</clus>
<clus scale="   97.839">  2  7  1 -1</clus>
<clus scale="  109.609">  5  6 -1 -1</clus>
<clus scale="   31.076">  2  5  1 -1</clus>
</clustering>
</event>
<event>
 9    1  0.1803370E-005  0.1640009E+03  0.7546771E-02  0.1203877E+00
          1   -1    0    0  502    0  0.00000000000E+00  0.00000000000E+00  0.11370387562E+04  0.11370387562E+04  0.00000000000E+00 0. -1.
         -1   -1    0    0    0  501 -0.00000000000E+00 -0.00000000000E+00 -0.60421410384E+02  0.60421410384E+02  0.00000000000E+00 0.  1.
         23    2    1    2    0    0 -0.10442159961E+01 -0.41145961155E+02  0.11295368272E+03  0.15532669631E+03  0.98355313228E+02 0.  0.
         23    2    1    2    0    0  0.62017605794E+02 -0.89123422643E+02  0.11437849306E+03  0.18075482724E+03  0.88321571578E+02 0.  0.
        -11    1    3    3    0    0 -0.21391913439E+02 -0.68314790391E+02  0.86578423369E+02  0.11234032197E+03  0.00000000000E+00 0. -1.
         11    1    3    3    0    0  0.20347697443E+02  0.27168829236E+02  0.26375259350E+02  0.42986374342E+02  0.00000000000E+00 0.  1.
        -11    1    4    4    0    0  0.19175310145E+02 -0.93401644710E+02  0.65842171826E+02  0.11587385962E+03  0.00000000000E+00 0.  1.
         11    1    4    4    0    0  0.42842295649E+02  0.42782220670E+01  0.48536321231E+02  0.64880967619E+02  0.00000000000E+00 0. -1.
         21    1    1    2  502  501 -0.60973389798E+02  0.13026938380E+03  0.84928517000E+03  0.86137864299E+03  0.00000000000E+00 0. -1.
<scales pt_clust_5="13000.00000" pt_clust_6="13000.00000" pt_clust_7="13000.00000" pt_clust_8="13000.00000" pt_clust_9="138.18677"></scales>
<clustering>
<clus scale="   88.322">  7  8 -1 -1</clus>
<clus scale="   98.355">  5  6 -1 -1</clus>
<clus scale="  106.620">  2  5  1 -1</clus>
<clus scale="  138.187">  1  9  2 -1</clus>
<clus scale="  138.187">  1  5  2 -1</clus>
</clustering>
</event>
<event>
 9    1  0.1803370E-005  0.9405992E+02  0.7546771E-02  0.1295545E+00
         -2   -1    0    0    0  501 -0.00000000000E+00  0.00000000000E+00  0.13604314262E+03  0.13604314262E+03  0.00000000000E+00 0.  1.
          2   -1    0    0  502    0  0.00000000000E+00 -0.00000000000E+00 -0.13736406626E+03  0.13736406626E+03  0.00000000000E+00 0. -1.
         23    2    1    2    0    0 -0.35119805782E+02 -0.12167592268E+01  0.30097836962E+02  0.10074483117E+03  0.89491675342E+02 0.  0.
         23    2    1    2    0    0 -0.26452649797E+02  0.16513857633E+02  0.66876880965E+01  0.98653797546E+02  0.93356287539E+02 0.  0.
        -11    1    3    3    0    0  0.47622584742E+01  0.34902098884E+02 -0.62989535818E+01  0.35784248329E+02  0.00000000000E+00 0. -1.
         11    1    3    3    0    0 -0.39882064256E+02 -0.36118858110E+02  0.36396790544E+02  0.64960582836E+02  0.00000000000E+00 0.  1.
        -11    1    4    4    0    0 -0.54220422090E+02  0.34707833287E+02  0.10535620510E+02  0.65234095093E+02  0.00000000000E+00 0.  1.
         11    1    4    4    0    0  0.27767772293E+02 -0.18193975654E+02 -0.38479324136E+01  0.33419702453E+02  0.00000000000E+00 0. -1.
         21    1    1    2  502  501  0.61572455578E+02 -0.15297098406E+02 -0.38106448703E+02  0.74008580167E+02  0.00000000000E+00 0. -1.
<scales pt_clust_5="13000.00000" pt_clust_6="13000.00000" pt_clust_7="13000.00000" pt_clust_8="13000.00000" pt_clust_9="63.44422"></scales>
<clustering>
<clus scale="   63.444">  2  9  1 -1</clus>
<clus scale="   89.492">  5  6 -1 -1</clus>
<clus scale="   90.225">  1  5  2 -1</clus>
<clus scale="   93.356">  7  8 -1 -1</clus>
<clus scale="   63.444">  2  5  1 -1</clus>
</clustering>
</event>
<event>
 9    1  0.1803370E-005  0.1011113E+03  0.7546771E-02  0.1278792E+00
         -3   -1    0    0    0  501 -0.00000000000E+00  0.00000000000E+00  0.46075518754E+02  0.46075518754E+02  0.00000000000E+00 0.  1.
          3   -1    0    0  502    0  0.00000000000E+00 -0.00000000000E+00 -0.31615104726E+03  0.31615104726E+03  0.00000000000E+00 0. -1.
         23    2    1    2    0    0 -0.40343441240E+01 -0.51388225155E+02 -0.87641652550E+02  0.13845032560E+03  0.93970249440E+02 0.  0.
         23    2    1    2    0    0 -0.46528034117E+01  0.21160770312E+02 -0.11262667284E+03  0.14721116244E+03  0.92287226264E+02 0.  0.
        -11    1    3    3    0    0  0.42738010318E+02 -0.38889786495E+02 -0.56931746716E+02  0.81118288959E+02  0.00000000000E+00 0. -1.
         11    1    3    3    0    0 -0.46772354442E+02 -0.12498438660E+02 -0.30709905834E+02  0.57332036640E+02  0.00000000000E+00 0.  1.
        -13    1    4    4    0    0  0.19676936950E+01 -0.23975618249E+02 -0.95499356064E+02  0.98482633482E+02  0.00000000000E+00 0. -1.
         13    1    4    4    0    0 -0.66204971067E+01  0.45136388561E+02 -0.17127316776E+02  0.48728528956E+02  0.00000000000E+00 0.  1.
         21    1    1    2  502  501  0.86871475357E+01  0.30227454843E+02 -0.69807203115E+02  0.76565077975E+02  0.00000000000E+00 0.  1.
<scales pt_clust_5="13000.00000" pt_clust_6="13000.00000" pt_clust_7="13000.00000" pt_clust_8="13000.00000" pt_clust_9="31.45100"></scales>
<clustering>
<clus scale="   31.451">  2  9  1 -1</clus>
<clus scale="   92.287">  7  8 -1 -1</clus>
<clus scale="   93.970">  5  6 -1 -1</clus>
<clus scale="   99.549">  2  7  1 -1</clus>
<clus scale="   31.451">  2  5  1 -1</clus>
</clustering>
</event>
<event>
 9    1  0.1803370E-005  0.1096224E+03  0.7546771E-02  0.1261421E+00
         -3   -1    0    0    0  501 -0.00000000000E+00  0.00000000000E+00  0.20591637455E+03  0.20591637455E+03  0.00000000000E+00 0.  1.
          3   -1    0    0  502    0  0.00000000000E+00 -0.00000000000E+00 -0.10022927510E+03  0.10022927510E+03  0.00000000000E+00 0. -1.
         23    2    1    2    0    0 -0.51407694121E+02  0.22149745341E+02  0.10149907323E+03  0.14744210826E+03  0.91124920798E+02 0.  0.
         23    2    1    2    0    0  0.54961032982E+02 -0.43015992316E+02  0.35915560710E+02  0.12056349780E+03  0.91512506021E+02 0.  0.
        -11    1    3    3    0    0 -0.54086296369E+02  0.52405342861E+02  0.82061846066E+02  0.11138130002E+03  0.00000000000E+00 0.  1.
         11    1    3    3    0    0  0.26786022483E+01 -0.30255597520E+02  0.19437227160E+02  0.36060808241E+02  0.00000000000E+00 0. -1.
        -11    1    4    4    0    0  0.92043004376E+01  0.20849522557E+02  0.35273492001E+02  0.41995725679E+02  0.00000000000E+00 0.  1.
         11    1    4    4    0    0  0.45756732545E+02 -0.63865514873E+02  0.64206870877E+00  0.78567772116E+02  0.00000000000E+00 0. -1.
         21    1    1    2  502  501 -0.35533388618E+01  0.20866246975E+02 -0.31727534493E+02  0.38140043588E+02  0.00000000000E+00 0. -1.
<scales pt_clust_5="13000.00000" pt_clust_6="13000.00000" pt_clust_7="13000.00000" pt_clust_8="13000.00000" pt_clust_9="21.16664"></scales>
<clustering>
<clus scale="   21.167">  2  9  1 -1</clus>
<clus scale="   91.125">  5  6 -1 -1</clus>
<clus scale="   91.513">  7  8 -1 -1</clus>
<clus scale="  109.299">  1  5  2 -1</clus>
<clus scale="   21.167">  2  5  1 -1</clus>
</clustering>
</event>
<event>
 9    1  0.1803370E-005  0.9652454E+02  0.7546771E-02  0.1288417E+00
         -1   -1    0    0    0  501 -0.00000000000E+00  0.00000000000E+00  0.12359645443E+03  0.12359645443E+03  0.00000000000E+00 0.  1.
          1   -1    0    0  502    0  0.00000000000E+00 -0.00000000000E+00 -0.20455436594E+03  0.20455436594E+03  0.00000000000E+00 0. -1.
         23    2    1    2    0    0 -0.21616277940E+02  0.21644272468E+02  0.79303045754E+02  0.12568214767E+03  0.92581267945E+02 0.  0.
         23    2    1    2    0    0  0.69744645260E+00 -0.15305606345E+02 -0.91120210614E+02  0.12995509434E+03  0.91382086574E+02 0.  0.
        -11    1    3    3    0    0 -0.37146969008E+02  0.48599431335E+02  0.31915609227E+02  0.68995711062E+02  0.00000000000E+00 0.  1.
         11    1    3    3    0    0  0.15530691069E+02 -0.26955158868E+02  0.47387436526E+02  0.56686436607E+02  0.00000000000E+00 0. -1.
        -11    1    4    4    0    0 -0.11242309200E+02  0.32609513214E+02 -0.11677714346E+02  0.36416189814E+02  0.00000000000E+00 0.  1.
         11    1    4    4    0    0  0.11939755653E+02 -0.47915119559E+02 -0.79442496268E+02  0.93538904530E+02  0.00000000000E+00 0. -1.
         21    1    1    2  502  501  0.20918831487E+02 -0.63386661230E+01 -0.69140746648E+02  0.72513578356E+02  0.00000000000E+00 0. -1.
<scales pt_clust_5="13000.00000" pt_clust_6="13000.00000" pt_clust_7="13000.00000" pt_clust_8="13000.00000" pt_clust_9="21.85809"></scales>
<clustering>
<clus scale="   21.858">  2  9  1 -1</clus>
<clus scale="   91.382">  7  8 -1 -1</clus>
<clus scale="   92.581">  5  6 -1 -1</clus>
<clus scale="   95.375">  2  7  1 -1</clus>
<clus scale="   21.858">  2  5  1 -1</clus>
</clustering>
</event>
<event>
 9    1  0.1803370E-005  0.1129371E+03  0.7546771E-02  0.1258922E+00
          1   -1    0    0  502    0  0.00000000000E+00  0.00000000000E+00  0.69181465577E+02  0.69181465577E+02  0.00000000000E+00 0. -1.
         -1   -1    0    0    0  501 -0.00000000000E+00 -0.00000000000E+00 -0.29497541175E+03  0.29497541175E+03  0.00000000000E+00 0.  1.
         23    2    1    2    0    0 -0.25967752741E+02  0.42604198743E+02 -0.16450466223E+03  0.19368737509E+03  0.89238856124E+02 0.  0.
         23    2    1    2    0    0  0.60975576270E+02 -0.42578063797E+02 -0.54069981200E+02  0.13472503801E+03  0.98470099931E+02 0.  0.
        -13    1    4    4    0    0 -0.16673549906E+02 -0.39778202941E+02 -0.64956647655E+01  0.43617729841E+02  0.00000000000E+00 0. -1.
         13    1    4    4    0    0  0.77649126177E+02 -0.27998608565E+01 -0.47574316435E+02  0.91107308165E+02  0.00000000000E+00 0.  1.
        -13    1    3    3    0    0 -0.54659717722E+02  0.46132216345E+02 -0.99456555124E+02  0.12250498963E+03  0.00000000000E+00 0.  1.
         13    1    3    3    0    0  0.28691964981E+02 -0.35280176027E+01 -0.65048107102E+02  0.71182385463E+02  0.00000000000E+00 0. -1.
         21    1    1    2  502  501 -0.35007823529E+02 -0.26134945123E-01 -0.72193027501E+01  0.35744464235E+02  0.00000000000E+00 0. -1.
<scales pt_clust_5="13000.00000" pt_clust_6="13000.00000" pt_clust_7="13000.00000" pt_clust_8="13000.00000" pt_clust_9="35.00783"></scales>
<clustering>
<clus scale="   35.008">  1  9  2 -1</clus>
<clus scale="   89.239">  7  8 -1 -1</clus>
<clus scale="   98.470">  5  6 -1 -1</clus>
<clus scale="  104.986">  2  7  1 -1</clus>
<clus scale="   35.008">  1  5  2 -1</clus>
</clustering>
</event>
<event>
 9    1  0.1803370E-005  0.1250154E+03  0.7546771E-02  0.1235862E+00
          1   -1    0    0  502    0  0.00000000000E+00  0.00000000000E+00  0.96578068694E+02  0.96578068694E+02  0.00000000000E+00 0. -1.
         -1   -1    0    0    0  501 -0.00000000000E+00 -0.00000000000E+00 -0.43710025043E+03  0.43710025043E+03  0.00000000000E+00 0.  1.
         23    2    1    2    0    0  0.43182209495E+01 -0.78219819371E+02 -0.31734408175E+03  0.33895850094E+03  0.89714056641E+02 0.  0.
         23    2    1    2    0    0  0.78624523675E+01  0.11864084196E+03 -0.23600984610E+02  0.15250125946E+03  0.92531941102E+02 0.  0.
        -11    1    3    3    0    0 -0.39112113799E+02 -0.41552732695E+02 -0.10943061456E+03  0.12341574634E+03  0.00000000000E+00 0. -1.
         11    1    3    3    0    0  0.43430334748E+02 -0.36667086676E+02 -0.20791346719E+03  0.21554275460E+03  0.00000000000E+00 0.  1.
        -13    1    4    4    0    0  0.44989096690E+02  0.53706203951E+02 -0.32395362482E+02  0.77187011046E+02  0.00000000000E+00 0.  1.
         13    1    4    4    0    0 -0.37126644323E+02  0.64934638009E+02  0.87943778724E+01  0.75314248414E+02  0.00000000000E+00 0. -1.
         21    1    1    2  502  501 -0.12180673317E+02 -0.40421022589E+02  0.42288462777E+00  0.42218558728E+02  0.00000000000E+00 0. -1.
<scales pt_clust_5="13000.00000" pt_clust_6="13000.00000" pt_clust_7="13000.00000" pt_clust_8="13000.00000" pt_clust_9="42.21644"></scales>
<clustering>
<clus scale="   42.216">  1  9  2 -1</clus>
<clus scale="   89.714">  5  6 -1 -1</clus>
<clus scale="   92.532">  7  8 -1 -1</clus>
<clus scale="  122.944">  2  5  1 -1</clus>
<clus scale="   42.216">  1  5  2 -1</clus>
</clustering>
</event>
<event>
 9    1  0.1803370E-005  0.1091122E+03  0.7546771E-02  0.1263478E+00
          2   -1    0    0  502    0  0.00000000000E+00  0.00000000000E+00  0.39744064842E+03  0.39744064842E+03  0.00000000000E+00 0. -1.
         -2   -1    0    0    0  501 -0.00000000000E+00 -0.00000000000E+00 -0.46610732401E+02  0.46610732401E+02  0.00000000000E+00 0.  1.
         23    2    1    2    0    0  0.35010909955E+02 -0.46497075940E+02  0.61981432059E+02  0.12705161204E+03  0.94406950564E+02 0.  0.
         23    2    1    2    0    0 -0.86085572010E+01  0.49118082145E+02  0.23115375646E+03  0.25349673353E+03  0.91333682373E+02 0.  0.
        -11    1    3    3    0    0 -0.23961413558E+02 -0.44273709314E+02  0.18046617012E+02  0.53478884260E+02  0.00000000000E+00 0. -1.
         11    1    3    3    0    0  0.58972323512E+02 -0.22233666261E+01  0.43934815047E+02  0.73572727779E+02  0.00000000000E+00 0.  1.
        -13    1    4    4    0    0 -0.29869103919E+02 -0.13333136893E+02  0.11865933313E+03  0.12308522757E+03  0.00000000000E+00 0. -1.
         13    1    4    4    0    0  0.21260546718E+02  0.62451219037E+02  0.11249442333E+03  0.13041150596E+03  0.00000000000E+00 0.  1.
         21    1    1    2  502  501 -0.26402352754E+02 -0.26210062045E+01  0.57694727509E+02  0.63503035256E+02  0.00000000000E+00 0.  1.
<scales pt_clust_5="13000.00000" pt_clust_6="13000.00000" pt_clust_7="13000.00000" pt_clust_8="13000.00000" pt_clust_9="26.53213"></scales>
<clustering>
<clus scale="   26.532">  1  9  2 -1</clus>
<clus scale="   91.334">  7  8 -1 -1</clus>
<clus scale="   94.407">  5  6 -1 -1</clus>
<clus scale="  106.464">  1  7  2 -1</clus>
<clus scale="   26.532">  1  5  2 -1</clus>
</clustering>
</event>
<event>
 9    1  0.1803370E-005  0.1520818E+03  0.7546771E-02  0.1198688E+00
         -1   -1    0    0    0  501 -0.00000000000E+00  0.00000000000E+00  0.11585741420E+03  0.11585741420E+03  0.00000000000E+00 0.  1.
          1   -1    0    0  502    0  0.00000000000E+00 -0.00000000000E+00 -0.69756957262E+03  0.69756957262E+03  0.00000000000E+00 0. -1.
         23    2    1    2    0    0  0.61941844053E+02 -0.98418126415E+02  0.45056745996E+02  0.15708571779E+03  0.95513835243E+02 0.  0.
         23    2    1    2    0    0 -0.66873980905E+02  0.11831247175E+03 -0.45991015079E+03  0.48822834682E+03  0.91540163568E+02 0.  0.
        -13    1    4    4    0    0 -0.28763115274E+02  0.12220951766E+03 -0.35219716814E+03  0.37390550712E+03  0.00000000000E+00 0. -1.
         13    1    4    4    0    0 -0.38110865631E+02 -0.38970459165E+01 -0.10771298265E+03  0.11432283970E+03  0.00000000000E+00 0.  1.
        -13    1    3    3    0    0  0.20753126747E+02 -0.85585530849E+02  0.65100346022E+02  0.10951543459E+03  0.00000000000E+00 0.  1.
         13    1    3    3    0    0  0.41188717307E+02 -0.12832595567E+02 -0.20043600025E+02  0.47570283206E+02  0.00000000000E+00 0. -1.
         21    1    1    2  502  501  0.49321368515E+01 -0.19894345332E+02 -0.16685875363E+03  0.16811292220E+03  0.00000000000E+00 0. -1.
<scales pt_clust_5="13000.00000" pt_clust_6="13000.00000" pt_clust_7="13000.00000" pt_clust_8="13000.00000" pt_clust_9="20.49661"></scales>
<clustering>
<clus scale="   20.497">  2  9  1 -1</clus>
<clus scale="   91.540">  5  6 -1 -1</clus>
<clus scale="   95.514">  7  8 -1 -1</clus>
<clus scale="  149.618">  2  5  1 -1</clus>
<clus scale="   20.497">  2  5  1 -1</clus>
</clustering>
</event>
<event>
 9    1  0.1803370E-005  0.9522584E+02  0.7546771E-02  0.1291169E+00
         -2   -1    0    0    0  501 -0.00000000000E+00  0.00000000000E+00  0.10305774050E+03  0.10305774050E+03  0.00000000000E+00 0. -1.
          2   -1    0    0  502    0  0.00000000000E+00 -0.00000000000E+00 -0.33867694593E+03  0.33867694593E+03  0.00000000000E+00 0.  1.
         23    2    1    2    0    0  0.11460626115E+02  0.20236753186E+02  0.49854620033E+02  0.10591989484E+03  0.90513362849E+02 0.  0.
         23    2    1    2    0    0  0.21662217146E+02 -0.67964867560E+02 -0.21675465964E+03  0.24582912940E+03  0.91437976309E+02 0.  0.
        -11    1    4    4    0    0 -0.20918918431E+02 -0.70243400377E+02 -0.13400602949E+03  0.15273949190E+03  0.00000000000E+00 0. -1.
         11    1    4    4    0    0  0.42581135577E+02  0.22785328171E+01 -0.82748630152E+02  0.93089637506E+02  0.00000000000E+00 0.  1.
        -11    1    3    3    0    0 -0.12866598913E+02 -0.32556604134E+02  0.14552825781E+02  0.37911298824E+02  0.00000000000E+00 0.  1.
         11    1    3    3    0    0  0.24327225028E+02  0.52793357321E+02  0.35301794252E+02  0.68008596017E+02  0.00000000000E+00 0. -1.
         21    1    1    2  502  501 -0.33122843261E+02  0.47728114374E+02 -0.68719165826E+02  0.89985662187E+02  0.00000000000E+00 0. -1.
<scales pt_clust_5="13000.00000" pt_clust_6="13000.00000" pt_clust_7="13000.00000" pt_clust_8="13000.00000" pt_clust_9="58.09557"></scales>
<clustering>
<clus scale="   58.096">  2  9  1 -1</clus>
<clus scale="   90.513">  7  8 -1 -1</clus>
<clus scale="   91.438">  5  6 -1 -1</clus>
<clus scale="   94.338">  1  7  2 -1</clus>
<clus scale="   58.096">  2  5  1 -1</clus>
</clustering>
</event>
<event>
 9    1  0.1803370E-005  0.1031701E+03  0.7546771E-02  0.1275907E+00
         -2   -1    0    0    0  501 -0.00000000000E+00  0.00000000000E+00  0.48227495531E+02  0.48227495531E+02  0.00000000000E+00 0.  1.
          2   -1    0    0  502    0  0.00000000000E+00 -0.00000000000E+00 -0.35085368084E+03  0.35085368084E+03  0.00000000000E+00 0. -1.
         23    2    1    2    0    0 -0.32246546294E+02 -0.54716585043E+02 -0.73970768169E+02  0.13042523391E+03  0.86633265380E+02 0.  0.
         23    2    1    2    0    0  0.21003667859E+02  0.19031721972E+02 -0.11827511933E+03  0.15210714619E+03  0.91346699800E+02 0.  0.
        -11    1    4    4    0    0  0.24408694812E+02 -0.30723704265E+02 -0.25560020491E+02  0.46829958720E+02  0.00000000000E+00 0.  1.
         11    1    4    4    0    0 -0.34050269525E+01  0.49755426237E+02 -0.92715098840E+02  0.10527718747E+03  0.00000000000E+00 0. -1.
        -11    1    3    3    0    0 -0.98837594633E+01 -0.28574745024E+02 -0.88168437614E+02  0.93208787921E+02  0.00000000000E+00 0. -1.
         11    1    3    3    0    0 -0.22362786831E+02 -0.26141840019E+02  0.14197669446E+02  0.37216445990E+02  0.00000000000E+00 0.  1.
         21    1    1    2  502  501  0.11242878435E+02  0.35684863071E+02 -0.11038029781E+03  0.11654879627E+03  0.00000000000E+00 0. -1.
<scales pt_clust_5="13000.00000" pt_clust_6="13000.00000" pt_clust_7="13000.00000" pt_clust_8="13000.00000" pt_clust_9="37.41406"></scales>
<clustering>
<clus scale="   37.414">  2  9  1 -1</clus>
<clus scale="   86.633">  7  8 -1 -1</clus>
<clus scale="   91.347">  5  6 -1 -1</clus>
<clus scale="   99.021">  1  7  2 -1</clus>
<clus scale="   37.414">  2  5  1 -1</clus>
</clustering>
</event>
<event>
 9    1  0.1803370E-005  0.1095240E+03  0.7546771E-02  0.1261671E+00
          1   -1    0    0  502    0  0.00000000000E+00  0.00000000000E+00  0.31517867334E+03  0.31517867334E+03  0.00000000000E+00 0. -1.
         -1   -1    0    0    0  501 -0.00000000000E+00 -0.00000000000E+00 -0.65892062497E+02  0.65892062497E+02  0.00000000000E+00 0.  1.
         23    2    1    2    0    0 -0.46230913585E+02 -0.50884673584E+02  0.25320125349E+02  0.11693074990E+03  0.91132563596E+02 0.  0.
         23    2    1    2    0    0  0.16693752871E+02  0.43590694766E+02  0.12881270211E+03  0.16424059414E+03  0.90572791074E+02 0.  0.
        -13    1    3    3    0    0 -0.55575555220E+02  0.61632689992E+01  0.73704696326E+01  0.56399929480E+02  0.00000000000E+00 0.  1.
         13    1    3    3    0    0  0.93446416352E+01 -0.57047942583E+02  0.17949655717E+02  0.60530820419E+02  0.00000000000E+00 0. -1.
        -13    1    4    4    0    0  0.75526312603E+01  0.65225046032E+02  0.51526336231E+02  0.83464436704E+02  0.00000000000E+00 0. -1.
         13    1    4    4    0    0  0.91411216110E+01 -0.21634351266E+02  0.77286365882E+02  0.80776157437E+02  0.00000000000E+00 0.  1.
         21    1    1    2  502  501  0.29537160713E+02  0.72939788176E+01  0.95153783378E+02  0.99899391795E+02  0.00000000000E+00 0.  1.
<scales pt_clust_5="13000.00000" pt_clust_6="13000.00000" pt_clust_7="13000.00000" pt_clust_8="13000.00000" pt_clust_9="30.42443"></scales>
<clustering>
<clus scale="   30.424">  1  9  2 -1</clus>
<clus scale="   90.573">  7  8 -1 -1</clus>
<clus scale="   91.133">  5  6 -1 -1</clus>
<clus scale="  109.059">  1  7  2 -1</clus>
<clus scale="   30.424">  1  5  2 -1</clus>
</clustering>
</event>
<event>
 9    1  0.1803370E-005  0.3489813E+03  0.7546771E-02  0.1063090E+00
         -1   -1    0    0    0  501 -0.00000000000E+00  0.00000000000E+00  0.17893966016E+03  0.17893966016E+03  0.00000000000E+00 0.  1.
          1   -1    0    0  502    0  0.00000000000E+00 -0.00000000000E+00 -0.11254449220E+04  0.11254449220E+04  0.00000000000E+00 0. -1.
         23    2    1    2    0    0 -0.24538608174E+03  0.22776438950E+03 -0.88949420052E+02  0.35852321319E+03  0.92390198813E+02 0.  0.
         23    2    1    2    0    0  0.22229165700E+03 -0.26355817812E+03 -0.77063409970E+03  0.84906293402E+03  0.90302028146E+02 0.  0.
        -13    1    4    4    0    0  0.59554403048E+02 -0.13923046124E+03 -0.34124770923E+03  0.37333878357E+03  0.00000000000E+00 0.  1.
         13    1    4    4    0    0  0.16273725396E+03 -0.12432771689E+03 -0.42938639046E+03  0.47572415045E+03  0.00000000000E+00 0. -1.
        -13    1    3    3    0    0 -0.22684348186E+03  0.18831800524E+03 -0.10366504095E+03  0.31251892275E+03  0.00000000000E+00 0.  1.
         13    1    3    3    0    0 -0.18542599886E+02  0.39446384252E+02  0.14715620900E+02  0.46004290447E+02  0.00000000000E+00 0. -1.
         21    1    1    2  502  501  0.23094424738E+02  0.35793788628E+02 -0.86921742055E+02  0.96798434906E+02  0.00000000000E+00 0.  1.
<scales pt_clust_5="13000.00000" pt_clust_6="13000.00000" pt_clust_7="13000.00000" pt_clust_8="13000.00000" pt_clust_9="42.59751"></scales>
<clustering>
<clus scale="   42.598">  2  9  1 -1</clus>
<clus scale="   90.302">  5  6 -1 -1</clus>
<clus scale="   92.390">  7  8 -1 -1</clus>
<clus scale="  348.434">  2  5  1 -1</clus>
<clus scale="   42.598">  2  5  1 -1</clus>
</clustering>
</event>
<event>
 9    1  0.1803370E-005  0.1208607E+03  0.7546771E-02  0.1242343E+00
         -1   -1    0    0    0  501 -0.00000000000E+00  0.00000000000E+00  0.32673963374E+03  0.32673963374E+03  0.00000000000E+00 0.  1.
          1   -1    0    0  502    0  0.00000000000E+00 -0.00000000000E+00 -0.71375770064E+02  0.71375770064E+02  0.00000000000E+00 0. -1.
         23    2    1    2    0    0  0.43196747894E+02  0.66904352645E+02  0.22346747629E+03  0.25470610623E+03  0.92711035799E+02 0.  0.
         23    2    1    2    0    0 -0.22581560451E+02 -0.68983708125E+02  0.15799411533E+02  0.11717149461E+03  0.90613789714E+02 0.  0.
        -11    1    4    4    0    0 -0.48314022639E+02 -0.75422760303E+02  0.11720760270E+02  0.90333901590E+02  0.00000000000E+00 0. -1.
         11    1    4    4    0    0  0.25732462188E+02  0.64390521775E+01  0.40786512631E+01  0.26837593024E+02  0.00000000000E+00 0.  1.
        -13    1    3    3    0    0  0.48261292088E+02  0.44277854250E+02  0.22201500394E+03  0.23147428078E+03  0.00000000000E+00 0.  1.
         13    1    3    3    0    0 -0.50645441940E+01  0.22626498395E+02  0.14524723520E+01  0.23231825444E+02  0.00000000000E+00 0. -1.
         21    1    1    2  502  501 -0.20615187444E+02  0.20793554800E+01  0.16096975851E+02  0.26237802958E+02  0.00000000000E+00 0. -1.
<scales pt_clust_5="13000.00000" pt_clust_6="13000.00000" pt_clust_7="13000.00000" pt_clust_8="13000.00000" pt_clust_9="20.71979"></scales>
<clustering>
<clus scale="   20.720">  2  9  1 -1</clus>
<clus scale="   90.614">  5  6 -1 -1</clus>
<clus scale="   92.711">  7  8 -1 -1</clus>
<clus scale="  119.260">  2  5  1 -1</clus>
<clus scale="   20.720">  2  5  1 -1</clus>
</clustering>
</event>
<event>
 9    1  0.1803370E-005  0.1890561E+03  0.7546771E-02  0.1160568E+00
          1   -1    0    0  502    0  0.00000000000E+00  0.00000000000E+00  0.23463507961E+03  0.23463507961E+03  0.00000000000E+00 0. -1.
         -1   -1    0    0    0  501 -0.00000000000E+00 -0.00000000000E+00 -0.29502792616E+03  0.29502792616E+03  0.00000000000E+00 0.  1.
         23    2    1    2    0    0  0.16094986965E+03 -0.10565778574E+03 -0.15774954844E+03  0.26472120534E+03  0.90133058854E+02 0.  0.
         23    2    1    2    0    0 -0.12084128050E+03  0.92907755004E+02  0.11856890180E+03  0.21781198362E+03  0.10074229361E+03 0.  0.
        -11    1    4    4    0    0 -0.49406020564E+02  0.58298969246E+02  0.11535337499E+03  0.13836952629E+03  0.00000000000E+00 0. -1.
         11    1    4    4    0    0 -0.71435259939E+02  0.34608785758E+02  0.32155268008E+01  0.79442457331E+02  0.00000000000E+00 0.  1.
        -11    1    3    3    0    0  0.61311236984E+02 -0.47172327635E+01 -0.14592831268E+02  0.63200243590E+02  0.00000000000E+00 0.  1.
         11    1    3    3    0    0  0.99638632661E+02 -0.10094055298E+03 -0.14315671717E+03  0.20152096175E+03  0.00000000000E+00 0. -1.
         21    1    1    2  502  501 -0.40108589143E+02  0.12750030737E+02 -0.21212199909E+02  0.47129816802E+02  0.00000000000E+00 0.  1.
<scales pt_clust_5="13000.00000" pt_clust_6="13000.00000" pt_clust_7="13000.00000" pt_clust_8="13000.00000" pt_clust_9="42.08637"></scales>
<clustering>
<clus scale="   42.086">  2  9  1 -1</clus>
<clus scale="   90.133">  7  8 -1 -1</clus>
<clus scale="  100.742">  5  6 -1 -1</clus>
<clus scale="  183.622">  2  7  1 -1</clus>
<clus scale="  189.056">  1  5  2 -1</clus>
</clustering>
</event>
<event>
 9    1  0.1803370E-005  0.1242694E+03  0.7546771E-02  0.1237192E+00
         -2   -1    0    0    0  501 -0.00000000000E+00  0.00000000000E+00  0.59295869803E+02  0.59295869803E+02  0.00000000000E+00 0.  1.
          2   -1    0    0  502    0  0.00000000000E+00 -0.00000000000E+00 -0.50605524623E+03  0.50605524623E+03  0.00000000000E+00 0. -1.
         23    2    1    2    0    0  0.60609483680E+02 -0.66969847740E+02 -0.54180925710E+02  0.13666880254E+03  0.87087994913E+02 0.  0.
         23    2    1    2    0    0 -0.77508482272E+02  0.22196328142E+02 -0.24148763227E+03  0.27019357689E+03  0.90487848066E+02 0.  0.
        -13    1    3    3    0    0  0.59816023083E+02 -0.36678801566E+01 -0.39209651775E+02  0.71615687909E+02  0.00000000000E+00 0. -1.
         13    1    3    3    0    0  0.79346059655E+00 -0.63301967583E+02 -0.14971273935E+02  0.65053114628E+02  0.00000000000E+00 0.  1.
        -13    1    4    4    0    0 -0.88330688904E+01 -0.18067316275E+02 -0.50807867808E+01  0.20742840155E+02  0.00000000000E+00 0. -1.
         13    1    4    4    0    0 -0.68675413382E+02  0.40263644416E+02 -0.23640684548E+03  0.24945073673E+03  0.00000000000E+00 0.  1.
         21    1    1    2  502  501  0.16898998592E+02  0.44773519598E+02 -0.15109081845E+03  0.15848873660E+03  0.00000000000E+00 0. -1.
<scales pt_clust_5="13000.00000" pt_clust_6="13000.00000" pt_clust_7="13000.00000" pt_clust_8="13000.00000" pt_clust_9="47.85650"></scales>
<clustering>
<clus scale="   47.856">  2  9  1 -1</clus>
<clus scale="   87.088">  5  6 -1 -1</clus>
<clus scale="   90.488">  7  8 -1 -1</clus>
<clus scale="  121.816">  1  5  2 -1</clus>
<clus scale="   47.856">  2  5  1 -1</clus>
</clustering>
</event>
<event>
 9    1  0.1803370E-005  0.1046391E+03  0.7546771E-02  0.1272253E+00
          4   -1    0    0  502    0  0.00000000000E+00  0.00000000000E+00  0.24883222310E+03  0.24883222310E+03  0.00000000000E+00 0. -1.
         -4   -1    0    0    0  501 -0.00000000000E+00 -0.00000000000E+00 -0.57950991422E+02  0.57950991422E+02  0.00000000000E+00 0.  1.
         23    2    1    2    0    0  0.44382291012E+02  0.23323392721E+02  0.41773681842E+02  0.11585916731E+03  0.95731592236E+02 0.  0.
         23    2    1    2    0    0 -0.27411360695E+02 -0.90435693270E+01  0.11939477545E+03  0.15384609158E+03  0.92630117396E+02 0.  0.
        -13    1    4    4    0    0 -0.11663420536E+02 -0.46673653824E+02  0.94543646536E+02  0.10608000019E+03  0.00000000000E+00 0. -1.
         13    1    4    4    0    0 -0.15747940158E+02  0.37630084497E+02  0.24851128910E+02  0.47766091389E+02  0.00000000000E+00 0.  1.
        -13    1    3    3    0    0  0.27284147170E+02  0.42682544346E+02 -0.15545391084E+02  0.52989465582E+02  0.00000000000E+00 0.  1.
         13    1    3    3    0    0  0.17098143842E+02 -0.19359151626E+02  0.57319072926E+02  0.62869701730E+02  0.00000000000E+00 0. -1.
         21    1    1    2  502  501 -0.16970930317E+02 -0.14279823394E+02  0.29712774394E+02  0.37077955637E+02  0.00000000000E+00 0. -1.
<scales pt_clust_5="13000.00000" pt_clust_6="13000.00000" pt_clust_7="13000.00000" pt_clust_8="13000.00000" pt_clust_9="22.17940"></scales>
<clustering>
<clus scale="   22.179">  1  9  2 -1</clus>
<clus scale="   92.630">  5  6 -1 -1</clus>
<clus scale="   95.732">  7  8 -1 -1</clus>
<clus scale="  101.809">  1  5  2 -1</clus>
<clus scale="   22.179">  1  5  2 -1</clus>
</clustering>
</event>
<event>
 9    1  0.1803370E-005  0.2315336E+03  0.7546771E-02  0.1125764E+00
          1   -1    0    0  502    0  0.00000000000E+00  0.00000000000E+00  0.32194317559E+03  0.32194317559E+03  0.00000000000E+00 0. -1.
         -1   -1    0    0    0  501 -0.00000000000E+00 -0.00000000000E+00 -0.20890489112E+03  0.20890489112E+03  0.00000000000E+00 0.  1.
         23    2    1    2    0    0 -0.43145084312E+02  0.18703947167E+03 -0.41701998299E+02  0.21781726117E+03  0.94127787276E+02 0.  0.
         23    2    1    2    0    0  0.38294955714E+02 -0.21647567630E+03  0.14888151108E+03  0.28262786002E+03  0.96874046360E+02 0.  0.
        -11    1    4    4    0    0  0.55956564497E+01 -0.20567598629E+03  0.12557207954E+03  0.24104412432E+03  0.00000000000E+00 0. -1.
         11    1    4    4    0    0  0.32699299264E+02 -0.10799690008E+02  0.23309431540E+02  0.41583735707E+02  0.00000000000E+00 0.  1.
        -13    1    3    3    0    0 -0.33806840436E+01  0.13228540405E+03 -0.63428887265E+02  0.14674495184E+03  0.00000000000E+00 0.  1.
         13    1    3    3    0    0 -0.39764400268E+02  0.54754067616E+02  0.21726888966E+02  0.71072309329E+02  0.00000000000E+00 0. -1.
         21    1    1    2  502  501  0.48501285985E+01  0.29436204627E+02  0.58587716904E+01  0.30402945515E+02  0.00000000000E+00 0. -1.
<scales pt_clust_5="13000.00000" pt_clust_6="13000.00000" pt_clust_7="13000.00000" pt_clust_8="13000.00000" pt_clust_9="29.83310"></scales>
<clustering>
<clus scale="   29.833">  2  9  1 -1</clus>
<clus scale="   94.128">  7  8 -1 -1</clus>
<clus scale="   96.874">  5  6 -1 -1</clus>
<clus scale="  230.398">  2  7  1 -1</clus>
<clus scale="  231.534">  1  5  2 -1</clus>
</clustering>
</event>
<event>
 9    1  0.1803370E-005  0.1850488E+03  0.7546771E-02  0.1163060E+00
         -2   -1    0    0    0  501 -0.00000000000E+00  0.00000000000E+00  0.16100581723E+03  0.16100581723E+03  0.00000000000E+00 0.  1.
          2   -1    0    0  502    0  0.00000000000E+00 -0.00000000000E+00 -0.51730266878E+03  0.51730266878E+03  0.00000000000E+00 0. -1.
         23    2    1    2    0    0  0.48933135622E+02  0.14956537763E+03  0.66350889739E+02  0.19297943002E+03  0.89857475446E+02 0.  0.
         23    2    1    2    0    0 -0.66428470279E+02 -0.17413931879E+03 -0.35041223753E+03  0.40704793872E+03  0.90344032423E+02 0.  0.
        -11    1    4    4    0    0 -0.49517108796E+02 -0.13203036669E+03 -0.16927583767E+03  0.22031402817E+03  0.00000000000E+00 0. -1.
         11    1    4    4    0    0 -0.16911361483E+02 -0.42108952102E+02 -0.18113639986E+03  0.18673391054E+03  0.00000000000E+00 0.  1.
        -13    1    3    3    0    0  0.37212289148E+02  0.11405068694E+03  0.88892650146E+02  0.14931248074E+03  0.00000000000E+00 0.  1.
         13    1    3    3    0    0  0.11720846474E+02  0.35514690687E+02 -0.22541760407E+02  0.43666949275E+02  0.00000000000E+00 0. -1.
         21    1    1    2  502  501  0.17495334656E+02  0.24573941159E+02 -0.72235503757E+02  0.78281117276E+02  0.00000000000E+00 0.  1.
<scales pt_clust_5="13000.00000" pt_clust_6="13000.00000" pt_clust_7="13000.00000" pt_clust_8="13000.00000" pt_clust_9="30.16563"></scales>
<clustering>
<clus scale="   30.166">  2  9  1 -1</clus>
<clus scale="   89.857">  7  8 -1 -1</clus>
<clus scale="   90.344">  5  6 -1 -1</clus>
<clus scale="  184.812">  1  7  2 -1</clus>
<clus scale="   30.166">  2  5  1 -1</clus>
</clustering>
</event>
<event>
 9    1  0.1803370E-005  0.1263165E+03  0.7546771E-02  0.1234719E+00
          1   -1    0    0  502    0  0.00000000000E+00  0.00000000000E+00  0.12743437522E+03  0.12743437522E+03  0.00000000000E+00 0. -1.
         -1   -1    0    0    0  501 -0.00000000000E+00 -0.00000000000E+00 -0.20079704401E+03  0.20079704401E+03  0.00000000000E+00 0.  1.
         23    2    1    2    0    0 -0.79676408445E+02 -0.45071418937E+02 -0.12138530798E+03  0.17623568950E+03  0.89133957573E+02 0.  0.
         23    2    1    2    0    0  0.52523066048E+02  0.28059335336E+02  0.39557446356E+02  0.11885399650E+03  0.94949892863E+02 0.  0.
        -11    1    3    3    0    0 -0.24543456486E+02 -0.22834674795E+02  0.74545214377E+01  0.34342008083E+02  0.00000000000E+00 0. -1.
         11    1    3    3    0    0 -0.55132951959E+02 -0.22236744142E+02 -0.12883982942E+03  0.14189368142E+03  0.00000000000E+00 0.  1.
        -11    1    4    4    0    0  0.77707202500E+02  0.14423998344E+02  0.43057741646E+02  0.90002389769E+02  0.00000000000E+00 0. -1.
         11    1    4    4    0    0 -0.25184136451E+02  0.13635336992E+02 -0.35002952904E+01  0.28851606728E+02  0.00000000000E+00 0.  1.
         21    1    1    2  502  501  0.27153342397E+02  0.17012083601E+02  0.84651928340E+01  0.33141733230E+02  0.00000000000E+00 0. -1.
<scales pt_clust_5="13000.00000" pt_clust_6="13000.00000" pt_clust_7="13000.00000" pt_clust_8="13000.00000" pt_clust_9="32.04239"></scales>
<clustering>
<clus scale="   32.042">  1  9  2 -1</clus>
<clus scale="   89.134">  5  6 -1 -1</clus>
<clus scale="   94.950">  7  8 -1 -1</clus>
<clus scale="  122.005">  2  5  1 -1</clus>
<clus scale="   32.042">  1  5  2 -1</clus>
</clustering>
</event>
<event>
 9    1  0.1803370E-005  0.1380833E+03  0.7546771E-02  0.1216066E+00
         -1   -1    0    0    0  501 -0.00000000000E+00  0.00000000000E+00  0.36975465565E+03  0.36975465565E+03  0.00000000000E+00 0.  1.
          1   -1    0    0  502    0  0.00000000000E+00 -0.00000000000E+00 -0.72310908430E+02  0.72310908430E+02  0.00000000000E+00 0. -1.
         23    2    1    2    0    0 -0.69983870881E+02 -0.82642735746E+02  0.23651300912E+03  0.27511278433E+03  0.89560463751E+02 0.  0.
         23    2    1    2    0    0  0.48547424398E+02  0.84487249419E+02  0.59230876498E+02  0.14537007838E+03  0.90162160737E+02 0.  0.
        -13    1    4    4    0    0  0.28880653238E+02  0.10192976348E+03  0.42141413853E+02  0.11401608473E+03  0.00000000000E+00 0. -1.
         13    1    4    4    0    0  0.19666771160E+02 -0.17442514064E+02  0.17089462644E+02  0.31353993657E+02  0.00000000000E+00 0.  1.
        -13    1    3    3    0    0 -0.17428439968E+02 -0.34713440425E+02  0.13645551667E+02  0.41170068571E+02  0.00000000000E+00 0. -1.
         13    1    3    3    0    0 -0.52555430913E+02 -0.47929295322E+02  0.22286745745E+03  0.23394271576E+03  0.00000000000E+00 0.  1.
         21    1    1    2  502  501  0.21436446483E+02 -0.18445136729E+01  0.16998616025E+01  0.21582701359E+02  0.00000000000E+00 0. -1.
<scales pt_clust_5="13000.00000" pt_clust_6="13000.00000" pt_clust_7="13000.00000" pt_clust_8="13000.00000" pt_clust_9="21.51566"></scales>
<clustering>
<clus scale="   21.516">  2  9  1 -1</clus>
<clus scale="   89.560">  7  8 -1 -1</clus>
<clus scale="   90.162">  5  6 -1 -1</clus>
<clus scale="  137.691">  1  7  2 -1</clus>
<clus scale="   21.516">  2  5  1 -1</clus>
</clustering>
</event>
<event>
 9    1  0.1803370E-005  0.1100271E+03  0.7546771E-02  0.1262061E+00
          1   -1    0    0  502    0  0.00000000000E+00  0.00000000000E+00  0.94774445255E+02  0.94774445255E+02  0.00000000000E+00 0. -1.
         -1   -1    0    0    0  501 -0.00000000000E+00 -0.00000000000E+00 -0.28729191961E+03  0.28729191961E+03  0.00000000000E+00 0.  1.
         23    2    1    2    0    0 -0.66093914076E+02 -0.59602417713E+00 -0.16028139401E+03  0.19489619058E+03  0.89026058611E+02 0.  0.
         23    2    1    2    0    0  0.48052841128E+02 -0.89796091352E+01 -0.82097258335E+02  0.13328780114E+03  0.92929915447E+02 0.  0.
        -11    1    4    4    0    0 -0.16050925798E+02  0.23914056816E+02 -0.41716655769E+02  0.50693132680E+02  0.00000000000E+00 0.  1.
         11    1    4    4    0    0  0.64103766926E+02 -0.32893665951E+02 -0.40380602565E+02  0.82594668456E+02  0.00000000000E+00 0. -1.
        -13    1    3    3    0    0 -0.59111626546E+02 -0.24523525639E+02 -0.15726646447E+03  0.16978907076E+03  0.00000000000E+00 0.  1.
         13    1    3    3    0    0 -0.69822875308E+01  0.23927501462E+02 -0.30149295433E+01  0.25107119817E+02  0.00000000000E+00 0. -1.
         21    1    1    2  502  501  0.18041072949E+02  0.95756333124E+01  0.49861177989E+02  0.53882373156E+02  0.00000000000E+00 0. -1.
<scales pt_clust_5="13000.00000" pt_clust_6="13000.00000" pt_clust_7="13000.00000" pt_clust_8="13000.00000" pt_clust_9="20.42481"></scales>
<clustering>
<clus scale="   20.425">  1  9  2 -1</clus>
<clus scale="   89.026">  7  8 -1 -1</clus>
<clus scale="   92.930">  5  6 -1 -1</clus>
<clus scale="  106.750">  2  7  1 -1</clus>
<clus scale="   20.425">  1  5  2 -1</clus>
</clustering>
</event>
<event>
 9    1  0.1803370E-005  0.1271916E+03  0.7546771E-02  0.1232711E+00
          2   -1    0    0  502    0  0.00000000000E+00  0.00000000000E+00  0.41223718466E+03  0.41223718466E+03  0.00000000000E+00 0. -1.
         -2   -1    0    0    0  501 -0.00000000000E+00 -0.00000000000E+00 -0.71184129083E+02  0.71184129083E+02  0.00000000000E+00 0.  1.
         23    2    1    2    0    0  0.24292333326E+02 -0.61355068467E+02  0.85299030208E+02  0.14424388418E+03  0.95790457172E+02 0.  0.
         23    2    1    2    0    0  0.14996143080E+02  0.11400848408E+03  0.12674927921E+03  0.19440798842E+03  0.92229428246E+02 0.  0.
        -11    1    4    4    0    0 -0.17735051943E+02  0.11105420751E+03  0.83409392331E+02  0.14001676972E+03  0.00000000000E+00 0.  1.
         11    1    4    4    0    0  0.32731195023E+02  0.29542765647E+01  0.43339886875E+02  0.54391218703E+02  0.00000000000E+00 0. -1.
        -11    1    3    3    0    0  0.22067418419E+02  0.22853043182E+02  0.18735380424E+02  0.36881526785E+02  0.00000000000E+00 0.  1.
         11    1    3    3    0    0  0.22249149063E+01 -0.84208111649E+02  0.66563649784E+02  0.10736235740E+03  0.00000000000E+00 0. -1.
         21    1    1    2  502  501 -0.39288476406E+02 -0.52653415612E+02  0.12900474617E+03  0.14476944114E+03  0.00000000000E+00 0. -1.
<scales pt_clust_5="13000.00000" pt_clust_6="13000.00000" pt_clust_7="13000.00000" pt_clust_8="13000.00000" pt_clust_9="65.69602"></scales>
<clustering>
<clus scale="   65.696">  1  9  2 -1</clus>
<clus scale="   92.229">  5  6 -1 -1</clus>
<clus scale="   95.790">  7  8 -1 -1</clus>
<clus scale="  124.532">  1  5  2 -1</clus>
<clus scale="   65.696">  1  5  2 -1</clus>
</clustering>
</event>
<event>
 9    1  0.1803370E-005  0.1236972E+03  0.7546771E-02  0.1237880E+00
         -3   -1    0    0    0  501 -0.00000000000E+00  0.00000000000E+00  0.14866361215E+03  0.14866361215E+03  0.00000000000E+00 0.  1.
          3   -1    0    0  502    0  0.00000000000E+00 -0.00000000000E+00 -0.28838641525E+03  0.28838641525E+03  0.00000000000E+00 0. -1.
         23    2    1    2    0    0  0.60753732026E+02 -0.66492550112E+02  0.76943953323E+02  0.15060201651E+03  0.92996345353E+02 0.  0.
         23    2    1    2    0    0 -0.36648170036E+02  0.49079893947E+02 -0.55441057029E+02  0.12250288331E+03  0.90450656478E+02 0.  0.
        -13    1    4    4    0    0  0.19527318047E+02  0.49309551672E+01 -0.46276863512E+02  0.50469580596E+02  0.00000000000E+00 0.  1.
         13    1    4    4    0    0 -0.56175488083E+02  0.44148938780E+02 -0.91641935165E+01  0.72033302712E+02  0.00000000000E+00 0. -1.
        -13    1    3    3    0    0  0.32430093421E+02 -0.47839480589E+02  0.95736443093E+02  0.11182930474E+03  0.00000000000E+00 0.  1.
         13    1    3    3    0    0  0.28323638605E+02 -0.18653069523E+02 -0.18792489770E+02  0.38772711773E+02  0.00000000000E+00 0. -1.
         21    1    1    2  502  501 -0.24105561990E+02  0.17412656165E+02 -0.16122569939E+03  0.16394512759E+03  0.00000000000E+00 0. -1.
<scales pt_clust_5="13000.00000" pt_clust_6="13000.00000" pt_clust_7="13000.00000" pt_clust_8="13000.00000" pt_clust_9="29.73682"></scales>
<clustering>
<clus scale="   29.737">  2  9  1 -1</clus>
<clus scale="   90.451">  5  6 -1 -1</clus>
<clus scale="   92.996">  7  8 -1 -1</clus>
<clus scale="  121.795">  2  5  1 -1</clus>
<clus scale="   29.737">  2  5  1 -1</clus>
</clustering>
</event>
<event>
 9    1  0.1803370E-005  0.2118257E+03  0.7546771E-02  0.1140568E+00
         -3   -1    0    0    0  501 -0.00000000000E+00  0.00000000000E+00  0.12981168841E+03  0.12981168841E+03  0.00000000000E+00 0.  1.
          3   -1    0    0  502    0  0.00000000000E+00 -0.00000000000E+00 -0.87813092217E+03  0.87813092217E+03  0.00000000000E+00 0. -1.
         23    2    1    2    0    0  0.15945807330E+03 -0.78457307114E+02 -0.19096867396E+02  0.20147359443E+03  0.92975764202E+02 0.  0.
         23    2    1    2    0    0 -0.22067883561E+03  0.66789217277E+02 -0.40418216467E+03  0.47550790245E+03  0.97900945008E+02 0.  0.
        -11    1    3    3    0    0  0.47037266628E+02 -0.74133780946E+02 -0.13516185056E+02  0.88831352503E+02  0.00000000000E+00 0.  1.
         11    1    3    3    0    0  0.11242080667E+03 -0.43235261686E+01 -0.55806823393E+01  0.11264224193E+03  0.00000000000E+00 0. -1.
        -13    1    4    4    0    0 -0.10493592084E+01  0.23810062915E+02 -0.21028944457E+02  0.31784221805E+02  0.00000000000E+00 0.  1.
         13    1    4    4    0    0 -0.21962947640E+03  0.42979154362E+02 -0.38315322021E+03  0.44372368065E+03  0.00000000000E+00 0. -1.
         21    1    1    2  502  501  0.61220762306E+02  0.11668089837E+02 -0.32504020170E+03  0.33096111370E+03  0.00000000000E+00 0. -1.
<scales pt_clust_5="13000.00000" pt_clust_6="13000.00000" pt_clust_7="13000.00000" pt_clust_8="13000.00000" pt_clust_9="62.32276"></scales>
<clustering>
<clus scale="   62.323">  2  9  1 -1</clus>
<clus scale="   92.976">  5  6 -1 -1</clus>
<clus scale="   97.901">  7  8 -1 -1</clus>
<clus scale="  209.595">  1  5  2 -1</clus>
<clus scale="   62.323">  2  5  1 -1</clus>
</clustering>
</event>
<event>
 9    1  0.1803370E-005  0.1515643E+03  0.7546771E-02  0.1199281E+00
         -3   -1    0    0    0  501 -0.00000000000E+00  0.00000000000E+00  0.82494202467E+02  0.82494202467E+02  0.00000000000E+00 0.  1.
          3   -1    0    0  502    0  0.00000000000E+00 -0.00000000000E+00 -0.40156812392E+03  0.40156812392E+03  0.00000000000E+00 0. -1.
         23    2    1    2    0    0  0.49872667947E+02 -0.89500687131E+02 -0.89421477096E+02  0.16478983843E+03  0.93068975914E+02 0.  0.
         23    2    1    2    0    0 -0.54091969545E+02  0.13756282003E+03 -0.16700155084E+03  0.24019717207E+03  0.89194690771E+02 0.  0.
        -11    1    4    4    0    0 -0.69631583787E+02  0.81565739079E+02 -0.13934989910E+03  0.17584061428E+03  0.00000000000E+00 0. -1.
         11    1    4    4    0    0  0.15539614242E+02  0.55997080954E+02 -0.27651651745E+02  0.64356557788E+02  0.00000000000E+00 0.  1.
        -11    1    3    3    0    0  0.72511766031E+02 -0.54338371293E+02 -0.37361069125E+02  0.98012572122E+02  0.00000000000E+00 0.  1.
         11    1    3    3    0    0 -0.22639098084E+02 -0.35162315838E+02 -0.52060407971E+02  0.66777266305E+02  0.00000000000E+00 0. -1.
         21    1    1    2  502  501  0.42193015975E+01 -0.48062132902E+02 -0.62650893519E+02  0.79075315894E+02  0.00000000000E+00 0.  1.
<scales pt_clust_5="13000.00000" pt_clust_6="13000.00000" pt_clust_7="13000.00000" pt_clust_8="13000.00000" pt_clust_9="48.24698"></scales>
<clustering>
<clus scale="   48.247">  2  9  1 -1</clus>
<clus scale="   89.195">  5  6 -1 -1</clus>
<clus scale="   93.069">  7  8 -1 -1</clus>
<clus scale="  149.217">  2  5  1 -1</clus>
<clus scale="   48.247">  2  5  1 -1</clus>
</clustering>
</event>
<event>
 9    1  0.1803370E-005  0.1386033E+03  0.7546771E-02  0.1217322E+00
         -2   -1    0    0    0  501 -0.00000000000E+00  0.00000000000E+00  0.72625412373E+02  0.72625412373E+02  0.00000000000E+00 0.  1.
          2   -1    0    0  502    0  0.00000000000E+00 -0.00000000000E+00 -0.53164638451E+03  0.53164638451E+03  0.00000000000E+00 0. -1.
         23    2    1    2    0    0  0.10101061954E+03  0.26476292890E+01 -0.22758608554E+02  0.13834885331E+03  0.91718568178E+02 0.  0.
         23    2    1    2    0    0 -0.72673308081E+02  0.22303253161E+02 -0.33953645012E+03  0.36208917214E+03  0.10022336458E+03 0.  0.
        -11    1    4    4    0    0 -0.70362574897E+02  0.48284202023E+02 -0.31472752095E+03  0.32609150335E+03  0.00000000000E+00 0. -1.
         11    1    4    4    0    0 -0.23107331838E+01 -0.25980948862E+02 -0.24808929170E+02  0.35997668788E+02  0.00000000000E+00 0.  1.
        -13    1    3    3    0    0  0.90444439954E+02 -0.34249623424E+02 -0.73502192171E+01  0.96991026110E+02  0.00000000000E+00 0.  1.
         13    1    3    3    0    0  0.10566179584E+02  0.36897252713E+02 -0.15408389336E+02  0.41357827200E+02  0.00000000000E+00 0. -1.
         21    1    1    2  502  501 -0.28337311458E+02 -0.24950882450E+02 -0.96725913466E+02  0.10383377144E+03  0.00000000000E+00 0.  1.
<scales pt_clust_5="13000.00000" pt_clust_6="13000.00000" pt_clust_7="13000.00000" pt_clust_8="13000.00000" pt_clust_9="37.75645"></scales>
<clustering>
<clus scale="   37.756">  2  9  1 -1</clus>
<clus scale="   91.719">  7  8 -1 -1</clus>
<clus scale="  100.223">  5  6 -1 -1</clus>
<clus scale="  132.584">  1  7  2 -1</clus>
<clus scale="   37.756">  2  5  1 -1</clus>
</clustering>
</event>
<event>
 9    1  0.1803370E-005  0.1723076E+03  0.7546771E-02  0.1176278E+00
          2   -1    0    0  502    0  0.00000000000E+00  0.00000000000E+00  0.45303460032E+03  0.45303460032E+03  0.00000000000E+00 0. -1.
         -2   -1    0    0    0  501 -0.00000000000E+00 -0.00000000000E+00 -0.89892597112E+02  0.89892597112E+02  0.00000000000E+00 0.  1.
         23    2    1    2    0    0 -0.11061451966E+03  0.86846345908E+02  0.64158439625E+02  0.17822134512E+03  0.88705595794E+02 0.  0.
         23    2    1    2    0    0  0.12717727801E+03 -0.10493154184E+03  0.26386805410E+03  0.32187480887E+03  0.82415739354E+02 0.  0.
        -13    1    3    3    0    0 -0.28270294050E+02  0.58962181868E+02 -0.71517923868E+01  0.65779149817E+02  0.00000000000E+00 0.  1.
         13    1    3    3    0    0 -0.82344225611E+02  0.27884164039E+02  0.71310232012E+02  0.11244219531E+03  0.00000000000E+00 0. -1.
        -13    1    4    4    0    0  0.85759517999E+02 -0.37066353951E+02  0.85731119687E+02  0.12680076658E+03  0.00000000000E+00 0.  1.
         13    1    4    4    0    0  0.41417760011E+02 -0.67865187891E+02  0.17813693442E+03  0.19507404229E+03  0.00000000000E+00 0. -1.
         21    1    1    2  502  501 -0.16562758348E+02  0.18085195935E+02  0.35115509483E+02  0.42831043442E+02  0.00000000000E+00 0. -1.
<scales pt_clust_5="13000.00000" pt_clust_6="13000.00000" pt_clust_7="13000.00000" pt_clust_8="13000.00000" pt_clust_9="24.52344"></scales>
<clustering>
<clus scale="   24.523">  1  9  2 -1</clus>
<clus scale="   82.416">  7  8 -1 -1</clus>
<clus scale="   88.706">  5  6 -1 -1</clus>
<clus scale="  169.156">  1  7  2 -1</clus>
<clus scale="   24.523">  1  5  2 -1</clus>
</clustering>
</event>
<event>
 9    1  0.1803370E-005  0.9866666E+02  0.7546771E-02  0.1283237E+00
          2   -1    0    0  502    0  0.00000000000E+00  0.00000000000E+00  0.31426811683E+03  0.31426811683E+03  0.00000000000E+00 0. -1.
         -2   -1    0    0    0  501 -0.00000000000E+00 -0.00000000000E+00 -0.16093372746E+03  0.16093372746E+03  0.00000000000E+00 0.  1.
         23    2    1    2    0    0  0.26151894699E+02 -0.25287844663E+02 -0.12980531368E+03  0.16274001997E+03  0.91167417187E+02 0.  0.
         23    2    1    2    0    0 -0.47454221202E+02  0.34994957918E+02  0.24117737884E+03  0.26441129033E+03  0.90940926987E+02 0.  0.
        -11    1    4    4    0    0 -0.30331781117E+02 -0.20792837561E+02  0.37433827689E+02  0.52475236970E+02  0.00000000000E+00 0.  1.
         11    1    4    4    0    0 -0.17122440085E+02  0.55787795480E+02  0.20374355115E+03  0.21193605337E+03  0.00000000000E+00 0. -1.
        -13    1    3    3    0    0  0.27662388592E+02  0.29951543941E+02 -0.38870563543E+02  0.56331371696E+02  0.00000000000E+00 0. -1.
         13    1    3    3    0    0 -0.15104938922E+01 -0.55239388604E+02 -0.90934750142E+02  0.10640864828E+03  0.00000000000E+00 0.  1.
         21    1    1    2  502  501  0.21302326502E+02 -0.97071132548E+01  0.41962324211E+02  0.48050533975E+02  0.00000000000E+00 0. -1.
<scales pt_clust_5="13000.00000" pt_clust_6="13000.00000" pt_clust_7="13000.00000" pt_clust_8="13000.00000" pt_clust_9="23.40977"></scales>
<clustering>
<clus scale="   23.410">  1  9  2 -1</clus>
<clus scale="   90.941">  5  6 -1 -1</clus>
<clus scale="   91.167">  7  8 -1 -1</clus>
<clus scale="   98.457">  1  5  2 -1</clus>
<clus scale="   23.410">  1  5  2 -1</clus>
</clustering>
</event>
<event>
 9    1  0.1803370E-005  0.1259641E+03  0.7546771E-02  0.1234512E+00
          2   -1    0    0  502    0  0.00000000000E+00  0.00000000000E+00  0.42552008706E+03  0.42552008706E+03  0.00000000000E+00 0. -1.
         -2   -1    0    0    0  501 -0.00000000000E+00 -0.00000000000E+00 -0.76727353852E+02  0.76727353852E+02  0.00000000000E+00 0.  1.
         23    2    1    2    0    0  0.56721739868E+02 -0.74953901841E+02  0.21920206967E+02  0.13118326515E+03  0.88843178738E+02 0.  0.
         23    2    1    2    0    0 -0.48852892425E+02  0.49524741571E+02  0.13628672145E+03  0.17862844638E+03  0.92166947913E+02 0.  0.
        -11    1    4    4    0    0  0.15596461673E+02  0.21716149963E+02  0.16435032033E+01  0.26786972369E+02  0.00000000000E+00 0.  1.
         11    1    4    4    0    0 -0.64449354098E+02  0.27808591608E+02  0.13464321825E+03  0.15184147401E+03  0.00000000000E+00 0. -1.
        -13    1    3    3    0    0 -0.18908052918E+02 -0.14108721288E+02  0.24593484240E+02  0.34079465204E+02  0.00000000000E+00 0. -1.
         13    1    3    3    0    0  0.75629792786E+02 -0.60845180553E+02 -0.26732772725E+01  0.97103799950E+02  0.00000000000E+00 0.  1.
         21    1    1    2  502  501 -0.78688474429E+01  0.25429160270E+02  0.19058580479E+03  0.19243572937E+03  0.00000000000E+00 0. -1.
<scales pt_clust_5="13000.00000" pt_clust_6="13000.00000" pt_clust_7="13000.00000" pt_clust_8="13000.00000" pt_clust_9="26.61881"></scales>
<clustering>
<clus scale="   26.619">  1  9  2 -1</clus>
<clus scale="   88.843">  7  8 -1 -1</clus>
<clus scale="   92.167">  5  6 -1 -1</clus>
<clus scale="  123.553">  2  7  1 -1</clus>
<clus scale="   26.619">  1  5  2 -1</clus>
</clustering>
</event>
<event>
 9    1  0.1803370E-005  0.9239188E+02  0.7546771E-02  0.1297778E+00
          2   -1    0    0  502    0  0.00000000000E+00  0.00000000000E+00  0.33044385639E+03  0.33044385639E+03  0.00000000000E+00 0. -1.
         -2   -1    0    0    0  501 -0.00000000000E+00 -0.00000000000E+00 -0.47714915727E+02  0.47714915727E+02  0.00000000000E+00 0.  1.
         23    2    1    2    0    0 -0.21311479250E+02 -0.85270439953E+00  0.25573792788E+02  0.96689195873E+02  0.90773759800E+02 0.  0.
         23    2    1    2    0    0  0.93716132372E+00 -0.50431181304E+00  0.23394413221E+03  0.25055508818E+03  0.89704306567E+02 0.  0.
        -11    1    4    4    0    0 -0.38682317146E+01  0.39036536662E+02  0.57072078082E+02  0.69253422355E+02  0.00000000000E+00 0.  1.
         11    1    4    4    0    0  0.48053930383E+01 -0.39540848476E+02  0.17687205413E+03  0.18130166583E+03  0.00000000000E+00 0. -1.
        -13    1    3    3    0    0  0.27055259178E+02 -0.28312124860E+01 -0.17122248820E+02  0.32143027517E+02  0.00000000000E+00 0.  1.
         13    1    3    3    0    0 -0.48366738428E+02  0.19785080865E+01  0.42696041608E+02  0.64546168355E+02  0.00000000000E+00 0. -1.
         21    1    1    2  502  501  0.20374317926E+02  0.13570162126E+01  0.23211015668E+02  0.30914488065E+02  0.00000000000E+00 0. -1.
<scales pt_clust_5="13000.00000" pt_clust_6="13000.00000" pt_clust_7="13000.00000" pt_clust_8="13000.00000" pt_clust_9="20.41946"></scales>
<clustering>
<clus scale="   20.419">  1  9  2 -1</clus>
<clus scale="   89.704">  5  6 -1 -1</clus>
<clus scale="   90.774">  7  8 -1 -1</clus>
<clus scale="   91.341">  1  5  2 -1</clus>
<clus scale="   20.419">  1  5  2 -1</clus>
</clustering>
</event>
<event>
 9    1  0.1803370E-005  0.9896721E+02  0.7546771E-02  0.1283061E+00
          1   -1    0    0  502    0  0.00000000000E+00  0.00000000000E+00  0.80523024778E+03  0.80523024778E+03  0.00000000000E+00 0. -1.
         -1   -1    0    0    0  501 -0.00000000000E+00 -0.00000000000E+00 -0.40954472635E+02  0.40954472635E+02  0.00000000000E+00 0.  1.
         23    2    1    2    0    0  0.30756552127E+02  0.15495078088E+02  0.35746785306E+02  0.10307254476E+03  0.90333016556E+02 0.  0.
         23    2    1    2    0    0 -0.48773722150E+02 -0.44017946309E+02  0.54791893212E+03  0.55937822294E+03  0.91500735318E+02 0.  0.
        -11    1    4    4    0    0 -0.17395995209E+02 -0.68860316569E+02  0.39344392964E+03  0.39980306355E+03  0.00000000000E+00 0. -1.
         11    1    4    4    0    0 -0.31377726942E+02  0.24842370260E+02  0.15447500247E+03  0.15957515940E+03  0.00000000000E+00 0.  1.
        -13    1    3    3    0    0 -0.26336207563E+02  0.23991702226E+02  0.26979833885E+02  0.44689025957E+02  0.00000000000E+00 0. -1.
         13    1    3    3    0    0  0.57092759690E+02 -0.84966241381E+01  0.87669514211E+01  0.58383518805E+02  0.00000000000E+00 0.  1.
         21    1    1    2  502  501  0.18017170023E+02  0.28522868221E+02  0.18061005773E+03  0.18373395271E+03  0.00000000000E+00 0.  1.
<scales pt_clust_5="13000.00000" pt_clust_6="13000.00000" pt_clust_7="13000.00000" pt_clust_8="13000.00000" pt_clust_9="33.73681"></scales>
<clustering>
<clus scale="   33.737">  1  9  2 -1</clus>
<clus scale="   90.333">  7  8 -1 -1</clus>
<clus scale="   91.501">  5  6 -1 -1</clus>
<clus scale="   97.889">  2  7  1 -1</clus>
<clus scale="   33.737">  1  5  2 -1</clus>
</clustering>
</event>
<event>
 9    1  0.1803370E-005  0.1578239E+03  0.7546771E-02  0.1192479E+00
         -2   -1    0    0    0  501 -0.00000000000E+00  0.00000000000E+00  0.15424474193E+03  0.15424474193E+03  0.00000000000E+00 0.  1.
          2   -1    0    0  502    0  0.00000000000E+00 -0.00000000000E+00 -0.18395825490E+03  0.18395825490E+03  0.00000000000E+00 0. -1.
         23    2    1    2    0    0  0.17075440669E+02  0.12654101850E+03  0.14303264882E+02  0.16191935713E+03  0.98534739002E+02 0.  0.
         23    2    1    2    0    0  0.24720923661E+01 -0.11827144845E+03 -0.40496204503E+02  0.15476884775E+03  0.91209686410E+02 0.  0.
        -13    1    3    3    0    0  0.31173703736E+02  0.45236750600E+02  0.47839193850E+02  0.72847456220E+02  0.00000000000E+00 0.  1.
         13    1    3    3    0    0 -0.14098263067E+02  0.81304267896E+02 -0.33535928968E+02  0.89071900908E+02  0.00000000000E+00 0. -1.
        -13    1    4    4    0    0  0.46846980095E+02 -0.61443377380E+02 -0.21866431651E+02  0.80299869246E+02  0.00000000000E+00 0.  1.
         13    1    4    4    0    0 -0.44374887729E+02 -0.56828071070E+02 -0.18629772852E+02  0.74468978501E+02  0.00000000000E+00 0. -1.
         21    1    1    2  502  501 -0.19547533035E+02 -0.82695700466E+01 -0.35205733472E+01  0.21514791963E+02  0.00000000000E+00 0. -1.
<scales pt_clust_5="13000.00000" pt_clust_6="13000.00000" pt_clust_7="13000.00000" pt_clust_8="13000.00000" pt_clust_9="21.22479"></scales>
<clustering>
<clus scale="   21.225">  2  9  1 -1</clus>
<clus scale="   91.210">  7  8 -1 -1</clus>
<clus scale="   98.535">  5  6 -1 -1</clus>
<clus scale="  153.357">  2  7  1 -1</clus>
<clus scale="   21.225">  2  5  1 -1</clus>
</clustering>
</event>
<event>
 9    1  0.1803370E-005  0.9513189E+02  0.7546771E-02  0.1291319E+00
          1   -1    0    0  502    0  0.00000000000E+00  0.00000000000E+00  0.17817262089E+03  0.17817262089E+03  0.00000000000E+00 0. -1.
         -1   -1    0    0    0  501 -0.00000000000E+00 -0.00000000000E+00 -0.25054597750E+03  0.25054597750E+03  0.00000000000E+00 0.  1.
         23    2    1    2    0    0  0.17687315480E+02  0.15861533001E+02 -0.21810284294E+03  0.23767912776E+03  0.91422581001E+02 0.  0.
         23    2    1    2    0    0 -0.29265956988E+02  0.78556777209E+01  0.11693694001E+03  0.15198077445E+03  0.92226351729E+02 0.  0.
        -13    1    4    4    0    0 -0.20939361001E+02  0.43982430753E+02  0.99974578226E+02  0.11121073395E+03  0.00000000000E+00 0. -1.
         13    1    4    4    0    0 -0.83265959863E+01 -0.36126753032E+02  0.16962361788E+02  0.40770040505E+02  0.00000000000E+00 0.  1.
        -13    1    3    3    0    0  0.51628989884E+02  0.75870286944E+01 -0.17257394865E+03  0.18029110725E+03  0.00000000000E+00 0.  1.
         13    1    3    3    0    0 -0.33941674404E+02  0.82745043070E+01 -0.45528894288E+02  0.57388020509E+02  0.00000000000E+00 0. -1.
         21    1    1    2  502  501  0.11578641508E+02 -0.23717210722E+02  0.28792546319E+02  0.39058696178E+02  0.00000000000E+00 0.  1.
<scales pt_clust_5="13000.00000" pt_clust_6="13000.00000" pt_clust_7="13000.00000" pt_clust_8="13000.00000" pt_clust_9="26.39263"></scales>
<clustering>
<clus scale="   26.393">  1  9  2 -1</clus>
<clus scale="   91.423">  7  8 -1 -1</clus>
<clus scale="   92.226">  5  6 -1 -1</clus>
<clus scale="   94.353">  2  7  1 -1</clus>
<clus scale="   26.393">  1  5  2 -1</clus>
</clustering>
</event>
<event>
 9    1  0.1803370E-005  0.2850515E+03  0.7546771E-02  0.1093087E+00
         -1   -1    0    0    0  501 -0.00000000000E+00  0.00000000000E+00  0.16584623484E+03  0.16584623484E+03  0.00000000000E+00 0.  1.
          1   -1    0    0  502    0  0.00000000000E+00 -0.00000000000E+00 -0.80281517499E+03  0.80281517499E+03  0.00000000000E+00 0. -1.
         23    2    1    2    0    0 -0.16803166181E+03 -0.16018441944E+03 -0.18346486448E+03  0.30897257625E+03  0.88943851805E+02 0.  0.
         23    2    1    2    0    0  0.24303246162E+03  0.19571766145E+03 -0.17561753463E+03  0.36967390130E+03  0.91908075982E+02 0.  0.
        -11    1    3    3    0    0 -0.22142431480E+02  0.98914039496E+01 -0.22439990926E+02  0.33040586204E+02  0.00000000000E+00 0. -1.
         11    1    3    3    0    0 -0.14588923033E+03 -0.17007582338E+03 -0.16102487355E+03  0.27593199004E+03  0.00000000000E+00 0.  1.
        -13    1    4    4    0    0  0.15742432898E+03  0.14742216355E+03 -0.73293320364E+02  0.22778855211E+03  0.00000000000E+00 0.  1.
         13    1    4    4    0    0  0.85608132635E+02  0.48295497899E+02 -0.10232421427E+03  0.14188534919E+03  0.00000000000E+00 0. -1.
         21    1    1    2  502  501 -0.75000799810E+02 -0.35533242015E+02 -0.27788654104E+03  0.29001493229E+03  0.00000000000E+00 0.  1.
<scales pt_clust_5="13000.00000" pt_clust_6="13000.00000" pt_clust_7="13000.00000" pt_clust_8="13000.00000" pt_clust_9="82.99236"></scales>
<clustering>
<clus scale="   82.992">  2  9  1 -1</clus>
<clus scale="   88.944">  5  6 -1 -1</clus>
<clus scale="   91.908">  7  8 -1 -1</clus>
<clus scale="  284.110">  1  5  2 -1</clus>
<clus scale="   82.992">  2  5  1 -1</clus>
</clustering>
</event>
<event>
 9    1  0.1803370E-005  0.1079002E+03  0.7546771E-02  0.1266381E+00
         -4   -1    0    0    0  501 -0.00000000000E+00  0.00000000000E+00  0.12006753745E+03  0.12006753745E+03  0.00000000000E+00 0.  1.
          4   -1    0    0  502    0  0.00000000000E+00 -0.00000000000E+00 -0.12552782835E+03  0.12552782835E+03  0.00000000000E+00 0. -1.
         23    2    1    2    0    0 -0.37654142153E+02  0.44224305162E+02  0.23989262294E+02  0.10916663144E+03  0.89265027459E+02 0.  0.
         23    2    1    2    0    0  0.25786429536E+02 -0.60421036774E+02 -0.85008245128E+01  0.10741105094E+03  0.84553108831E+02 0.  0.
        -11    1    4    4    0    0 -0.92231267201E+00 -0.60467873049E+02 -0.34928764609E+02  0.69837188723E+02  0.00000000000E+00 0.  1.
         11    1    4    4    0    0  0.26708742208E+02  0.46836274728E-01  0.26427940096E+02  0.37573862214E+02  0.00000000000E+00 0. -1.
        -13    1    3    3    0    0 -0.62588278240E+02  0.50883034123E+02  0.19246936603E+02  0.82926595874E+02  0.00000000000E+00 0.  1.
         13    1    3    3    0    0  0.24934136087E+02 -0.66587289612E+01  0.47423256908E+01  0.26240035571E+02  0.00000000000E+00 0. -1.
         21    1    1    2  502  501  0.11867712617E+02  0.16196731612E+02 -0.20948728678E+02  0.29017683417E+02  0.00000000000E+00 0. -1.
<scales pt_clust_5="13000.00000" pt_clust_6="13000.00000" pt_clust_7="13000.00000" pt_clust_8="13000.00000" pt_clust_9="20.07926"></scales>
<clustering>
<clus scale="   20.079">  2  9  1 -1</clus>
<clus scale="   84.553">  5  6 -1 -1</clus>
<clus scale="   89.265">  7  8 -1 -1</clus>
<clus scale="  104.036">  2  5  1 -1</clus>
<clus scale="   20.079">  2  5  1 -1</clus>
</clustering>
</event>
<event>
 9    1  0.1803370E-005  0.1577848E+03  0.7546771E-02  0.1191253E+00
          1   -1    0    0  502    0  0.00000000000E+00  0.00000000000E+00  0.33403270121E+03  0.33403270121E+03  0.00000000000E+00 0. -1.
         -1   -1    0    0    0  501 -0.00000000000E+00 -0.00000000000E+00 -0.22936255145E+03  0.22936255145E+03  0.00000000000E+00 0.  1.
         23    2    1    2    0    0  0.13739648148E+03  0.18342871855E+02 -0.10273326164E+03  0.19507658999E+03  0.91030208409E+02 0.  0.
         23    2    1    2    0    0 -0.11541529991E+03  0.26930914477E+01 -0.11466059532E+02  0.14734461578E+03  0.90835131320E+02 0.  0.
        -11    1    4    4    0    0 -0.57633786953E+02  0.46755205230E+02 -0.46052973079E+01  0.74356649857E+02  0.00000000000E+00 0.  1.
         11    1    4    4    0    0 -0.57781512957E+02 -0.44062113783E+02 -0.68607622241E+01  0.72987965918E+02  0.00000000000E+00 0. -1.
        -13    1    3    3    0    0  0.99029090503E+00 -0.22635277077E+02 -0.20835883938E+02  0.30781008819E+02  0.00000000000E+00 0. -1.
         13    1    3    3    0    0  0.13640619057E+03  0.40978148932E+02 -0.81897377705E+02  0.16429558117E+03  0.00000000000E+00 0.  1.
         21    1    1    2  502  501 -0.21981181567E+02 -0.21035963303E+02  0.21886947093E+03  0.22097404690E+03  0.00000000000E+00 0. -1.
<scales pt_clust_5="13000.00000" pt_clust_6="13000.00000" pt_clust_7="13000.00000" pt_clust_8="13000.00000" pt_clust_9="30.42506"></scales>
<clustering>
<clus scale="   30.425">  1  9  2 -1</clus>
<clus scale="   90.835">  5  6 -1 -1</clus>
<clus scale="   91.030">  7  8 -1 -1</clus>
<clus scale="  157.672">  1  5  2 -1</clus>
<clus scale="   30.425">  1  5  2 -1</clus>
</clustering>
</event>
<event>
 9    1  0.1803370E-005  0.1018960E+03  0.7546771E-02  0.1277418E+00
          2   -1    0    0  502    0  0.00000000000E+00  0.00000000000E+00  0.54117354610E+03  0.54117354610E+03  0.00000000000E+00 0. -1.
         -2   -1    0    0    0  501 -0.00000000000E+00 -0.00000000000E+00 -0.51585872195E+02  0.51585872195E+02  0.00000000000E+00 0.  1.
         23    2    1    2    0    0 -0.39248822611E+02 -0.64743369296E+01  0.25898009917E+02  0.10191583970E+03  0.90187273760E+02 0.  0.
         23    2    1    2    0    0  0.50535489729E+02  0.48898184535E+02  0.35901040976E+03  0.37733182605E+03  0.92444385784E+02 0.  0.
        -11    1    3    3    0    0 -0.55522315143E+02 -0.33639160735E+02  0.26810993701E+02  0.70236386561E+02  0.00000000000E+00 0. -1.
         11    1    3    3    0    0  0.16273492532E+02  0.27164823806E+02 -0.91298378479E+00  0.31679453136E+02  0.00000000000E+00 0.  1.
        -11    1    4    4    0    0  0.73991292345E+02  0.52045845000E+02  0.30960997578E+03  0.32255514013E+03  0.00000000000E+00 0.  1.
         11    1    4    4    0    0 -0.23455802616E+02 -0.31476604647E+01  0.49400433982E+02  0.54776685920E+02  0.00000000000E+00 0. -1.
         21    1    1    2  502  501 -0.11286667117E+02 -0.42423847606E+02  0.10467925423E+03  0.11351175255E+03  0.00000000000E+00 0. -1.
<scales pt_clust_5="13000.00000" pt_clust_6="13000.00000" pt_clust_7="13000.00000" pt_clust_8="13000.00000" pt_clust_9="43.89956"></scales>
<clustering>
<clus scale="   43.900">  1  9  2 -1</clus>
<clus scale="   90.187">  5  6 -1 -1</clus>
<clus scale="   92.444">  7  8 -1 -1</clus>
<clus scale="   99.853">  2  5  1 -1</clus>
<clus scale="   43.900">  1  5  2 -1</clus>
</clustering>
</event>
<event>
 9    1  0.1803370E-005  0.1651631E+03  0.7546771E-02  0.1186294E+00
          2   -1    0    0  502    0  0.00000000000E+00  0.00000000000E+00  0.84410198933E+03  0.84410198933E+03  0.00000000000E+00 0. -1.
         -2   -1    0    0    0  501 -0.00000000000E+00 -0.00000000000E+00 -0.39331830845E+02  0.39331830845E+02  0.00000000000E+00 0.  1.
         23    2    1    2    0    0  0.98909560098E+02  0.88061998289E+02  0.29193275652E+03  0.33366115930E+03  0.92558188586E+02 0.  0.
         23    2    1    2    0    0 -0.83725710607E+02 -0.11722392776E+03  0.36801785136E+03  0.40126788098E+03  0.69478986219E+02 0.  0.
        -11    1    4    4    0    0 -0.55147286699E+02 -0.10593411382E+03  0.33730092486E+03  0.35782002964E+03  0.00000000000E+00 0. -1.
         11    1    4    4    0    0 -0.28578423908E+02 -0.11289813944E+02  0.30716926499E+02  0.43447851333E+02  0.00000000000E+00 0.  1.
        -13    1    3    3    0    0  0.21773358885E+02 -0.14226645671E+02  0.19171248337E+02  0.32311195690E+02  0.00000000000E+00 0. -1.
         13    1    3    3    0    0  0.77136201214E+02  0.10228864396E+03  0.27276150818E+03  0.30134996361E+03  0.00000000000E+00 0.  1.
         21    1    1    2  502  501 -0.15183849491E+02  0.29161929471E+02  0.14481955060E+03  0.14850477990E+03  0.00000000000E+00 0. -1.
<scales pt_clust_5="13000.00000" pt_clust_6="13000.00000" pt_clust_7="13000.00000" pt_clust_8="13000.00000" pt_clust_9="32.87807"></scales>
<clustering>
<clus scale="   32.878">  1  9  2 -1</clus>
<clus scale="   69.479">  5  6 -1 -1</clus>
<clus scale="   92.558">  7  8 -1 -1</clus>
<clus scale="  153.425">  1  5  2 -1</clus>
<clus scale="   32.878">  1  5  2 -1</clus>
</clustering>
</event>
<event>
 9    1  0.1803370E-005  0.1145505E+03  0.7546771E-02  0.1256194E+00
          1   -1    0    0  502    0  0.00000000000E+00  0.00000000000E+00  0.16028343311E+03  0.16028343311E+03  0.00000000000E+00 0. -1.
         -1   -1    0    0    0  501 -0.00000000000E+00 -0.00000000000E+00 -0.12632315919E+03  0.12632315919E+03  0.00000000000E+00 0.  1.
         23    2    1    2    0    0 -0.62890368969E+02 -0.28230588736E+02 -0.33861693018E+02  0.11946913327E+03  0.91510080869E+02 0.  0.
         23    2    1    2    0    0  0.20466493433E+02  0.24074259809E+02  0.29859562139E+02  0.11005677522E+03  0.10110614711E+03 0.  0.
        -11    1    4    4    0    0 -0.23393913416E+02 -0.57939159500E+00  0.50511531735E+02  0.55668893627E+02  0.00000000000E+00 0.  1.
         11    1    4    4    0    0  0.43860406849E+02  0.24653651404E+02 -0.20651969595E+02  0.54387881597E+02  0.00000000000E+00 0. -1.
        -11    1    3    3    0    0 -0.90513038396E+01  0.31867613171E+02 -0.37223497144E+01  0.33336567876E+02  0.00000000000E+00 0.  1.
         11    1    3    3    0    0 -0.53839065129E+02 -0.60098201907E+02 -0.30139343304E+02  0.86132565393E+02  0.00000000000E+00 0. -1.
         21    1    1    2  502  501  0.42423875536E+02  0.41563289276E+01  0.37962404801E+02  0.57080683808E+02  0.00000000000E+00 0. -1.
<scales pt_clust_5="13000.00000" pt_clust_6="13000.00000" pt_clust_7="13000.00000" pt_clust_8="13000.00000" pt_clust_9="42.62699"></scales>
<clustering>
<clus scale="   42.627">  1  9  2 -1</clus>
<clus scale="   91.510">  7  8 -1 -1</clus>
<clus scale="  101.106">  5  6 -1 -1</clus>
<clus scale="  106.177">  2  7  1 -1</clus>
<clus scale="   42.627">  1  5  2 -1</clus>
</clustering>
</event>
<event>
 9    1  0.1803370E-005  0.1110558E+03  0.7546771E-02  0.1259033E+00
         -2   -1    0    0    0  501 -0.00000000000E+00  0.00000000000E+00  0.20957613557E+02  0.20957613557E+02  0.00000000000E+00 0.  1.
          2   -1    0    0  502    0  0.00000000000E+00 -0.00000000000E+00 -0.73858652990E+03  0.73858652990E+03  0.00000000000E+00 0. -1.
         23    2    1    2    0    0  0.26294562142E+02  0.49501376692E+02 -0.29585654250E+03  0.31460704051E+03  0.91130159147E+02 0.  0.
         23    2    1    2    0    0 -0.16671089329E+02 -0.70363570194E+02 -0.30967266226E+03  0.33050726556E+03  0.90049639687E+02 0.  0.
        -13    1    4    4    0    0  0.33961480314E+02 -0.17735808038E+02 -0.68110553102E+02  0.78147223084E+02  0.00000000000E+00 0.  1.
         13    1    4    4    0    0 -0.50632569644E+02 -0.52627762156E+02 -0.24156210916E+03  0.25236004248E+03  0.00000000000E+00 0. -1.
        -13    1    3    3    0    0  0.87576471025E+01 -0.26672250851E+02 -0.95567826608E+02  0.99605797174E+02  0.00000000000E+00 0.  1.
         13    1    3    3    0    0  0.17536915040E+02  0.76173627544E+02 -0.20028871589E+03  0.21500124333E+03  0.00000000000E+00 0. -1.
         21    1    1    2  502  501 -0.96234728129E+01  0.20862193502E+02 -0.11209971159E+03  0.11442983739E+03  0.00000000000E+00 0. -1.
<scales pt_clust_5="13000.00000" pt_clust_6="13000.00000" pt_clust_7="13000.00000" pt_clust_8="13000.00000" pt_clust_9="22.97482"></scales>
<clustering>
<clus scale="   22.975">  2  9  1 -1</clus>
<clus scale="   90.050">  5  6 -1 -1</clus>
<clus scale="   91.130">  7  8 -1 -1</clus>
<clus scale="  110.171">  2  5  1 -1</clus>
<clus scale="   22.975">  2  5  1 -1</clus>
</clustering>
</event>
<event>
 9    1  0.1803370E-005  0.1005121E+03  0.7546771E-02  0.1280273E+00
         -2   -1    0    0    0  501 -0.00000000000E+00  0.00000000000E+00  0.61565840550E+02  0.61565840550E+02  0.00000000000E+00 0.  1.
          2   -1    0    0  502    0  0.00000000000E+00 -0.00000000000E+00 -0.38095713873E+03  0.38095713873E+03  0.00000000000E+00 0. -1.
         23    2    1    2    0    0  0.33227848427E+02  0.21034731630E+01 -0.39781407236E+02  0.10470430282E+03  0.90950075079E+02 0.  0.
         23    2    1    2    0    0 -0.39823794453E+02  0.31521118711E+02 -0.73869445006E+02  0.12924434732E+03  0.93101508465E+02 0.  0.
        -13    1    4    4    0    0  0.18160110746E+02  0.36580634835E+02 -0.84957531268E+01  0.41714629190E+02  0.00000000000E+00 0.  1.
         13    1    4    4    0    0 -0.57983905199E+02 -0.50595161240E+01 -0.65373691879E+02  0.87529718127E+02  0.00000000000E+00 0. -1.
        -13    1    3    3    0    0 -0.92565457506E+01 -0.26521430349E+02  0.13173293528E+02  0.31025885473E+02  0.00000000000E+00 0. -1.
         13    1    3    3    0    0  0.42484394177E+02  0.28624903512E+02 -0.52954700765E+02  0.73678417347E+02  0.00000000000E+00 0.  1.
         21    1    1    2  502  501  0.65959460264E+01 -0.33624591874E+02 -0.20574044594E+03  0.20857432914E+03  0.00000000000E+00 0. -1.
<scales pt_clust_5="13000.00000" pt_clust_6="13000.00000" pt_clust_7="13000.00000" pt_clust_8="13000.00000" pt_clust_9="34.26543"></scales>
<clustering>
<clus scale="   34.265">  2  9  1 -1</clus>
<clus scale="   90.950">  7  8 -1 -1</clus>
<clus scale="   93.102">  5  6 -1 -1</clus>
<clus scale="   98.523">  1  7  2 -1</clus>
<clus scale="   34.265">  2  5  1 -1</clus>
</clustering>
</event>
<event>
 9    1  0.1803370E-005  0.1126325E+03  0.7546771E-02  0.1256180E+00
          1   -1    0    0  502    0  0.00000000000E+00  0.00000000000E+00  0.72018342475E+03  0.72018342475E+03  0.00000000000E+00 0. -1.
         -1   -1    0    0    0  501 -0.00000000000E+00 -0.00000000000E+00 -0.29190786383E+02  0.29190786383E+02  0.00000000000E+00 0.  1.
         23    2    1    2    0    0  0.24877382114E+02 -0.66052993310E+02  0.13143558202E+03  0.17450694648E+03  0.90528890874E+02 0.  0.
         23    2    1    2    0    0 -0.31411141418E+02  0.40777689055E+02  0.46816630705E+03  0.47982095976E+03  0.91645963593E+02 0.  0.
        -11    1    4    4    0    0 -0.62180872447E+02  0.40659508353E+02  0.33751995257E+03  0.34560002155E+03  0.00000000000E+00 0. -1.
         11    1    4    4    0    0  0.30769731029E+02  0.11818070118E+00  0.13064635448E+03  0.13422093821E+03  0.00000000000E+00 0.  1.
        -13    1    3    3    0    0 -0.50327297374E+01 -0.71486327904E+02  0.12398790416E+03  0.14320832317E+03  0.00000000000E+00 0. -1.
         13    1    3    3    0    0  0.29910111852E+02  0.54333345945E+01  0.74476778575E+01  0.31298623313E+02  0.00000000000E+00 0.  1.
         21    1    1    2  502  501  0.65337593037E+01  0.25275304255E+02  0.91390749301E+02  0.95046304892E+02  0.00000000000E+00 0.  1.
<scales pt_clust_5="13000.00000" pt_clust_6="13000.00000" pt_clust_7="13000.00000" pt_clust_8="13000.00000" pt_clust_9="26.10615"></scales>
<clustering>
<clus scale="   26.106">  1  9  2 -1</clus>
<clus scale="   90.529">  7  8 -1 -1</clus>
<clus scale="   91.646">  5  6 -1 -1</clus>
<clus scale="  111.725">  2  7  1 -1</clus>
<clus scale="   26.106">  1  5  2 -1</clus>
</clustering>
</event>
<event>
 9    1  0.1803370E-005  0.1081972E+03  0.7546771E-02  0.1265201E+00
         -1   -1    0    0    0  501 -0.00000000000E+00  0.00000000000E+00  0.45417037435E+03  0.45417037435E+03  0.00000000000E+00 0.  1.
          1   -1    0    0  502    0  0.00000000000E+00 -0.00000000000E+00 -0.68918714441E+02  0.68918714441E+02  0.00000000000E+00 0. -1.
         23    2    1    2    0    0  0.24841029366E+02  0.58609666439E+02  0.35340394179E+03  0.37018258238E+03  0.89936802742E+02 0.  0.
         23    2    1    2    0    0 -0.39074146757E+02 -0.23821027392E+02 -0.76334446418E+01  0.98394184405E+02  0.86769324976E+02 0.  0.
        -11    1    4    4    0    0 -0.67093016457E+01  0.22183100061E+02  0.24409694518E+02  0.33659142047E+02  0.00000000000E+00 0.  1.
         11    1    4    4    0    0 -0.32364845112E+02 -0.46004127453E+02 -0.32043139160E+02  0.64735042358E+02  0.00000000000E+00 0. -1.
        -13    1    3    3    0    0 -0.10500070168E+02  0.70991667796E+02  0.25458206047E+03  0.26450348557E+03  0.00000000000E+00 0.  1.
         13    1    3    3    0    0  0.35341099534E+02 -0.12382001358E+02  0.98821881322E+02  0.10567909681E+03  0.00000000000E+00 0. -1.
         21    1    1    2  502  501  0.14233117391E+02 -0.34788639047E+02  0.39481162768E+02  0.54512322010E+02  0.00000000000E+00 0. -1.
<scales pt_clust_5="13000.00000" pt_clust_6="13000.00000" pt_clust_7="13000.00000" pt_clust_8="13000.00000" pt_clust_9="37.58764"></scales>
<clustering>
<clus scale="   37.588">  2  9  1 -1</clus>
<clus scale="   86.769">  5  6 -1 -1</clus>
<clus scale="   89.937">  7  8 -1 -1</clus>
<clus scale="  105.579">  2  5  1 -1</clus>
<clus scale="   37.588">  2  5  1 -1</clus>
</clustering>
</event>
<event>
 9    1  0.1803370E-005  0.1049252E+03  0.7546771E-02  0.1270519E+00
         -2   -1    0    0    0  501 -0.00000000000E+00  0.00000000000E+00  0.20795368521E+03  0.20795368521E+03  0.00000000000E+00 0.  1.
          2   -1    0    0  502    0  0.00000000000E+00 -0.00000000000E+00 -0.22211967068E+03  0.22211967068E+03  0.00000000000E+00 0. -1.
         23    2    1    2    0    0 -0.45949432483E+02 -0.17400141052E+02  0.16668924705E+03  0.19628724211E+03  0.91264785524E+02 0.  0.
         23    2    1    2    0    0  0.63725624493E+02  0.33017462235E+02 -0.17347635531E+03  0.20900019940E+03  0.91847316058E+02 0.  0.
        -11    1    4    4    0    0 -0.15941724669E+02  0.31840362498E+02 -0.68599026035E+02  0.77290191113E+02  0.00000000000E+00 0.  1.
         11    1    4    4    0    0  0.79667349162E+02  0.11770997369E+01 -0.10487732927E+03  0.13171000828E+03  0.00000000000E+00 0. -1.
        -13    1    3    3    0    0  0.17343219135E+02  0.14693116394E+02  0.11136844039E+02  0.25312135715E+02  0.00000000000E+00 0. -1.
         13    1    3    3    0    0 -0.63292651618E+02 -0.32093257445E+02  0.15555240301E+03  0.17097510639E+03  0.00000000000E+00 0.  1.
         21    1    1    2  502  501 -0.17776192010E+02 -0.15617321183E+02 -0.73788772144E+01  0.24785914392E+02  0.00000000000E+00 0. -1.
<scales pt_clust_5="13000.00000" pt_clust_6="13000.00000" pt_clust_7="13000.00000" pt_clust_8="13000.00000" pt_clust_9="23.66207"></scales>
<clustering>
<clus scale="   23.662">  2  9  1 -1</clus>
<clus scale="   91.265">  7  8 -1 -1</clus>
<clus scale="   91.847">  5  6 -1 -1</clus>
<clus scale="  104.416">  1  7  2 -1</clus>
<clus scale="   23.662">  2  5  1 -1</clus>
</clustering>
</event>
<event>
 9    1  0.1803370E-005  0.1414819E+03  0.7546771E-02  0.1212794E+00
         -2   -1    0    0    0  501 -0.00000000000E+00  0.00000000000E+00  0.72376320089E+02  0.72376320089E+02  0.00000000000E+00 0.  1.
          2   -1    0    0  502    0  0.00000000000E+00 -0.00000000000E+00 -0.40179634883E+03  0.40179634883E+03  0.00000000000E+00 0. -1.
         23    2    1    2    0    0 -0.73858067540E+02 -0.17162819750E+02 -0.53860612729E+02  0.13395990805E+03  0.96409101435E+02 0.  0.
         23    2    1    2    0    0  0.11933223445E+03  0.40872796348E+01 -0.23130083883E+03  0.27542316865E+03  0.90005309582E+02 0.  0.
        -11    1    4    4    0    0  0.59194487357E+02  0.43713965539E+02 -0.14815375231E+03  0.16542198294E+03  0.00000000000E+00 0. -1.
         11    1    4    4    0    0  0.60137747090E+02 -0.39626685904E+02 -0.83147086523E+02  0.11000118571E+03  0.00000000000E+00 0.  1.
        -13    1    3    3    0    0  0.22581398462E+02 -0.12118370405E+02 -0.16120198401E+02  0.30275984778E+02  0.00000000000E+00 0. -1.
         13    1    3    3    0    0 -0.96439466002E+02 -0.50444493453E+01 -0.37740414328E+02  0.10368392327E+03  0.00000000000E+00 0.  1.
         21    1    1    2  502  501 -0.45474166908E+02  0.13075540116E+02 -0.44258577178E+02  0.64789592212E+02  0.00000000000E+00 0.  1.
<scales pt_clust_5="13000.00000" pt_clust_6="13000.00000" pt_clust_7="13000.00000" pt_clust_8="13000.00000" pt_clust_9="47.31669"></scales>
<clustering>
<clus scale="   47.317">  1  9  2 -1</clus>
<clus scale="   90.005">  5  6 -1 -1</clus>
<clus scale="   96.409">  7  8 -1 -1</clus>
<clus scale="  137.198">  2  5  1 -1</clus>
<clus scale="  137.198">  2  5  1 -1</clus>
</clustering>
</event>
<event>
 9    1  0.1803370E-005  0.1129278E+03  0.7546771E-02  0.1256040E+00
         -4   -1    0    0    0  501 -0.00000000000E+00  0.00000000000E+00  0.30318053328E+02  0.30318053328E+02  0.00000000000E+00 0.  1.
          4   -1    0    0  502    0  0.00000000000E+00 -0.00000000000E+00 -0.84137616627E+03  0.84137616627E+03  0.00000000000E+00 0. -1.
         23    2    1    2    0    0 -0.59053227504E+02 -0.95847955111E+01 -0.11119863510E+03  0.15728038052E+03  0.93770089392E+02 0.  0.
         23    2    1    2    0    0  0.77093482444E+02 -0.40244586555E+01 -0.55347849340E+03  0.56629883240E+03  0.91631455398E+02 0.  0.
        -13    1    3    3    0    0 -0.70060791946E+02 -0.32393009530E+02 -0.10648877310E+03  0.13152064640E+03  0.00000000000E+00 0.  1.
         13    1    3    3    0    0  0.11007564441E+02  0.22808214019E+02 -0.47098620026E+01  0.25759734116E+02  0.00000000000E+00 0. -1.
        -13    1    4    4    0    0 -0.14213150419E+02 -0.22516655457E+02 -0.12823975379E+03  0.13097498949E+03  0.00000000000E+00 0.  1.
         13    1    4    4    0    0  0.91306632863E+02  0.18492196802E+02 -0.42523873961E+03  0.43532384291E+03  0.00000000000E+00 0. -1.
         21    1    1    2  502  501 -0.18040254940E+02  0.13609254167E+02 -0.14638098444E+03  0.14811500668E+03  0.00000000000E+00 0. -1.
<scales pt_clust_5="13000.00000" pt_clust_6="13000.00000" pt_clust_7="13000.00000" pt_clust_8="13000.00000" pt_clust_9="22.59784"></scales>
<clustering>
<clus scale="   22.598">  2  9  1 -1</clus>
<clus scale="   91.631">  7  8 -1 -1</clus>
<clus scale="   93.770">  5  6 -1 -1</clus>
<clus scale="  111.158">  2  7  1 -1</clus>
<clus scale="   22.598">  2  5  1 -1</clus>
</clustering>
</event>
<event>
 9    1  0.1803370E-005  0.1960937E+03  0.7546771E-02  0.1153367E+00
          2   -1    0    0  502    0  0.00000000000E+00  0.00000000000E+00  0.99916259841E+02  0.99916259841E+02  0.00000000000E+00 0. -1.
         -2   -1    0    0    0  501 -0.00000000000E+00 -0.00000000000E+00 -0.94764921306E+03  0.94764921306E+03  0.00000000000E+00 0.  1.
         23    2    1    2    0    0  0.66957721847E+02 -0.16838638569E+03 -0.78812039458E+03  0.81380377244E+03  0.91134583390E+02 0.  0.
         23    2    1    2    0    0 -0.32615823605E+02  0.13945272395E+03 -0.77776983393E+02  0.18532133421E+03  0.88226320337E+02 0.  0.
        -11    1    4    4    0    0 -0.19684388879E+02 -0.61893121317E+01 -0.17916486685E+02  0.27327335130E+02  0.00000000000E+00 0.  1.
         11    1    4    4    0    0 -0.12931434726E+02  0.14564203608E+03 -0.59860496708E+02  0.15799399908E+03  0.00000000000E+00 0. -1.
        -13    1    3    3    0    0  0.47160123136E+02 -0.17547914638E+03 -0.71390516754E+03  0.73666654347E+03  0.00000000000E+00 0.  1.
         13    1    3    3    0    0  0.19797598710E+02  0.70927606928E+01 -0.74215227043E+02  0.77137228975E+02  0.00000000000E+00 0. -1.
         21    1    1    2  502  501 -0.34341898242E+02  0.28933661734E+02  0.18164424749E+02  0.48440366252E+02  0.00000000000E+00 0.  1.
<scales pt_clust_5="13000.00000" pt_clust_6="13000.00000" pt_clust_7="13000.00000" pt_clust_8="13000.00000" pt_clust_9="44.90571"></scales>
<clustering>
<clus scale="   44.906">  1  9  2 -1</clus>
<clus scale="   88.226">  5  6 -1 -1</clus>
<clus scale="   91.135">  7  8 -1 -1</clus>
<clus scale="  194.759">  1  5  2 -1</clus>
<clus scale="   44.906">  1  5  2 -1</clus>
</clustering>
</event>
<event>
 9    1  0.1803370E-005  0.1227261E+03  0.7546771E-02  0.1248885E+00
          1   -1    0    0  502    0  0.00000000000E+00  0.00000000000E+00  0.19970788812E+03  0.19970788812E+03  0.00000000000E+00 0. -1.
         -1   -1    0    0    0  501 -0.00000000000E+00 -0.00000000000E+00 -0.99361354898E+02  0.99361354898E+02  0.00000000000E+00 0.  1.
         23    2    1    2    0    0 -0.50238056536E+01  0.42689620007E+02 -0.59091214215E+01  0.12487221135E+03  0.11709188346E+03 0.  0.
         23    2    1    2    0    0  0.33164479020E+02 -0.17315419078E+02  0.79155450532E+02  0.12761196289E+03  0.92841377177E+02 0.  0.
        -11    1    4    4    0    0  0.21655888574E+02  0.33840555049E+02  0.11066045484E+02  0.41672749353E+02  0.00000000000E+00 0.  1.
         11    1    4    4    0    0  0.11508590446E+02 -0.51155974127E+02  0.68089405048E+02  0.85939213533E+02  0.00000000000E+00 0. -1.
        -13    1    3    3    0    0 -0.22382294372E+02  0.63861705352E+02 -0.41944903841E+02  0.79615698640E+02  0.00000000000E+00 0.  1.
         13    1    3    3    0    0  0.17358488719E+02 -0.21172085345E+02  0.36035782419E+02  0.45256512714E+02  0.00000000000E+00 0. -1.
         21    1    1    2  502  501 -0.28140673366E+02 -0.25374200929E+02  0.27100204115E+02  0.46585068781E+02  0.00000000000E+00 0.  1.
<scales pt_clust_5="13000.00000" pt_clust_6="13000.00000" pt_clust_7="13000.00000" pt_clust_8="13000.00000" pt_clust_9="37.89126"></scales>
<clustering>
<clus scale="   37.891">  1  9  2 -1</clus>
<clus scale="   92.841">  5  6 -1 -1</clus>
<clus scale="   99.853">  1  5  2 -1</clus>
<clus scale="  117.092">  7  8 -1 -1</clus>
<clus scale="   37.891">  1  5  2 -1</clus>
</clustering>
</event>
<event>
 9    1  0.1803370E-005  0.1289635E+03  0.7546771E-02  0.1230899E+00
         -1   -1    0    0    0  501 -0.00000000000E+00  0.00000000000E+00  0.49544978775E+03  0.49544978775E+03  0.00000000000E+00 0.  1.
          1   -1    0    0  502    0  0.00000000000E+00 -0.00000000000E+00 -0.24919251669E+03  0.24919251669E+03  0.00000000000E+00 0. -1.
         23    2    1    2    0    0 -0.10184021023E+02 -0.83171651623E+02  0.46787561232E+03  0.48550294551E+03  0.98915537610E+02 0.  0.
         23    2    1    2    0    0  0.63504605419E+01  0.59913230195E+02 -0.17392843569E+03  0.20594182659E+03  0.92363475979E+02 0.  0.
        -13    1    4    4    0    0 -0.40269250423E+02  0.47019439739E+02 -0.97706457875E+02  0.11566759336E+03  0.00000000000E+00 0. -1.
         13    1    4    4    0    0  0.46619710965E+02  0.12893790456E+02 -0.76221977817E+02  0.90274233229E+02  0.00000000000E+00 0.  1.
        -13    1    3    3    0    0  0.36599132671E+02 -0.28841065242E+01  0.13217555579E+03  0.13717941584E+03  0.00000000000E+00 0.  1.
         13    1    3    3    0    0 -0.46783153695E+02 -0.80287545099E+02  0.33570005653E+03  0.34832352967E+03  0.00000000000E+00 0. -1.
         21    1    1    2  502  501  0.38335604812E+01  0.23258421428E+02 -0.47689905566E+02  0.53197532332E+02  0.00000000000E+00 0. -1.
<scales pt_clust_5="13000.00000" pt_clust_6="13000.00000" pt_clust_7="13000.00000" pt_clust_8="13000.00000" pt_clust_9="23.57224"></scales>
<clustering>
<clus scale="   23.572">  2  9  1 -1</clus>
<clus scale="   92.363">  5  6 -1 -1</clus>
<clus scale="   98.916">  7  8 -1 -1</clus>
<clus scale="  124.009">  2  5  1 -1</clus>
<clus scale="   23.572">  2  5  1 -1</clus>
</clustering>
</event>
<event>
 9    1  0.1803370E-005  0.1213012E+03  0.7546771E-02  0.1241073E+00
          2   -1    0    0  502    0  0.00000000000E+00  0.00000000000E+00  0.67319179936E+03  0.67319179936E+03  0.00000000000E+00 0. -1.
         -2   -1    0    0    0  501 -0.00000000000E+00 -0.00000000000E+00 -0.30191125379E+02  0.30191125379E+02  0.00000000000E+00 0.  1.
         23    2    1    2    0    0  0.76464818682E+02  0.27367974877E+02  0.17852266113E+03  0.21622463159E+03  0.91032281212E+02 0.  0.
         23    2    1    2    0    0 -0.63119657317E+02 -0.47889771812E+02  0.40925644821E+03  0.42675416513E+03  0.91382469146E+02 0.  0.
        -11    1    4    4    0    0 -0.68948008034E+02 -0.67750675472E+02  0.36946813484E+03  0.38190402525E+03  0.00000000000E+00 0. -1.
         11    1    4    4    0    0  0.58283507170E+01  0.19860903659E+02  0.39788313367E+02  0.44850139875E+02  0.00000000000E+00 0.  1.
        -13    1    3    3    0    0  0.61720532330E+01 -0.29189627095E+02  0.29099088876E+02  0.41675958831E+02  0.00000000000E+00 0. -1.
         13    1    3    3    0    0  0.70292765449E+02  0.56557601973E+02  0.14942357226E+03  0.17454867276E+03  0.00000000000E+00 0.  1.
         21    1    1    2  502  501 -0.13345161365E+02  0.20521796935E+02  0.55221564636E+02  0.60404128022E+02  0.00000000000E+00 0.  1.
<scales pt_clust_5="13000.00000" pt_clust_6="13000.00000" pt_clust_7="13000.00000" pt_clust_8="13000.00000" pt_clust_9="24.47933"></scales>
<clustering>
<clus scale="   24.479">  1  9  2 -1</clus>
<clus scale="   91.032">  7  8 -1 -1</clus>
<clus scale="   91.382">  5  6 -1 -1</clus>
<clus scale="  121.038">  2  7  1 -1</clus>
<clus scale="   24.479">  1  5  2 -1</clus>
</clustering>
</event>
<event>
 9    1  0.1803370E-005  0.1935360E+03  0.7546771E-02  0.1186862E+00
          1   -1    0    0  502    0  0.00000000000E+00  0.00000000000E+00  0.56962423712E+03  0.56962423712E+03  0.00000000000E+00 0. -1.
         -1   -1    0    0    0  501 -0.00000000000E+00 -0.00000000000E+00 -0.10058387635E+03  0.10058387635E+03  0.00000000000E+00 0.  1.
         23    2    1    2    0    0  0.81241689986E+01 -0.20366516396E+02  0.63013368096E+02  0.11330017622E+03  0.91572093240E+02 0.  0.
         23    2    1    2    0    0  0.12362924341E+02 -0.16111700056E+03  0.27423150174E+03  0.33168351729E+03  0.93271160195E+02 0.  0.
        -11    1    4    4    0    0 -0.18576443923E+02 -0.11645144135E+03  0.12036171473E+03  0.16850212116E+03  0.00000000000E+00 0.  1.
         11    1    4    4    0    0  0.30939368264E+02 -0.44665559207E+02  0.15386978701E+03  0.16318139613E+03  0.00000000000E+00 0. -1.
        -13    1    3    3    0    0  0.46755539685E+02 -0.27806642045E+02  0.41799104448E+02  0.68603607526E+02  0.00000000000E+00 0. -1.
         13    1    3    3    0    0 -0.38631370686E+02  0.74401256486E+01  0.21214263648E+02  0.44696568693E+02  0.00000000000E+00 0.  1.
         21    1    1    2  502  501 -0.20487093340E+02  0.18148351695E+03  0.13179549093E+03  0.22522441997E+03  0.00000000000E+00 0.  1.
<scales pt_clust_5="13000.00000" pt_clust_6="13000.00000" pt_clust_7="13000.00000" pt_clust_8="13000.00000" pt_clust_9="169.57797"></scales>
<clustering>
<clus scale="   91.572">  7  8 -1 -1</clus>
<clus scale="   93.271">  5  6 -1 -1</clus>
<clus scale="   94.161">  2  7  1 -1</clus>
<clus scale="  169.578">  2  9  1 -1</clus>
<clus scale="  193.536">  1  5  2 -1</clus>
</clustering>
</event>
<event>
 9    1  0.1803370E-005  0.1208091E+03  0.7546771E-02  0.1242549E+00
         -1   -1    0    0    0  501 -0.00000000000E+00  0.00000000000E+00  0.19661006796E+03  0.19661006796E+03  0.00000000000E+00 0.  1.
          1   -1    0    0  502    0  0.00000000000E+00 -0.00000000000E+00 -0.10849245119E+03  0.10849245119E+03  0.00000000000E+00 0. -1.
         23    2    1    2    0    0  0.73273462201E+01 -0.54535562092E+02  0.86561645584E+02  0.13836362748E+03  0.92864187868E+02 0.  0.
         23    2    1    2    0    0 -0.14772946560E+02  0.81969393167E+02 -0.23656126898E+02  0.12874281369E+03  0.95277900745E+02 0.  0.
        -13    1    4    4    0    0  0.27212460526E+02  0.26277411732E+01  0.14798346138E+02  0.31087201225E+02  0.00000000000E+00 0.  1.
         13    1    4    4    0    0 -0.41985407086E+02  0.79341651994E+02 -0.38454473035E+02  0.97655612464E+02  0.00000000000E+00 0. -1.
        -13    1    3    3    0    0  0.12108548458E+02  0.24136111004E+02  0.10937802974E+02  0.29134246756E+02  0.00000000000E+00 0. -1.
         13    1    3    3    0    0 -0.47812022376E+01 -0.78671673096E+02  0.75623842610E+02  0.10922938073E+03  0.00000000000E+00 0.  1.
         21    1    1    2  502  501  0.74456003400E+01 -0.27433831075E+02  0.25212098086E+02  0.37996077979E+02  0.00000000000E+00 0.  1.
<scales pt_clust_5="13000.00000" pt_clust_6="13000.00000" pt_clust_7="13000.00000" pt_clust_8="13000.00000" pt_clust_9="28.42626"></scales>
<clustering>
<clus scale="   28.426">  1  9  2 -1</clus>
<clus scale="   92.864">  7  8 -1 -1</clus>
<clus scale="   95.278">  5  6 -1 -1</clus>
<clus scale="  118.915">  1  7  2 -1</clus>
<clus scale="  120.809">  2  5  1 -1</clus>
</clustering>
</event>
<event>
 9    1  0.1803370E-005  0.1941758E+03  0.7546771E-02  0.1154815E+00
         -1   -1    0    0    0  501 -0.00000000000E+00  0.00000000000E+00  0.60160399723E+03  0.60160399723E+03  0.00000000000E+00 0.  1.
          1   -1    0    0  502    0  0.00000000000E+00 -0.00000000000E+00 -0.84625998190E+02  0.84625998190E+02  0.00000000000E+00 0. -1.
         23    2    1    2    0    0  0.61827207650E+02 -0.16662655034E+03  0.38354620409E+03  0.43244369271E+03  0.91174809110E+02 0.  0.
         23    2    1    2    0    0 -0.40654607664E+02  0.15484116757E+03  0.13695018903E+03  0.22930052451E+03  0.90525090259E+02 0.  0.
        -11    1    4    4    0    0  0.95468774055E+01  0.46127854241E+02  0.88243232445E+02  0.10002894520E+03  0.00000000000E+00 0.  1.
         11    1    4    4    0    0 -0.50201485069E+02  0.10871331332E+03  0.48706956583E+02  0.12927157931E+03  0.00000000000E+00 0. -1.
        -13    1    3    3    0    0  0.67022821687E+02 -0.10740855650E+03  0.32594227705E+03  0.34966701962E+03  0.00000000000E+00 0.  1.
         13    1    3    3    0    0 -0.51956140368E+01 -0.59217993841E+02  0.57603927031E+02  0.82776673098E+02  0.00000000000E+00 0. -1.
         21    1    1    2  502  501 -0.21172599986E+02  0.11785382772E+02 -0.35183940731E+01  0.24485778201E+02  0.00000000000E+00 0.  1.
<scales pt_clust_5="13000.00000" pt_clust_6="13000.00000" pt_clust_7="13000.00000" pt_clust_8="13000.00000" pt_clust_9="24.23168"></scales>
<clustering>
<clus scale="   24.232">  2  9  1 -1</clus>
<clus scale="   90.525">  5  6 -1 -1</clus>
<clus scale="   91.175">  7  8 -1 -1</clus>
<clus scale="  193.872">  2  5  1 -1</clus>
<clus scale="   24.232">  2  5  1 -1</clus>
</clustering>
</event>
<event>
 9    1  0.1803370E-005  0.1557832E+03  0.7546771E-02  0.1196249E+00
          4   -1    0    0  502    0  0.00000000000E+00  0.00000000000E+00  0.14428753279E+03  0.14428753279E+03  0.00000000000E+00 0. -1.
         -4   -1    0    0    0  501 -0.00000000000E+00 -0.00000000000E+00 -0.73743853742E+03  0.73743853742E+03  0.00000000000E+00 0.  1.
         23    2    1    2    0    0 -0.10823572902E+03  0.61310128906E+02 -0.42363577145E+03  0.45410277022E+03  0.10615156204E+03 0.  0.
         23    2    1    2    0    0  0.10967499842E+03 -0.17665299647E+01 -0.27289582223E+03  0.30831253827E+03  0.92481163278E+02 0.  0.
        -13    1    3    3    0    0 -0.81757336625E+02  0.40630469186E+02 -0.40603931616E+03  0.41617667328E+03  0.00000000000E+00 0.  1.
         13    1    3    3    0    0 -0.26478392393E+02  0.20679659721E+02 -0.17596455294E+02  0.37926096936E+02  0.00000000000E+00 0. -1.
        -13    1    4    4    0    0  0.93279489256E+02  0.27788026877E+02 -0.24776120413E+03  0.26619326029E+03  0.00000000000E+00 0.  1.
         13    1    4    4    0    0  0.16395509164E+02 -0.29554556841E+02 -0.25134618101E+02  0.42119277984E+02  0.00000000000E+00 0. -1.
         21    1    1    2  502  501 -0.14392694028E+01 -0.59543598941E+02  0.10338058904E+03  0.11931076172E+03  0.00000000000E+00 0. -1.
<scales pt_clust_5="13000.00000" pt_clust_6="13000.00000" pt_clust_7="13000.00000" pt_clust_8="13000.00000" pt_clust_9="59.56099"></scales>
<clustering>
<clus scale="   59.561">  1  9  2 -1</clus>
<clus scale="   92.481">  7  8 -1 -1</clus>
<clus scale="  106.152">  5  6 -1 -1</clus>
<clus scale="  146.809">  1  7  2 -1</clus>
<clus scale="   59.561">  1  5  2 -1</clus>
</clustering>
</event>
<event>
 9    1  0.1803370E-005  0.1044376E+03  0.7546771E-02  0.1272224E+00
          1   -1    0    0  502    0  0.00000000000E+00  0.00000000000E+00  0.74789678875E+02  0.74789678875E+02  0.00000000000E+00 0. -1.
         -1   -1    0    0    0  501 -0.00000000000E+00 -0.00000000000E+00 -0.24105448159E+03  0.24105448159E+03  0.00000000000E+00 0.  1.
         23    2    1    2    0    0  0.63464951334E+02  0.32178033817E+02 -0.87789077468E+02  0.14265596608E+03  0.87066506918E+02 0.  0.
         23    2    1    2    0    0 -0.10744586269E+02 -0.44212681500E+02 -0.51940621188E+02  0.11295214716E+03  0.89387650602E+02 0.  0.
        -11    1    4    4    0    0 -0.14835783608E+02  0.25018886464E+02 -0.25659027191E+02  0.38786993072E+02  0.00000000000E+00 0. -1.
         11    1    4    4    0    0  0.40911973398E+01 -0.69231567964E+02 -0.26281593997E+02  0.74165154092E+02  0.00000000000E+00 0.  1.
        -11    1    3    3    0    0  0.85554178120E+02  0.27336784302E+02 -0.69169357176E+02  0.11336320894E+03  0.00000000000E+00 0.  1.
         11    1    3    3    0    0 -0.22089226785E+02  0.48412495151E+01 -0.18619720292E+02  0.29292757135E+02  0.00000000000E+00 0. -1.
         21    1    1    2  502  501 -0.52720365066E+02  0.12034647683E+02 -0.26535104059E+02  0.60236047222E+02  0.00000000000E+00 0. -1.
<scales pt_clust_5="13000.00000" pt_clust_6="13000.00000" pt_clust_7="13000.00000" pt_clust_8="13000.00000" pt_clust_9="54.07652"></scales>
<clustering>
<clus scale="   54.077">  1  9  2 -1</clus>
<clus scale="   87.067">  7  8 -1 -1</clus>
<clus scale="   89.388">  5  6 -1 -1</clus>
<clus scale="  102.458">  2  7  1 -1</clus>
<clus scale="   54.077">  1  5  2 -1</clus>
</clustering>
</event>
<event>
 9    1  0.1803370E-005  0.1093696E+03  0.7546771E-02  0.1262220E+00
          1   -1    0    0  502    0  0.00000000000E+00  0.00000000000E+00  0.29797333359E+03  0.29797333359E+03  0.00000000000E+00 0. -1.
         -1   -1    0    0    0  501 -0.00000000000E+00 -0.00000000000E+00 -0.11548282465E+03  0.11548282465E+03  0.00000000000E+00 0.  1.
         23    2    1    2    0    0 -0.33985713499E+02 -0.55238566229E+02 -0.29011990683E+02  0.11334369080E+03  0.88310637630E+02 0.  0.
         23    2    1    2    0    0 -0.46051876634E+02  0.79512966631E+02  0.11385328489E+03  0.17154096404E+03  0.89558051906E+02 0.  0.
        -11    1    3    3    0    0 -0.26565561819E+02  0.20291314678E+02 -0.12393617874E+02  0.35652044683E+02  0.00000000000E+00 0. -1.
         11    1    3    3    0    0 -0.74201516802E+01 -0.75529880907E+02 -0.16618372809E+02  0.77691646112E+02  0.00000000000E+00 0.  1.
        -11    1    4    4    0    0 -0.48121618472E+02  0.92059233026E+01  0.79202561029E+02  0.93131546008E+02  0.00000000000E+00 0.  1.
         11    1    4    4    0    0  0.20697418383E+01  0.70307043328E+02  0.34650723861E+02  0.78409418037E+02  0.00000000000E+00 0. -1.
         21    1    1    2  502  501  0.80037590133E+02 -0.24274400402E+02  0.97649214733E+02  0.12857150340E+03  0.00000000000E+00 0.  1.
<scales pt_clust_5="13000.00000" pt_clust_6="13000.00000" pt_clust_7="13000.00000" pt_clust_8="13000.00000" pt_clust_9="83.63768"></scales>
<clustering>
<clus scale="   83.638">  1  9  2 -1</clus>
<clus scale="   88.311">  5  6 -1 -1</clus>
<clus scale="   89.558">  7  8 -1 -1</clus>
<clus scale="  108.351">  2  5  1 -1</clus>
<clus scale="   83.638">  1  5  2 -1</clus>
</clustering>
</event>
<event>
 9    1  0.1803370E-005  0.9349139E+02  0.7546771E-02  0.1295359E+00
          1   -1    0    0  502    0  0.00000000000E+00  0.00000000000E+00  0.77854560792E+02  0.77854560792E+02  0.00000000000E+00 0. -1.
         -1   -1    0    0    0  501 -0.00000000000E+00 -0.00000000000E+00 -0.38903556116E+03  0.38903556116E+03  0.00000000000E+00 0.  1.
         23    2    1    2    0    0  0.84136447831E+01  0.90319281736E+01 -0.23692617344E+03  0.25439720556E+03  0.91823533993E+02 0.  0.
         23    2    1    2    0    0  0.29254826753E+02 -0.35616138180E+02 -0.11323936343E+03  0.15211553605E+03  0.90507616757E+02 0.  0.
        -11    1    4    4    0    0  0.10189189575E+02 -0.60662582014E+02 -0.10117240694E+03  0.11840449471E+03  0.00000000000E+00 0.  1.
         11    1    4    4    0    0  0.19065637178E+02  0.25046443834E+02 -0.12066956496E+02  0.33711041349E+02  0.00000000000E+00 0. -1.
        -13    1    3    3    0    0 -0.35559300990E+02  0.20594968272E+02 -0.15853732831E+03  0.16377637520E+03  0.00000000000E+00 0.  1.
         13    1    3    3    0    0  0.43972945773E+02 -0.11563040099E+02 -0.78388845126E+02  0.90620830368E+02  0.00000000000E+00 0. -1.
         21    1    1    2  502  501 -0.37668471536E+02  0.26584210006E+02  0.38984536502E+02  0.60377380333E+02  0.00000000000E+00 0. -1.
<scales pt_clust_5="13000.00000" pt_clust_6="13000.00000" pt_clust_7="13000.00000" pt_clust_8="13000.00000" pt_clust_9="46.10460"></scales>
<clustering>
<clus scale="   46.105">  1  9  2 -1</clus>
<clus scale="   90.508">  5  6 -1 -1</clus>
<clus scale="   91.824">  7  8 -1 -1</clus>
<clus scale="   92.199">  1  5  2 -1</clus>
<clus scale="   46.105">  1  5  2 -1</clus>
</clustering>
</event>
<event>
 9    1  0.1803370E-005  0.1014482E+03  0.7546771E-02  0.1282749E+00
         -2   -1    0    0    0  501 -0.00000000000E+00  0.00000000000E+00  0.56270117936E+02  0.56270117936E+02  0.00000000000E+00 0.  1.
          2   -1    0    0  502    0  0.00000000000E+00 -0.00000000000E+00 -0.25131375506E+03  0.25131375506E+03  0.00000000000E+00 0. -1.
         23    2    1    2    0    0 -0.49969682256E+02  0.38138861335E+01 -0.50971139794E+02  0.10919129230E+03  0.82541906623E+02 0.  0.
         23    2    1    2    0    0  0.26777213423E+02  0.39357309613E+01 -0.68724700629E+02  0.11917618313E+03  0.93527370393E+02 0.  0.
        -11    1    4    4    0    0  0.14516900809E+01  0.45779681061E+02 -0.19492339127E+02  0.49777885520E+02  0.00000000000E+00 0. -1.
         11    1    4    4    0    0  0.25325523342E+02 -0.41843950100E+02 -0.49232361502E+02  0.69398297613E+02  0.00000000000E+00 0.  1.
        -13    1    3    3    0    0  0.12321662271E+01 -0.27870629544E+02  0.33480805505E+01  0.28098040291E+02  0.00000000000E+00 0.  1.
         13    1    3    3    0    0 -0.51201848483E+02  0.31684515678E+02 -0.54319220344E+02  0.81093252005E+02  0.00000000000E+00 0. -1.
         21    1    1    2  502  501  0.23192468833E+02 -0.77496170947E+01 -0.75347796702E+02  0.79216397567E+02  0.00000000000E+00 0.  1.
<scales pt_clust_5="13000.00000" pt_clust_6="13000.00000" pt_clust_7="13000.00000" pt_clust_8="13000.00000" pt_clust_9="24.45296"></scales>
<clustering>
<clus scale="   24.453">  2  9  1 -1</clus>
<clus scale="   82.542">  7  8 -1 -1</clus>
<clus scale="   91.420">  1  7  2 -1</clus>
<clus scale="   93.527">  5  6 -1 -1</clus>
<clus scale="   24.453">  2  5  1 -1</clus>
</clustering>
</event>
<event>
 9    1  0.1803370E-005  0.1170606E+03  0.7546771E-02  0.1248743E+00
         -1   -1    0    0    0  501 -0.00000000000E+00  0.00000000000E+00  0.29255198523E+03  0.29255198523E+03  0.00000000000E+00 0.  1.
          1   -1    0    0  502    0  0.00000000000E+00 -0.00000000000E+00 -0.12453836769E+03  0.12453836769E+03  0.00000000000E+00 0. -1.
         23    2    1    2    0    0  0.49883223254E+02  0.57890444869E+02  0.22629254802E+03  0.25512197888E+03  0.89661960974E+02 0.  0.
         23    2    1    2    0    0 -0.30183030318E+02 -0.65768064126E+02 -0.15977488349E+02  0.11464431575E+03  0.87473341211E+02 0.  0.
        -11    1    3    3    0    0  0.25961356514E+02  0.79453246795E+02  0.14050539404E+03  0.16348876479E+03  0.00000000000E+00 0.  1.
         11    1    3    3    0    0  0.23921866739E+02 -0.21562801926E+02  0.85787153984E+02  0.91633214087E+02  0.00000000000E+00 0. -1.
        -11    1    4    4    0    0 -0.89162395027E+01 -0.68491687390E+02 -0.42069608503E+02  0.80873126118E+02  0.00000000000E+00 0. -1.
         11    1    4    4    0    0 -0.21266790815E+02  0.27236232644E+01  0.26092120154E+02  0.33771189636E+02  0.00000000000E+00 0.  1.
         21    1    1    2  502  501 -0.19700192936E+02  0.78776192574E+01 -0.42301442132E+02  0.47324058293E+02  0.00000000000E+00 0. -1.
<scales pt_clust_5="13000.00000" pt_clust_6="13000.00000" pt_clust_7="13000.00000" pt_clust_8="13000.00000" pt_clust_9="21.21684"></scales>
<clustering>
<clus scale="   21.217">  2  9  1 -1</clus>
<clus scale="   87.473">  7  8 -1 -1</clus>
<clus scale="   89.662">  5  6 -1 -1</clus>
<clus scale="  115.393">  2  7  1 -1</clus>
<clus scale="   21.217">  2  5  1 -1</clus>
</clustering>
</event>
<event>
 9    1  0.1803370E-005  0.9518401E+02  0.7546771E-02  0.1308750E+00
         -2   -1    0    0    0  501 -0.00000000000E+00  0.00000000000E+00  0.41268181736E+02  0.41268181736E+02  0.00000000000E+00 0.  1.
          2   -1    0    0  502    0  0.00000000000E+00 -0.00000000000E+00 -0.28345590236E+03  0.28345590236E+03  0.00000000000E+00 0. -1.
         23    2    1    2    0    0 -0.16455623157E+02 -0.10583376811E+02 -0.56884512392E+02  0.10828361023E+03  0.90037198405E+02 0.  0.
         23    2    1    2    0    0  0.41038646485E+02  0.30908810444E+02 -0.13863090482E+03  0.15990948949E+03  0.60934325220E+02 0.  0.
        -13    1    3    3    0    0 -0.19510189675E+02  0.23015631178E+02 -0.66649781509E+02  0.73161192956E+02  0.00000000000E+00 0. -1.
         13    1    3    3    0    0  0.30545665182E+01 -0.33599007988E+02  0.97652691162E+01  0.35122417276E+02  0.00000000000E+00 0.  1.
        -13    1    4    4    0    0 -0.75880109182E+01  0.21284771649E+02 -0.80010233199E+02  0.83139983344E+02  0.00000000000E+00 0.  1.
         13    1    4    4    0    0  0.48626657403E+02  0.96240387949E+01 -0.58620671621E+02  0.76769506148E+02  0.00000000000E+00 0. -1.
         21    1    1    2  502  501 -0.24583023328E+02 -0.20325433634E+02 -0.46672303415E+02  0.56530984375E+02  0.00000000000E+00 0. -1.
<scales pt_clust_5="13000.00000" pt_clust_6="13000.00000" pt_clust_7="13000.00000" pt_clust_8="13000.00000" pt_clust_9="31.89747"></scales>
<clustering>
<clus scale="   31.897">  2  9  1 -1</clus>
<clus scale="   60.934">  7  8 -1 -1</clus>
<clus scale="   68.310">  2  7  1 -1</clus>
<clus scale="   90.037">  5  6 -1 -1</clus>
<clus scale="   31.897">  2  5  1 -1</clus>
</clustering>
</event>
<event>
 9    1  0.1803370E-005  0.1041811E+03  0.7546771E-02  0.1273518E+00
          1   -1    0    0  502    0  0.00000000000E+00  0.00000000000E+00  0.33304442745E+03  0.33304442745E+03  0.00000000000E+00 0. -1.
         -1   -1    0    0    0  501 -0.00000000000E+00 -0.00000000000E+00 -0.50387455271E+02  0.50387455271E+02  0.00000000000E+00 0.  1.
         23    2    1    2    0    0 -0.24558924951E+02  0.50631735193E+02  0.56909515631E+02  0.11896388132E+03  0.88017036337E+02 0.  0.
         23    2    1    2    0    0  0.30681792673E+02 -0.24956924651E+02  0.12419373971E+03  0.15954020333E+03  0.92004190147E+02 0.  0.
        -11    1    3    3    0    0  0.89788326421E+01  0.65226138868E+02  0.47530721682E+02  0.81204914450E+02  0.00000000000E+00 0.  1.
         11    1    3    3    0    0 -0.33537757593E+02 -0.14594403675E+02  0.93787939483E+01  0.37758966868E+02  0.00000000000E+00 0. -1.
        -13    1    4    4    0    0  0.62011174860E+02 -0.83801445193E+01  0.62826597140E+02  0.88672396708E+02  0.00000000000E+00 0. -1.
         13    1    4    4    0    0 -0.31329382187E+02 -0.16576780132E+02  0.61367142570E+02  0.70867806619E+02  0.00000000000E+00 0.  1.
         21    1    1    2  502  501 -0.61228677220E+01 -0.25674810542E+02  0.10155371684E+03  0.10492779808E+03  0.00000000000E+00 0.  1.
<scales pt_clust_5="13000.00000" pt_clust_6="13000.00000" pt_clust_7="13000.00000" pt_clust_8="13000.00000" pt_clust_9="26.39480"></scales>
<clustering>
<clus scale="   26.395">  1  9  2 -1</clus>
<clus scale="   88.017">  5  6 -1 -1</clus>
<clus scale="   92.004">  7  8 -1 -1</clus>
<clus scale="  100.677">  2  5  1 -1</clus>
<clus scale="   26.395">  1  5  2 -1</clus>
</clustering>
</event>
<event>
 9    1  0.1803370E-005  0.9930338E+02  0.7546771E-02  0.1300310E+00
          1   -1    0    0  502    0  0.00000000000E+00  0.00000000000E+00  0.18925180230E+02  0.18925180230E+02  0.00000000000E+00 0. -1.
         -1   -1    0    0    0  501 -0.00000000000E+00 -0.00000000000E+00 -0.74880335314E+03  0.74880335314E+03  0.00000000000E+00 0.  1.
         23    2    1    2    0    0  0.48658967653E+01  0.36141286336E+02 -0.48764519823E+03  0.49738870326E+03  0.90927516443E+02 0.  0.
         23    2    1    2    0    0  0.19333341111E+02 -0.43475630676E+02 -0.23072828371E+03  0.24255937592E+03  0.57754665621E+02 0.  0.
        -11    1    4    4    0    0  0.39785094958E+02 -0.30755324558E+02 -0.16806660828E+03  0.17542841442E+03  0.00000000000E+00 0.  1.
         11    1    4    4    0    0 -0.20451753847E+02 -0.12720306118E+02 -0.62661675437E+02  0.67130961498E+02  0.00000000000E+00 0. -1.
        -11    1    3    3    0    0  0.63093616734E+01 -0.29619018918E+02 -0.11168327375E+03  0.11571623897E+03  0.00000000000E+00 0.  1.
         11    1    3    3    0    0 -0.14434649081E+01  0.65760305255E+02 -0.37596192448E+03  0.38167246429E+03  0.00000000000E+00 0. -1.
         21    1    1    2  502  501 -0.24199237876E+02  0.73343443396E+01 -0.11504690970E+02  0.27780454190E+02  0.00000000000E+00 0. -1.
<scales pt_clust_5="13000.00000" pt_clust_6="13000.00000" pt_clust_7="13000.00000" pt_clust_8="13000.00000" pt_clust_9="25.28628"></scales>
<clustering>
<clus scale="   25.286">  1  9  2 -1</clus>
<clus scale="   57.755">  5  6 -1 -1</clus>
<clus scale="   70.206">  1  5  2 -1</clus>
<clus scale="   90.928">  7  8 -1 -1</clus>
<clus scale="   25.286">  1  5  2 -1</clus>
</clustering>
</event>
<event>
 9    1  0.1803370E-005  0.1081225E+03  0.7546771E-02  0.1266024E+00
         -1   -1    0    0    0  501 -0.00000000000E+00  0.00000000000E+00  0.75242292747E+02  0.75242292747E+02  0.00000000000E+00 0.  1.
          1   -1    0    0  502    0  0.00000000000E+00 -0.00000000000E+00 -0.54451364735E+03  0.54451364735E+03  0.00000000000E+00 0. -1.
         23    2    1    2    0    0  0.24158706229E+01  0.58689291699E+02  0.24551378260E+02  0.10720569010E+03  0.86255553002E+02 0.  0.
         23    2    1    2    0    0  0.24780921275E+02 -0.54800244065E+02 -0.37242842840E+03  0.38808592846E+03  0.91052692315E+02 0.  0.
        -13    1    3    3    0    0 -0.33496384525E+02  0.34672905762E+02  0.38618345362E+02  0.61770500797E+02  0.00000000000E+00 0.  1.
         13    1    3    3    0    0  0.35912255148E+02  0.24016385936E+02 -0.14066967102E+02  0.45435189300E+02  0.00000000000E+00 0. -1.
        -13    1    4    4    0    0 -0.15282657317E+02  0.18856585379E+02 -0.10747700436E+03  0.11018365075E+03  0.00000000000E+00 0.  1.
         13    1    4    4    0    0  0.40063578592E+02 -0.73656829444E+02 -0.26495142405E+03  0.27790227771E+03  0.00000000000E+00 0. -1.
         21    1    1    2  502  501 -0.27196791898E+02 -0.38890476340E+01 -0.12139430446E+03  0.12446432154E+03  0.00000000000E+00 0. -1.
<scales pt_clust_5="13000.00000" pt_clust_6="13000.00000" pt_clust_7="13000.00000" pt_clust_8="13000.00000" pt_clust_9="27.47345"></scales>
<clustering>
<clus scale="   27.473">  2  9  1 -1</clus>
<clus scale="   86.256">  5  6 -1 -1</clus>
<clus scale="   91.053">  7  8 -1 -1</clus>
<clus scale="  104.115">  1  5  2 -1</clus>
<clus scale="   27.473">  2  5  1 -1</clus>
</clustering>
</event>
<event>
 9    1  0.1803370E-005  0.1039261E+03  0.7546771E-02  0.1275769E+00
          1   -1    0    0  502    0  0.00000000000E+00  0.00000000000E+00  0.31961952964E+03  0.31961952964E+03  0.00000000000E+00 0. -1.
         -1   -1    0    0    0  501 -0.00000000000E+00 -0.00000000000E+00 -0.11463768844E+03  0.11463768844E+03  0.00000000000E+00 0.  1.
         23    2    1    2    0    0  0.17378639414E+02  0.42795197756E+02 -0.72486353128E+02  0.12576298959E+03  0.91807473024E+02 0.  0.
         23    2    1    2    0    0 -0.26895502337E+02 -0.62997728995E+02  0.19563019753E+03  0.22366398230E+03  0.84037615930E+02 0.  0.
        -13    1    4    4    0    0  0.20924083770E+02 -0.46511817847E+02  0.59092708754E+02  0.78058405754E+02  0.00000000000E+00 0.  1.
         13    1    4    4    0    0 -0.47819586108E+02 -0.16485911148E+02  0.13653748877E+03  0.14560557655E+03  0.00000000000E+00 0. -1.
        -13    1    3    3    0    0 -0.10447832366E+02 -0.25321387070E+02 -0.30702592360E+02  0.41145826300E+02  0.00000000000E+00 0. -1.
         13    1    3    3    0    0  0.27826471780E+02  0.68116584826E+02 -0.41783760768E+02  0.84617163294E+02  0.00000000000E+00 0.  1.
         21    1    1    2  502  501  0.95168629238E+01  0.20202531239E+02  0.81837996797E+02  0.84830246187E+02  0.00000000000E+00 0.  1.
<scales pt_clust_5="13000.00000" pt_clust_6="13000.00000" pt_clust_7="13000.00000" pt_clust_8="13000.00000" pt_clust_9="22.33188"></scales>
<clustering>
<clus scale="   22.332">  1  9  2 -1</clus>
<clus scale="   84.038">  5  6 -1 -1</clus>
<clus scale="   91.807">  7  8 -1 -1</clus>
<clus scale="   97.131">  1  5  2 -1</clus>
<clus scale="   22.332">  1  5  2 -1</clus>
</clustering>
</event>
<event>
 9    1  0.1803370E-005  0.2606124E+03  0.7546771E-02  0.1106797E+00
         -1   -1    0    0    0  501 -0.00000000000E+00  0.00000000000E+00  0.14514538097E+03  0.14514538097E+03  0.00000000000E+00 0.  1.
          1   -1    0    0  502    0  0.00000000000E+00 -0.00000000000E+00 -0.75249179285E+03  0.75249179285E+03  0.00000000000E+00 0. -1.
         23    2    1    2    0    0 -0.99456234821E+02  0.19099947681E+03 -0.22933766003E+03  0.32741548197E+03  0.90734738329E+02 0.  0.
         23    2    1    2    0    0  0.22978375492E+02 -0.28813535477E+03 -0.25625199721E+03  0.39670238729E+03  0.90320039860E+02 0.  0.
        -11    1    4    4    0    0 -0.55864079391E+01 -0.20086061034E+03 -0.12544981451E+03  0.23688361847E+03  0.00000000000E+00 0. -1.
         11    1    4    4    0    0  0.28564783431E+02 -0.87274744428E+02 -0.13080218270E+03  0.15981876882E+03  0.00000000000E+00 0.  1.
        -11    1    3    3    0    0 -0.16951077691E+02  0.28116356067E+02  0.17765195796E+01  0.32878937562E+02  0.00000000000E+00 0. -1.
         11    1    3    3    0    0 -0.82505157129E+02  0.16288312075E+03 -0.23111417960E+03  0.29453654441E+03  0.00000000000E+00 0.  1.
         21    1    1    2  502  501  0.76477859329E+02  0.97135877952E+02 -0.12175675464E+03  0.17351930456E+03  0.00000000000E+00 0.  1.
<scales pt_clust_5="13000.00000" pt_clust_6="13000.00000" pt_clust_7="13000.00000" pt_clust_8="13000.00000" pt_clust_9="123.62945"></scales>
<clustering>
<clus scale="   90.320">  5  6 -1 -1</clus>
<clus scale="   90.735">  7  8 -1 -1</clus>
<clus scale="  123.629">  2  9  1 -1</clus>
<clus scale="  260.468">  2  5  1 -1</clus>
<clus scale="  123.629">  2  5  1 -1</clus>
</clustering>
</event>
<event>
 9    1  0.1803370E-005  0.1128856E+03  0.7546771E-02  0.1255589E+00
          3   -1    0    0  502    0  0.00000000000E+00  0.00000000000E+00  0.20998449755E+03  0.20998449755E+03  0.00000000000E+00 0. -1.
         -3   -1    0    0    0  501 -0.00000000000E+00 -0.00000000000E+00 -0.17162949956E+03  0.17162949956E+03  0.00000000000E+00 0.  1.
         23    2    1    2    0    0 -0.42472248901E+02  0.46340667705E+02 -0.10613082865E+03  0.15255910419E+03  0.89772925042E+02 0.  0.
         23    2    1    2    0    0  0.48018775416E+02 -0.87455985501E+02  0.12256490404E+03  0.18213197568E+03  0.90529269688E+02 0.  0.
        -13    1    3    3    0    0 -0.10223534107E+02  0.63189314657E+02 -0.94919134375E+02  0.11448603499E+03  0.00000000000E+00 0. -1.
         13    1    3    3    0    0 -0.32248714794E+02 -0.16848646952E+02 -0.11211694277E+02  0.38073069203E+02  0.00000000000E+00 0.  1.
        -13    1    4    4    0    0 -0.20728594482E+02 -0.26573982647E+02  0.68239630172E+01  0.34386300385E+02  0.00000000000E+00 0.  1.
         13    1    4    4    0    0  0.68747369898E+02 -0.60882002854E+02  0.11574094102E+03  0.14774567529E+03  0.00000000000E+00 0. -1.
         21    1    1    2  502  501 -0.55465265149E+01  0.41115317796E+02  0.21920922603E+02  0.46922917233E+02  0.00000000000E+00 0.  1.
<scales pt_clust_5="13000.00000" pt_clust_6="13000.00000" pt_clust_7="13000.00000" pt_clust_8="13000.00000" pt_clust_9="41.48775"></scales>
<clustering>
<clus scale="   41.488">  1  9  2 -1</clus>
<clus scale="   89.773">  5  6 -1 -1</clus>
<clus scale="   90.529">  7  8 -1 -1</clus>
<clus scale="  112.280">  2  5  1 -1</clus>
<clus scale="   41.488">  1  5  2 -1</clus>
</clustering>
</event>
<event>
 9    1  0.1803370E-005  0.1144891E+03  0.7546771E-02  0.1254413E+00
          2   -1    0    0  502    0  0.00000000000E+00  0.00000000000E+00  0.11726683089E+03  0.11726683089E+03  0.00000000000E+00 0. -1.
         -2   -1    0    0    0  501 -0.00000000000E+00 -0.00000000000E+00 -0.14106779159E+03  0.14106779159E+03  0.00000000000E+00 0.  1.
         23    2    1    2    0    0 -0.58184581211E+02 -0.53622188404E+02 -0.39115983093E+02  0.12257012414E+03  0.85044638972E+02 0.  0.
         23    2    1    2    0    0  0.48103487095E+02  0.33690079438E+02 -0.12507883644E+01  0.10795544384E+03  0.90575087410E+02 0.  0.
        -13    1    3    3    0    0 -0.56299395430E+02 -0.69157485605E+01  0.66997725692E+01  0.57116866654E+02  0.00000000000E+00 0. -1.
         13    1    3    3    0    0 -0.18851857809E+01 -0.46706439844E+02 -0.45815755663E+02  0.65453257484E+02  0.00000000000E+00 0.  1.
        -13    1    4    4    0    0  0.53934394226E+02 -0.13453705364E+02 -0.16636008608E+02  0.58023080330E+02  0.00000000000E+00 0.  1.
         13    1    4    4    0    0 -0.58309071312E+01  0.47143784802E+02  0.15385220244E+02  0.49932363507E+02  0.00000000000E+00 0. -1.
         21    1    1    2  502  501  0.10081094116E+02  0.19932108966E+02  0.16565810759E+02  0.27809054506E+02  0.00000000000E+00 0. -1.
<scales pt_clust_5="13000.00000" pt_clust_6="13000.00000" pt_clust_7="13000.00000" pt_clust_8="13000.00000" pt_clust_9="22.33646"></scales>
<clustering>
<clus scale="   22.336">  1  9  2 -1</clus>
<clus scale="   85.045">  5  6 -1 -1</clus>
<clus scale="   90.575">  7  8 -1 -1</clus>
<clus scale="  110.166">  2  5  1 -1</clus>
<clus scale="   22.336">  1  5  2 -1</clus>
</clustering>
</event>
<event>
 9    1  0.2363231E-005  0.1265317E+03  0.7546771E-02  0.1232827E+00
         -3   -1    0    0    0  501 -0.00000000000E+00  0.00000000000E+00  0.13417793852E+03  0.13417793852E+03  0.00000000000E+00 0.  1.
          3   -1    0    0  502    0  0.00000000000E+00 -0.00000000000E+00 -0.26504325805E+03  0.26504325805E+03  0.00000000000E+00 0. -1.
         23    2    1    2    0    0 -0.89897713832E+02  0.48225301594E+01  0.76397549919E+02  0.14997535798E+03  0.92472518172E+02 0.  0.
         23    2    1    2    0    0  0.66540100536E+02 -0.14276697788E+01 -0.18321864636E+03  0.21555269627E+03  0.92001463448E+02 0.  0.
        -11    1    4    4    0    0  0.54105955994E+02 -0.20459065357E+02 -0.18392674688E+03  0.19280839205E+03  0.00000000000E+00 0. -1.
         11    1    4    4    0    0  0.12434144542E+02  0.19031395578E+02  0.70810051704E+00  0.22744304220E+02  0.00000000000E+00 0.  1.
        -11    1    3    3    0    0 -0.84452472716E+02  0.25223795564E+02  0.89104065960E+02  0.12533153865E+03  0.00000000000E+00 0.  1.
         11    1    3    3    0    0 -0.54452411154E+01 -0.20401265405E+02 -0.12706516041E+02  0.24643819323E+02  0.00000000000E+00 0. -1.
         21    1    1    2  502  501  0.23357613296E+02 -0.33948603806E+01 -0.24044223083E+02  0.33693142322E+02  0.00000000000E+00 0. -1.
<scales pt_clust_5="13000.00000" pt_clust_6="13000.00000" pt_clust_7="13000.00000" pt_clust_8="13000.00000" pt_clust_9="23.60303"></scales>
<clustering>
<clus scale="   23.603">  2  9  1 -1</clus>
<clus scale="   92.001">  5  6 -1 -1</clus>
<clus scale="   92.473">  7  8 -1 -1</clus>
<clus scale="  126.188">  2  5  1 -1</clus>
<clus scale="   23.603">  2  5  1 -1</clus>
</clustering>
</event>
<event>
 9    1  0.1803370E-005  0.2192442E+03  0.7546771E-02  0.1135691E+00
          1   -1    0    0  502    0  0.00000000000E+00  0.00000000000E+00  0.23923122715E+03  0.23923122715E+03  0.00000000000E+00 0. -1.
         -1   -1    0    0    0  501 -0.00000000000E+00 -0.00000000000E+00 -0.41689896965E+03  0.41689896965E+03  0.00000000000E+00 0.  1.
         23    2    1    2    0    0 -0.89196998673E+02 -0.17516199082E+03 -0.32215130181E+03  0.38778608908E+03  0.89211893969E+02 0.  0.
         23    2    1    2    0    0  0.83711836558E+02  0.15247233133E+03  0.12591453652E+03  0.23851599583E+03  0.10382642418E+03 0.  0.
        -11    1    3    3    0    0 -0.82562680463E+02 -0.69889451001E+02 -0.19072994036E+03  0.21926933602E+03  0.00000000000E+00 0. -1.
         11    1    3    3    0    0 -0.66343182091E+01 -0.10527253982E+03 -0.13142136145E+03  0.16851675307E+03  0.00000000000E+00 0.  1.
        -11    1    4    4    0    0  0.70033887774E+02  0.46585948809E+02  0.96004116846E+02  0.12763928280E+03  0.00000000000E+00 0. -1.
         11    1    4    4    0    0  0.13677948784E+02  0.10588638252E+03  0.29910419676E+02  0.11087671303E+03  0.00000000000E+00 0.  1.
         21    1    1    2  502  501  0.54851621150E+01  0.22689659492E+02  0.18569022794E+02  0.29828111888E+02  0.00000000000E+00 0. -1.
<scales pt_clust_5="13000.00000" pt_clust_6="13000.00000" pt_clust_7="13000.00000" pt_clust_8="13000.00000" pt_clust_9="23.34326"></scales>
<clustering>
<clus scale="   23.343">  1  9  2 -1</clus>
<clus scale="   89.212">  5  6 -1 -1</clus>
<clus scale="  103.826">  7  8 -1 -1</clus>
<clus scale="  212.713">  2  5  1 -1</clus>
<clus scale="   23.343">  1  5  2 -1</clus>
</clustering>
</event>
<event>
 9    1  0.1803370E-005  0.2094412E+03  0.7546771E-02  0.1142062E+00
         -1   -1    0    0    0  501 -0.00000000000E+00  0.00000000000E+00  0.21142671021E+03  0.21142671021E+03  0.00000000000E+00 0.  1.
          1   -1    0    0  502    0  0.00000000000E+00 -0.00000000000E+00 -0.37450729299E+03  0.37450729299E+03  0.00000000000E+00 0. -1.
         23    2    1    2    0    0  0.43273037978E+02  0.17726108667E+03  0.79905462962E+02  0.21957937713E+03  0.92391402118E+02 0.  0.
         23    2    1    2    0    0 -0.33728685898E+02 -0.20217054901E+03 -0.15110963440E+03  0.27068409282E+03  0.91788895613E+02 0.  0.
        -11    1    4    4    0    0  0.23782679220E+02 -0.88022747825E+02 -0.93122648021E+02  0.13032823002E+03  0.00000000000E+00 0.  1.
         11    1    4    4    0    0 -0.57511365118E+02 -0.11414780118E+03 -0.57986986377E+02  0.14035586280E+03  0.00000000000E+00 0. -1.
        -13    1    3    3    0    0  0.14292540691E+02  0.15030875158E+03  0.93664271498E+02  0.17767946779E+03  0.00000000000E+00 0.  1.
         13    1    3    3    0    0  0.28980497287E+02  0.26952335095E+02 -0.13758808536E+02  0.41899909337E+02  0.00000000000E+00 0. -1.
         21    1    1    2  502  501 -0.95443520804E+01  0.24909462337E+02 -0.91876411344E+02  0.95670533248E+02  0.00000000000E+00 0. -1.
<scales pt_clust_5="13000.00000" pt_clust_6="13000.00000" pt_clust_7="13000.00000" pt_clust_8="13000.00000" pt_clust_9="26.67538"></scales>
<clustering>
<clus scale="   26.675">  2  9  1 -1</clus>
<clus scale="   91.789">  5  6 -1 -1</clus>
<clus scale="   92.391">  7  8 -1 -1</clus>
<clus scale="  209.176">  2  5  1 -1</clus>
<clus scale="   26.675">  2  5  1 -1</clus>
</clustering>
</event>
<event>
 9    1  0.1803370E-005  0.1693315E+03  0.7546771E-02  0.1178656E+00
          2   -1    0    0  502    0  0.00000000000E+00  0.00000000000E+00  0.93976036516E+03  0.93976036516E+03  0.00000000000E+00 0. -1.
         -2   -1    0    0    0  501 -0.00000000000E+00 -0.00000000000E+00 -0.70175405308E+02  0.70175405308E+02  0.00000000000E+00 0.  1.
         23    2    1    2    0    0  0.12049664792E+02  0.16094710781E+03  0.14493182194E+03  0.23511218246E+03  0.90682630069E+02 0.  0.
         23    2    1    2    0    0  0.84846002378E+02 -0.95926309753E+02  0.43141898628E+03  0.45922456681E+03  0.91455781746E+02 0.  0.
        -11    1    4    4    0    0  0.84479511544E+02 -0.61283854417E+02  0.39661504903E+03  0.41011705134E+03  0.00000000000E+00 0. -1.
         11    1    4    4    0    0  0.36649083359E+00 -0.34642455337E+02  0.34803937250E+02  0.49107515467E+02  0.00000000000E+00 0.  1.
        -11    1    3    3    0    0 -0.20894685994E+02  0.21799098598E+01  0.28877671534E+02  0.35710780207E+02  0.00000000000E+00 0. -1.
         11    1    3    3    0    0  0.32944350786E+02  0.15876719795E+03  0.11605415040E+03  0.19940140225E+03  0.00000000000E+00 0.  1.
         21    1    1    2  502  501 -0.96895667171E+02 -0.65020798060E+02  0.29323415164E+03  0.31559902120E+03  0.00000000000E+00 0. -1.
<scales pt_clust_5="13000.00000" pt_clust_6="13000.00000" pt_clust_7="13000.00000" pt_clust_8="13000.00000" pt_clust_9="116.68965"></scales>
<clustering>
<clus scale="   90.683">  7  8 -1 -1</clus>
<clus scale="   91.456">  5  6 -1 -1</clus>
<clus scale="  116.690">  1  9  2 -1</clus>
<clus scale="  168.915">  2  7  1 -1</clus>
<clus scale="  116.690">  1  5  2 -1</clus>
</clustering>
</event>
<event>
 9    1  0.1803370E-005  0.1046803E+03  0.7546771E-02  0.1271115E+00
         -3   -1    0    0    0  501 -0.00000000000E+00  0.00000000000E+00  0.14099217317E+03  0.14099217317E+03  0.00000000000E+00 0.  1.
          3   -1    0    0  502    0  0.00000000000E+00 -0.00000000000E+00 -0.12354626056E+03  0.12354626056E+03  0.00000000000E+00 0. -1.
         23    2    1    2    0    0 -0.24821577159E+02  0.23171586927E+02  0.43395217831E+02  0.10640845075E+03  0.91030655968E+02 0.  0.
         23    2    1    2    0    0  0.93751579743E+01 -0.61503350779E+02 -0.33961784447E+02  0.11603347709E+03  0.91868434504E+02 0.  0.
        -11    1    3    3    0    0 -0.55330929639E+02  0.26789762551E+02  0.44132996316E+02  0.75676446244E+02  0.00000000000E+00 0. -1.
         11    1    3    3    0    0  0.30509352480E+02 -0.36181756240E+01 -0.73777848552E+00  0.30732004501E+02  0.00000000000E+00 0.  1.
        -11    1    4    4    0    0 -0.21898848943E+02 -0.70830077481E+02 -0.37721045065E+02  0.83182550465E+02  0.00000000000E+00 0. -1.
         11    1    4    4    0    0  0.31274006917E+02  0.93267267022E+01  0.37592606178E+01  0.32850926623E+02  0.00000000000E+00 0.  1.
         21    1    1    2  502  501  0.15446419185E+02  0.38331763852E+02  0.80124792311E+01  0.42096505901E+02  0.00000000000E+00 0. -1.
<scales pt_clust_5="13000.00000" pt_clust_6="13000.00000" pt_clust_7="13000.00000" pt_clust_8="13000.00000" pt_clust_9="41.32694"></scales>
<clustering>
<clus scale="   41.327">  1  9  2 -1</clus>
<clus scale="   91.031">  5  6 -1 -1</clus>
<clus scale="   91.868">  7  8 -1 -1</clus>
<clus scale="  103.946">  1  5  2 -1</clus>
<clus scale="  104.680">  2  5  1 -1</clus>
</clustering>
</event>
<event>
 9    1  0.1803370E-005  0.1057959E+03  0.7546771E-02  0.1270270E+00
          2   -1    0    0  502    0  0.00000000000E+00  0.00000000000E+00  0.20689448013E+02  0.20689448013E+02  0.00000000000E+00 0. -1.
         -2   -1    0    0    0  501 -0.00000000000E+00 -0.00000000000E+00 -0.66415219739E+03  0.66415219739E+03  0.00000000000E+00 0.  1.
         23    2    1    2    0    0  0.34399573073E+01  0.59567409348E+02 -0.30781069562E+03  0.32730969271E+03  0.93936686327E+02 0.  0.
         23    2    1    2    0    0  0.65584433222E+01 -0.39921925503E+02 -0.24278619072E+03  0.26208572926E+03  0.90039001348E+02 0.  0.
        -11    1    4    4    0    0  0.45697964772E+02 -0.21172170179E+02 -0.17039435128E+03  0.17768173717E+03  0.00000000000E+00 0.  1.
         11    1    4    4    0    0 -0.39139521450E+02 -0.18749755324E+02 -0.72391839435E+02  0.84403992090E+02  0.00000000000E+00 0. -1.
        -11    1    3    3    0    0 -0.25073977703E+02  0.66862698481E+02 -0.14241098226E+03  0.15931168405E+03  0.00000000000E+00 0. -1.
         11    1    3    3    0    0  0.28513935010E+02 -0.72952891324E+01 -0.16539971336E+03  0.16799800866E+03  0.00000000000E+00 0.  1.
         21    1    1    2  502  501 -0.99984006295E+01 -0.19645483846E+02 -0.92865863038E+02  0.95446223437E+02  0.00000000000E+00 0. -1.
<scales pt_clust_5="13000.00000" pt_clust_6="13000.00000" pt_clust_7="13000.00000" pt_clust_8="13000.00000" pt_clust_9="22.04344"></scales>
<clustering>
<clus scale="   22.043">  2  9  1 -1</clus>
<clus scale="   90.039">  5  6 -1 -1</clus>
<clus scale="   93.937">  7  8 -1 -1</clus>
<clus scale="  102.351">  1  5  2 -1</clus>
<clus scale="  102.351">  1  5  2 -1</clus>
</clustering>
</event>
<event>
 9    1  0.1803370E-005  0.1128790E+03  0.7546771E-02  0.1256356E+00
          1   -1    0    0  502    0  0.00000000000E+00  0.00000000000E+00  0.24796230965E+03  0.24796230965E+03  0.00000000000E+00 0. -1.
         -1   -1    0    0    0  501 -0.00000000000E+00 -0.00000000000E+00 -0.37055938285E+03  0.37055938285E+03  0.00000000000E+00 0.  1.
         23    2    1    2    0    0 -0.44616902585E+01  0.81144045738E+02 -0.19079222549E+03  0.22569146857E+03  0.89054493648E+02 0.  0.
         23    2    1    2    0    0 -0.36948964076E+02 -0.53319781421E+02 -0.14114173350E+03  0.17763040114E+03  0.86158838416E+02 0.  0.
        -13    1    4    4    0    0 -0.19962153861E+02 -0.35875363985E+01  0.61906622906E+01  0.21205713942E+02  0.00000000000E+00 0. -1.
         13    1    4    4    0    0 -0.16986810215E+02 -0.49732245023E+02 -0.14733239579E+03  0.15642468720E+03  0.00000000000E+00 0.  1.
        -13    1    3    3    0    0 -0.44549756420E+02  0.61350837027E+02 -0.12256792912E+03  0.14412322245E+03  0.00000000000E+00 0.  1.
         13    1    3    3    0    0  0.40088066161E+02  0.19793208711E+02 -0.68224296374E+02  0.81568246122E+02  0.00000000000E+00 0. -1.
         21    1    1    2  502  501  0.41410654335E+02 -0.27824264317E+02  0.20933688579E+03  0.21519982279E+03  0.00000000000E+00 0. -1.
<scales pt_clust_5="13000.00000" pt_clust_6="13000.00000" pt_clust_7="13000.00000" pt_clust_8="13000.00000" pt_clust_9="49.89020"></scales>
<clustering>
<clus scale="   49.890">  1  9  2 -1</clus>
<clus scale="   86.159">  5  6 -1 -1</clus>
<clus scale="   89.054">  7  8 -1 -1</clus>
<clus scale="  110.609">  1  5  2 -1</clus>
<clus scale="   49.890">  1  5  2 -1</clus>
</clustering>
</event>
<event>
 9    1  0.1803370E-005  0.2392412E+03  0.7546771E-02  0.1120347E+00
          1   -1    0    0  502    0  0.00000000000E+00  0.00000000000E+00  0.16311712345E+04  0.16311712345E+04  0.00000000000E+00 0. -1.
         -1   -1    0    0    0  501 -0.00000000000E+00 -0.00000000000E+00 -0.11566261011E+03  0.11566261011E+03  0.00000000000E+00 0.  1.
         23    2    1    2    0    0 -0.12369623966E+03 -0.18786302358E+03  0.42550070562E+02  0.24708092180E+03  0.92979557313E+02 0.  0.
         23    2    1    2    0    0  0.56785541439E+02  0.18521404945E+03  0.10757402182E+04  0.10969298044E+04  0.92244982564E+02 0.  0.
        -11    1    4    4    0    0 -0.52215209062E+01  0.12213268376E+03  0.72340412780E+03  0.73366013170E+03  0.00000000000E+00 0.  1.
         11    1    4    4    0    0  0.62007062346E+02  0.63081365688E+02  0.35233609040E+03  0.36326967266E+03  0.00000000000E+00 0. -1.
        -11    1    3    3    0    0 -0.92698407107E+02 -0.16554859959E+03 -0.22552215413E+00  0.18973503726E+03  0.00000000000E+00 0.  1.
         11    1    3    3    0    0 -0.30997832554E+02 -0.22314423996E+02  0.42775592716E+02  0.57345884538E+02  0.00000000000E+00 0. -1.
         21    1    1    2  502  501  0.66910698222E+02  0.26489741330E+01  0.39721833560E+03  0.40282311843E+03  0.00000000000E+00 0. -1.
<scales pt_clust_5="13000.00000" pt_clust_6="13000.00000" pt_clust_7="13000.00000" pt_clust_8="13000.00000" pt_clust_9="66.96311"></scales>
<clustering>
<clus scale="   66.963">  1  9  2 -1</clus>
<clus scale="   92.245">  5  6 -1 -1</clus>
<clus scale="   92.980">  7  8 -1 -1</clus>
<clus scale="  238.957">  1  5  2 -1</clus>
<clus scale="   66.963">  1  5  2 -1</clus>
</clustering>
</event>
<event>
 9    1  0.1803370E-005  0.1149261E+03  0.7546771E-02  0.1253262E+00
         -1   -1    0    0    0  501 -0.00000000000E+00  0.00000000000E+00  0.90346445911E+02  0.90346445911E+02  0.00000000000E+00 0.  1.
          1   -1    0    0  502    0  0.00000000000E+00 -0.00000000000E+00 -0.49951722387E+03  0.49951722387E+03  0.00000000000E+00 0. -1.
         23    2    1    2    0    0  0.23881120340E+02 -0.52266019758E+02  0.15265791202E+02  0.11253905027E+03  0.95550765174E+02 0.  0.
         23    2    1    2    0    0  0.15230165276E+02  0.11181324724E+03 -0.25324651769E+03  0.29190186285E+03  0.91316694096E+02 0.  0.
        -13    1    3    3    0    0  0.20858484945E+02 -0.90595888258E+01 -0.37755941011E+02  0.44075657971E+02  0.00000000000E+00 0.  1.
         13    1    3    3    0    0  0.30226353953E+01 -0.43206430932E+02  0.53021732214E+02  0.68463392302E+02  0.00000000000E+00 0. -1.
        -13    1    4    4    0    0  0.24356188060E+02  0.97729539734E+01 -0.12517406139E+03  0.12789558308E+03  0.00000000000E+00 0. -1.
         13    1    4    4    0    0 -0.91260227842E+01  0.10204029327E+03 -0.12807245630E+03  0.16400627978E+03  0.00000000000E+00 0.  1.
         21    1    1    2  502  501 -0.39111285616E+02 -0.59547227485E+02 -0.17119005147E+03  0.18542275666E+03  0.00000000000E+00 0. -1.
<scales pt_clust_5="13000.00000" pt_clust_6="13000.00000" pt_clust_7="13000.00000" pt_clust_8="13000.00000" pt_clust_9="71.24300"></scales>
<clustering>
<clus scale="   71.243">  2  9  1 -1</clus>
<clus scale="   91.317">  7  8 -1 -1</clus>
<clus scale="   95.551">  5  6 -1 -1</clus>
<clus scale="  111.431">  2  7  1 -1</clus>
<clus scale="   71.243">  2  5  1 -1</clus>
</clustering>
</event>
<event>
 9    1  0.1803370E-005  0.9551100E+02  0.7546771E-02  0.1290391E+00
         -2   -1    0    0    0  501 -0.00000000000E+00  0.00000000000E+00  0.13692157123E+03  0.13692157123E+03  0.00000000000E+00 0.  1.
          2   -1    0    0  502    0  0.00000000000E+00 -0.00000000000E+00 -0.20878195943E+03  0.20878195943E+03  0.00000000000E+00 0. -1.
         23    2    1    2    0    0  0.18146314741E+02  0.25618245523E+02  0.92338522037E+02  0.13349289510E+03  0.91150244921E+02 0.  0.
         23    2    1    2    0    0 -0.22611599335E+01 -0.99630288816E+00 -0.75830906288E+02  0.11911132125E+03  0.91820885630E+02 0.  0.
        -11    1    3    3    0    0  0.14540471838E+02 -0.33226402805E+02  0.25312908388E+02  0.44228525814E+02  0.00000000000E+00 0. -1.
         11    1    3    3    0    0  0.36058429032E+01  0.58844648328E+02  0.67025613649E+02  0.89264369291E+02  0.00000000000E+00 0.  1.
        -13    1    4    4    0    0 -0.23514944185E+02  0.39531102345E+02 -0.35297573904E+02  0.57979128797E+02  0.00000000000E+00 0.  1.
         13    1    4    4    0    0  0.21253784252E+02 -0.40527405233E+02 -0.40533332385E+02  0.61132192453E+02  0.00000000000E+00 0. -1.
         21    1    1    2  502  501 -0.15885154808E+02 -0.24621942634E+02 -0.88368003953E+02  0.93099314310E+02  0.00000000000E+00 0. -1.
<scales pt_clust_5="13000.00000" pt_clust_6="13000.00000" pt_clust_7="13000.00000" pt_clust_8="13000.00000" pt_clust_9="29.30151"></scales>
<clustering>
<clus scale="   29.302">  2  9  1 -1</clus>
<clus scale="   91.150">  5  6 -1 -1</clus>
<clus scale="   91.821">  7  8 -1 -1</clus>
<clus scale="   94.866">  1  5  2 -1</clus>
<clus scale="   29.302">  2  5  1 -1</clus>
</clustering>
</event>
<event>
 9    1  0.1803370E-005  0.1157723E+03  0.7546771E-02  0.1251402E+00
         -1   -1    0    0    0  501 -0.00000000000E+00  0.00000000000E+00  0.11455264711E+03  0.11455264711E+03  0.00000000000E+00 0.  1.
          1   -1    0    0  502    0  0.00000000000E+00 -0.00000000000E+00 -0.25666285908E+03  0.25666285908E+03  0.00000000000E+00 0. -1.
         23    2    1    2    0    0  0.47086020024E+02  0.75533188485E+01  0.26679629098E+02  0.11297812023E+03  0.98884311879E+02 0.  0.
         23    2    1    2    0    0 -0.95144632599E+02 -0.66171144367E+00 -0.79667529602E+02  0.15674890930E+03  0.95762029626E+02 0.  0.
        -11    1    3    3    0    0 -0.23854614605E+02  0.31112435882E+01 -0.17084468550E+02  0.29505957707E+02  0.00000000000E+00 0. -1.
         11    1    3    3    0    0  0.70940634628E+02  0.44420752603E+01  0.43764097648E+02  0.83472162528E+02  0.00000000000E+00 0.  1.
        -13    1    4    4    0    0 -0.60697885536E+02  0.20761208331E+02 -0.93933313579E+02  0.11374853177E+03  0.00000000000E+00 0. -1.
         13    1    4    4    0    0 -0.34446747063E+02 -0.21422919775E+02  0.14265783977E+02  0.43000377526E+02  0.00000000000E+00 0.  1.
         21    1    1    2  502  501  0.48058612576E+02 -0.68916074049E+01 -0.89122311461E+02  0.10148847666E+03  0.00000000000E+00 0.  1.
<scales pt_clust_5="13000.00000" pt_clust_6="13000.00000" pt_clust_7="13000.00000" pt_clust_8="13000.00000" pt_clust_9="48.55023"></scales>
<clustering>
<clus scale="   48.550">  2  9  1 -1</clus>
<clus scale="   95.762">  7  8 -1 -1</clus>
<clus scale="   98.884">  5  6 -1 -1</clus>
<clus scale="  113.117">  2  7  1 -1</clus>
<clus scale="   48.550">  2  5  1 -1</clus>
</clustering>
</event>
<event>
 9    1  0.1803370E-005  0.9991872E+02  0.7546771E-02  0.1306199E+00
          2   -1    0    0  502    0  0.00000000000E+00  0.00000000000E+00  0.71095951613E+02  0.71095951613E+02  0.00000000000E+00 0. -1.
         -2   -1    0    0    0  501 -0.00000000000E+00 -0.00000000000E+00 -0.18486023762E+03  0.18486023762E+03  0.00000000000E+00 0.  1.
         23    2    1    2    0    0 -0.38821967161E+02  0.27272389369E+02 -0.10176282422E+03  0.14903097857E+03  0.97998121534E+02 0.  0.
         23    2    1    2    0    0  0.13576290397E+02 -0.51910941409E+01  0.16739462442E+02  0.62755441366E+02  0.58709221583E+02 0.  0.
        -11    1    3    3    0    0  0.18098892887E+02  0.43437999593E+02 -0.61593670749E+02  0.77512644186E+02  0.00000000000E+00 0.  1.
         11    1    3    3    0    0 -0.56920860048E+02 -0.16165610224E+02 -0.40169153475E+02  0.71518334387E+02  0.00000000000E+00 0. -1.
        -13    1    4    4    0    0 -0.49479597625E+01 -0.21975267788E+02  0.27493889767E+02  0.35543053818E+02  0.00000000000E+00 0. -1.
         13    1    4    4    0    0  0.18524250160E+02  0.16784173647E+02 -0.10754427325E+02  0.27212387548E+02  0.00000000000E+00 0.  1.
         21    1    1    2  502  501  0.25245676764E+02 -0.22081295228E+02 -0.28740924225E+02  0.44169769294E+02  0.00000000000E+00 0. -1.
<scales pt_clust_5="13000.00000" pt_clust_6="13000.00000" pt_clust_7="13000.00000" pt_clust_8="13000.00000" pt_clust_9="33.53994"></scales>
<clustering>
<clus scale="   33.540">  2  9  1 -1</clus>
<clus scale="   58.709">  7  8 -1 -1</clus>
<clus scale="   61.862">  1  7  2 -1</clus>
<clus scale="   97.998">  5  6 -1 -1</clus>
<clus scale="   61.862">  1  5  2 -1</clus>
</clustering>
</event>
<event>
 9    1  0.1803370E-005  0.1254438E+03  0.7546771E-02  0.1235149E+00
         -1   -1    0    0    0  501 -0.00000000000E+00  0.00000000000E+00  0.49368180118E+02  0.49368180118E+02  0.00000000000E+00 0.  1.
          1   -1    0    0  502    0  0.00000000000E+00 -0.00000000000E+00 -0.41968280187E+03  0.41968280187E+03  0.00000000000E+00 0. -1.
         23    2    1    2    0    0  0.51047175681E+02 -0.74629030136E+02 -0.96628517398E+02  0.16225024884E+03  0.93876336687E+02 0.  0.
         23    2    1    2    0    0 -0.45920331395E+02  0.54065625091E+02 -0.21022285871E+03  0.23989242494E+03  0.91230239332E+02 0.  0.
        -11    1    4    4    0    0 -0.70735102328E+02  0.52192151474E+02 -0.13917225691E+03  0.16460981887E+03  0.00000000000E+00 0. -1.
         11    1    4    4    0    0  0.24814770934E+02  0.18734736163E+01 -0.71050601807E+02  0.75282606072E+02  0.00000000000E+00 0.  1.
        -13    1    3    3    0    0 -0.23978041761E+02 -0.98656460018E+01 -0.41235126723E+02  0.48709476835E+02  0.00000000000E+00 0. -1.
         13    1    3    3    0    0  0.75025217442E+02 -0.64763384134E+02 -0.55393390675E+02  0.11354077200E+03  0.00000000000E+00 0.  1.
         21    1    1    2  502  501 -0.51268442859E+01  0.20563405046E+02 -0.63463245643E+02  0.66908308206E+02  0.00000000000E+00 0. -1.
<scales pt_clust_5="13000.00000" pt_clust_6="13000.00000" pt_clust_7="13000.00000" pt_clust_8="13000.00000" pt_clust_9="21.19288"></scales>
<clustering>
<clus scale="   21.193">  2  9  1 -1</clus>
<clus scale="   91.230">  5  6 -1 -1</clus>
<clus scale="   93.876">  7  8 -1 -1</clus>
<clus scale="  123.476">  2  5  1 -1</clus>
<clus scale="   21.193">  2  5  1 -1</clus>
</clustering>
</event>
<event>
 9    1  0.1803370E-005  0.9669425E+02  0.7546771E-02  0.1288067E+00
          1   -1    0    0  502    0  0.00000000000E+00  0.00000000000E+00  0.42734646783E+03  0.42734646783E+03  0.00000000000E+00 0. -1.
         -1   -1    0    0    0  501 -0.00000000000E+00 -0.00000000000E+00 -0.37283425413E+02  0.37283425413E+02  0.00000000000E+00 0.  1.
         23    2    1    2    0    0 -0.38271004407E+02  0.93544597227E+00  0.65239515771E+02  0.11868211845E+03  0.91453299467E+02 0.  0.
         23    2    1    2    0    0  0.14595023653E+02 -0.77588441518E+00  0.21511916899E+03  0.23371754887E+03  0.90188796796E+02 0.  0.
        -11    1    3    3    0    0 -0.67190096642E+02 -0.98409255749E+01  0.49538515578E+02  0.84056037431E+02  0.00000000000E+00 0.  1.
         11    1    3    3    0    0  0.28919092235E+02  0.10776371547E+02  0.15701000193E+02  0.34626081015E+02  0.00000000000E+00 0. -1.
        -11    1    4    4    0    0  0.40627671895E+02 -0.30266060798E+02  0.10071107783E+03  0.11273581222E+03  0.00000000000E+00 0. -1.
         11    1    4    4    0    0 -0.26032648242E+02  0.29490176382E+02  0.11440809116E+03  0.12098173664E+03  0.00000000000E+00 0.  1.
         21    1    1    2  502  501  0.23675980754E+02 -0.15956155709E+00  0.10970435766E+03  0.11223022594E+03  0.00000000000E+00 0.  1.
<scales pt_clust_5="13000.00000" pt_clust_6="13000.00000" pt_clust_7="13000.00000" pt_clust_8="13000.00000" pt_clust_9="23.67652"></scales>
<clustering>
<clus scale="   23.677">  1  9  2 -1</clus>
<clus scale="   90.189">  7  8 -1 -1</clus>
<clus scale="   91.453">  5  6 -1 -1</clus>
<clus scale="   95.499">  1  7  2 -1</clus>
<clus scale="   23.677">  1  5  2 -1</clus>
</clustering>
</event>
<event>
 9    1  0.1803370E-005  0.1101271E+03  0.7546771E-02  0.1260575E+00
          2   -1    0    0  502    0  0.00000000000E+00  0.00000000000E+00  0.41099060732E+03  0.41099060732E+03  0.00000000000E+00 0. -1.
         -2   -1    0    0    0  501 -0.00000000000E+00 -0.00000000000E+00 -0.55476747987E+02  0.55476747987E+02  0.00000000000E+00 0.  1.
         23    2    1    2    0    0  0.29736859526E+01 -0.34066365213E+02  0.63492791152E+02  0.11700726169E+03  0.92141221570E+02 0.  0.
         23    2    1    2    0    0  0.55216361973E+02  0.56012243077E+02  0.23718555264E+03  0.26654666288E+03  0.92757312954E+02 0.  0.
        -13    1    4    4    0    0  0.57453080307E+02  0.23772609058E+02  0.22254540688E+03  0.23106806682E+03  0.00000000000E+00 0.  1.
         13    1    4    4    0    0 -0.22367183345E+01  0.32239634019E+02  0.14640145756E+02  0.35478596059E+02  0.00000000000E+00 0. -1.
        -13    1    3    3    0    0  0.65040788793E+01  0.31481335266E+02  0.26483905579E+02  0.41650627449E+02  0.00000000000E+00 0.  1.
         13    1    3    3    0    0 -0.35303929267E+01 -0.65547700479E+02  0.37008885573E+02  0.75356634238E+02  0.00000000000E+00 0. -1.
         21    1    1    2  502  501 -0.58190047926E+02 -0.21945877864E+02  0.54835515545E+02  0.82913430745E+02  0.00000000000E+00 0.  1.
<scales pt_clust_5="13000.00000" pt_clust_6="13000.00000" pt_clust_7="13000.00000" pt_clust_8="13000.00000" pt_clust_9="62.19086"></scales>
<clustering>
<clus scale="   62.191">  2  9  1 -1</clus>
<clus scale="   92.141">  7  8 -1 -1</clus>
<clus scale="   92.757">  5  6 -1 -1</clus>
<clus scale="  109.609">  2  7  1 -1</clus>
<clus scale="  110.127">  1  5  2 -1</clus>
</clustering>
</event>
<event>
 9    1  0.1803370E-005  0.1144527E+03  0.7546771E-02  0.1252861E+00
          3   -1    0    0  502    0  0.00000000000E+00  0.00000000000E+00  0.34388307527E+03  0.34388307527E+03  0.00000000000E+00 0. -1.
         -3   -1    0    0    0  501 -0.00000000000E+00 -0.00000000000E+00 -0.71019346959E+02  0.71019346959E+02  0.00000000000E+00 0.  1.
         23    2    1    2    0    0 -0.32782530575E+02  0.64657766892E+02  0.53694335473E+02  0.12973025304E+03  0.93228406413E+02 0.  0.
         23    2    1    2    0    0  0.57406957497E+02 -0.34710544063E+02  0.21836659155E+03  0.24639275395E+03  0.92331144556E+02 0.  0.
        -13    1    3    3    0    0 -0.55805958571E+02  0.11107634754E+02  0.40840164620E+02  0.70040014335E+02  0.00000000000E+00 0.  1.
         13    1    3    3    0    0  0.23023427996E+02  0.53550132138E+02  0.12854170853E+02  0.59690238707E+02  0.00000000000E+00 0. -1.
        -13    1    4    4    0    0  0.69760905098E+02 -0.52503485184E+02  0.13920053959E+03  0.16431673700E+03  0.00000000000E+00 0.  1.
         13    1    4    4    0    0 -0.12353947601E+02  0.17792941122E+02  0.79166051953E+02  0.82076016942E+02  0.00000000000E+00 0. -1.
         21    1    1    2  502  501 -0.24624426922E+02 -0.29947222829E+02  0.80280129117E+00  0.38779415240E+02  0.00000000000E+00 0. -1.
<scales pt_clust_5="13000.00000" pt_clust_6="13000.00000" pt_clust_7="13000.00000" pt_clust_8="13000.00000" pt_clust_9="38.77110"></scales>
<clustering>
<clus scale="   38.771">  2  9  1 -1</clus>
<clus scale="   92.331">  7  8 -1 -1</clus>
<clus scale="   93.228">  5  6 -1 -1</clus>
<clus scale="  113.723">  1  7  2 -1</clus>
<clus scale="  113.723">  1  5  2 -1</clus>
</clustering>
</event>
<event>
 9    1  0.1803370E-005  0.9253604E+02  0.7546771E-02  0.1303370E+00
         -2   -1    0    0    0  501 -0.00000000000E+00  0.00000000000E+00  0.19839031178E+03  0.19839031178E+03  0.00000000000E+00 0.  1.
          2   -1    0    0  502    0  0.00000000000E+00 -0.00000000000E+00 -0.58209840361E+02  0.58209840361E+02  0.00000000000E+00 0. -1.
         23    2    1    2    0    0 -0.11317017467E+02 -0.26256285277E+02  0.91235622286E+02  0.13194188252E+03  0.90924442192E+02 0.  0.
         23    2    1    2    0    0  0.10614659851E+02 -0.58996868053E+00  0.54091041438E+02  0.97314203479E+02  0.80194727807E+02 0.  0.
        -13    1    4    4    0    0 -0.23232309259E+02 -0.15510460702E+01 -0.95970940058E+01  0.25184323512E+02  0.00000000000E+00 0.  1.
         13    1    4    4    0    0  0.33846969110E+02  0.96107738969E+00  0.63688135444E+02  0.72129879966E+02  0.00000000000E+00 0. -1.
        -13    1    3    3    0    0 -0.15914548262E+02 -0.52278103878E+02  0.90242078035E+02  0.10549836795E+03  0.00000000000E+00 0.  1.
         13    1    3    3    0    0  0.45975307954E+01  0.26021818601E+02  0.99354425073E+00  0.26443514572E+02  0.00000000000E+00 0. -1.
         21    1    1    2  502  501  0.70235761586E+00  0.26846253957E+02 -0.51461923091E+01  0.27344066139E+02  0.00000000000E+00 0. -1.
<scales pt_clust_5="13000.00000" pt_clust_6="13000.00000" pt_clust_7="13000.00000" pt_clust_8="13000.00000" pt_clust_9="26.85544"></scales>
<clustering>
<clus scale="   26.855">  2  9  1 -1</clus>
<clus scale="   80.195">  5  6 -1 -1</clus>
<clus scale="   82.017">  2  5  1 -1</clus>
<clus scale="   90.924">  7  8 -1 -1</clus>
<clus scale="   26.855">  2  5  1 -1</clus>
</clustering>
</event>
<event>
 9    1  0.1803370E-005  0.1185011E+03  0.7546771E-02  0.1246245E+00
          2   -1    0    0  502    0  0.00000000000E+00  0.00000000000E+00  0.38612926423E+03  0.38612926423E+03  0.00000000000E+00 0. -1.
         -2   -1    0    0    0  501 -0.00000000000E+00 -0.00000000000E+00 -0.10964226592E+03  0.10964226592E+03  0.00000000000E+00 0.  1.
         23    2    1    2    0    0 -0.65338608524E+02  0.93554290530E+01 -0.26335214051E+02  0.11631211978E+03  0.92077727451E+02 0.  0.
         23    2    1    2    0    0  0.92482685154E+02 -0.41403825460E+02  0.90458682320E+02  0.16298269222E+03  0.90073641770E+02 0.  0.
        -13    1    3    3    0    0 -0.44019276766E+01  0.37207260498E+02  0.11722305895E+02  0.39257733717E+02  0.00000000000E+00 0. -1.
         13    1    3    3    0    0 -0.60936680848E+02 -0.27851831445E+02 -0.38057519946E+02  0.77054386066E+02  0.00000000000E+00 0.  1.
        -13    1    4    4    0    0  0.39832428078E+02 -0.43132036384E+02  0.47465230182E+00  0.58713032489E+02  0.00000000000E+00 0.  1.
         13    1    4    4    0    0  0.52650257076E+02  0.17282109235E+01  0.89984030018E+02  0.10426965974E+03  0.00000000000E+00 0. -1.
         21    1    1    2  502  501 -0.27144076630E+02  0.32048396407E+02  0.21236353004E+03  0.21647671814E+03  0.00000000000E+00 0. -1.
<scales pt_clust_5="13000.00000" pt_clust_6="13000.00000" pt_clust_7="13000.00000" pt_clust_8="13000.00000" pt_clust_9="41.99882"></scales>
<clustering>
<clus scale="   41.999">  1  9  2 -1</clus>
<clus scale="   90.074">  7  8 -1 -1</clus>
<clus scale="   92.078">  5  6 -1 -1</clus>
<clus scale="  116.951">  1  7  2 -1</clus>
<clus scale="   41.999">  1  5  2 -1</clus>
</clustering>
</event>
<event>
 9    1  0.1803370E-005  0.1914540E+03  0.7546771E-02  0.1157174E+00
         -2   -1    0    0    0  501 -0.00000000000E+00  0.00000000000E+00  0.49665813276E+03  0.49665813276E+03  0.00000000000E+00 0.  1.
          2   -1    0    0  502    0  0.00000000000E+00 -0.00000000000E+00 -0.83443312828E+02  0.83443312828E+02  0.00000000000E+00 0. -1.
         23    2    1    2    0    0  0.41357009940E+02 -0.15101499490E+03  0.22807390373E+03  0.29151669050E+03  0.91914875401E+02 0.  0.
         23    2    1    2    0    0 -0.49670175681E+02  0.16983343086E+03  0.15701867678E+03  0.25374077991E+03  0.91755097623E+02 0.  0.
        -11    1    3    3    0    0  0.60965467539E+02 -0.98265238712E+02  0.19363793023E+03  0.22554044736E+03  0.00000000000E+00 0.  1.
         11    1    3    3    0    0 -0.19608457598E+02 -0.52749756193E+02  0.34435973494E+02  0.65976243135E+02  0.00000000000E+00 0. -1.
        -11    1    4    4    0    0  0.14325844171E+02  0.97902860063E+02  0.10513309197E+03  0.14437162757E+03  0.00000000000E+00 0.  1.
         11    1    4    4    0    0 -0.63996019853E+02  0.71930570797E+02  0.51885584817E+02  0.10936915234E+03  0.00000000000E+00 0. -1.
         21    1    1    2  502  501  0.83131657409E+01 -0.18818435956E+02  0.28122239420E+02  0.34843975181E+02  0.00000000000E+00 0.  1.
<scales pt_clust_5="13000.00000" pt_clust_6="13000.00000" pt_clust_7="13000.00000" pt_clust_8="13000.00000" pt_clust_9="20.57285"></scales>
<clustering>
<clus scale="   20.573">  1  9  2 -1</clus>
<clus scale="   91.755">  7  8 -1 -1</clus>
<clus scale="   91.915">  5  6 -1 -1</clus>
<clus scale="  191.377">  2  7  1 -1</clus>
<clus scale="  191.377">  2  5  1 -1</clus>
</clustering>
</event>
<event>
 9    1  0.1803370E-005  0.1291011E+03  0.7546771E-02  0.1233124E+00
          3   -1    0    0  502    0  0.00000000000E+00  0.00000000000E+00  0.11940175030E+03  0.11940175030E+03  0.00000000000E+00 0. -1.
         -3   -1    0    0    0  501 -0.00000000000E+00 -0.00000000000E+00 -0.22441459544E+03  0.22441459544E+03  0.00000000000E+00 0.  1.
         23    2    1    2    0    0 -0.66855413742E+02 -0.24121756845E+02 -0.12989910585E+03  0.17415337742E+03  0.91673963943E+02 0.  0.
         23    2    1    2    0    0  0.87857548202E+02  0.58514485185E+01  0.92143825357E+01  0.13771767784E+03  0.10548964745E+03 0.  0.
        -11    1    3    3    0    0 -0.28158874806E+02 -0.46551769948E+02 -0.11463989923E+03  0.12689482263E+03  0.00000000000E+00 0.  1.
         11    1    3    3    0    0 -0.38696538936E+02  0.22430013103E+02 -0.15259206618E+02  0.47258554782E+02  0.00000000000E+00 0. -1.
        -13    1    4    4    0    0  0.52346024136E+02 -0.21198672661E+02 -0.41552944943E+02  0.70115170961E+02  0.00000000000E+00 0.  1.
         13    1    4    4    0    0  0.35511524066E+02  0.27050121179E+02  0.50767327479E+02  0.67602506882E+02  0.00000000000E+00 0. -1.
         21    1    1    2  502  501 -0.21002134460E+02  0.18270308327E+02  0.15671878172E+02  0.31945290477E+02  0.00000000000E+00 0.  1.
<scales pt_clust_5="13000.00000" pt_clust_6="13000.00000" pt_clust_7="13000.00000" pt_clust_8="13000.00000" pt_clust_9="27.83691"></scales>
<clustering>
<clus scale="   27.837">  1  9  2 -1</clus>
<clus scale="   91.674">  5  6 -1 -1</clus>
<clus scale="  105.490">  7  8 -1 -1</clus>
<clus scale="  118.081">  2  5  1 -1</clus>
<clus scale="   27.837">  1  5  2 -1</clus>
</clustering>
</event>
<event>
 9    1  0.1803370E-005  0.9977701E+02  0.7546771E-02  0.1282921E+00
         -1   -1    0    0    0  501 -0.00000000000E+00  0.00000000000E+00  0.17370326615E+03  0.17370326615E+03  0.00000000000E+00 0.  1.
          1   -1    0    0  502    0  0.00000000000E+00 -0.00000000000E+00 -0.11023846068E+03  0.11023846068E+03  0.00000000000E+00 0. -1.
         23    2    1    2    0    0 -0.90002304639E+01  0.20861495314E+02  0.64786385772E+02  0.11371958629E+03  0.90656838619E+02 0.  0.
         23    2    1    2    0    0  0.63515110906E+02 -0.12451527956E+02 -0.48553268792E+01  0.11494929816E+03  0.94871265861E+02 0.  0.
        -11    1    4    4    0    0  0.63282200073E+00 -0.37545496027E+02  0.20343670066E+02  0.42707489359E+02  0.00000000000E+00 0.  1.
         11    1    4    4    0    0  0.62882288905E+02  0.25093968071E+02 -0.25198996946E+02  0.72241808799E+02  0.00000000000E+00 0. -1.
        -13    1    3    3    0    0  0.36597535699E+02  0.27792986378E+02  0.42086127709E+02  0.62314298974E+02  0.00000000000E+00 0. -1.
         13    1    3    3    0    0 -0.45597766163E+02 -0.69314910643E+01  0.22700258063E+02  0.51405287311E+02  0.00000000000E+00 0.  1.
         21    1    1    2  502  501 -0.54514880442E+02 -0.84099673581E+01  0.35337465788E+01  0.55272842386E+02  0.00000000000E+00 0.  1.
<scales pt_clust_5="13000.00000" pt_clust_6="13000.00000" pt_clust_7="13000.00000" pt_clust_8="13000.00000" pt_clust_9="55.15977"></scales>
<clustering>
<clus scale="   55.160">  2  9  1 -1</clus>
<clus scale="   90.657">  7  8 -1 -1</clus>
<clus scale="   94.871">  5  6 -1 -1</clus>
<clus scale="   95.779">  1  7  2 -1</clus>
<clus scale="   55.160">  2  5  1 -1</clus>
</clustering>
</event>
<event>
 9    1  0.1803370E-005  0.1886775E+03  0.7546771E-02  0.1161630E+00
         -1   -1    0    0    0  501 -0.00000000000E+00  0.00000000000E+00  0.48861238473E+03  0.48861238473E+03  0.00000000000E+00 0.  1.
          1   -1    0    0  502    0  0.00000000000E+00 -0.00000000000E+00 -0.98616596524E+02  0.98616596524E+02  0.00000000000E+00 0. -1.
         23    2    1    2    0    0  0.33708586628E+02 -0.14128255610E+03  0.22265218599E+03  0.28684734185E+03  0.10775143679E+03 0.  0.
         23    2    1    2    0    0  0.33580468188E+01  0.17176692623E+03  0.15920774331E+03  0.25170490638E+03  0.92158021575E+02 0.  0.
        -11    1    3    3    0    0 -0.35254146936E+02 -0.42409231881E+02  0.40517315534E+02  0.68432818757E+02  0.00000000000E+00 0. -1.
         11    1    3    3    0    0  0.68962733564E+02 -0.98873324222E+02  0.18213487046E+03  0.21841452310E+03  0.00000000000E+00 0.  1.
        -13    1    4    4    0    0 -0.24804413156E+02  0.16356322510E+03  0.13113641106E+03  0.21110411134E+03  0.00000000000E+00 0. -1.
         13    1    4    4    0    0  0.28162459974E+02  0.82037011333E+01  0.28071332246E+02  0.40600795043E+02  0.00000000000E+00 0.  1.
         21    1    1    2  502  501 -0.37066633447E+02 -0.30484370131E+02  0.81358589073E+01  0.48676733021E+02  0.00000000000E+00 0. -1.
<scales pt_clust_5="13000.00000" pt_clust_6="13000.00000" pt_clust_7="13000.00000" pt_clust_8="13000.00000" pt_clust_9="47.99200"></scales>
<clustering>
<clus scale="   47.992">  2  9  1 -1</clus>
<clus scale="   92.158">  7  8 -1 -1</clus>
<clus scale="  107.751">  5  6 -1 -1</clus>
<clus scale="  180.227">  2  7  1 -1</clus>
<clus scale="   47.992">  2  5  1 -1</clus>
</clustering>
</event>
<event>
 9    1  0.1803370E-005  0.1131936E+03  0.7546771E-02  0.1255901E+00
         -1   -1    0    0    0  501 -0.00000000000E+00  0.00000000000E+00  0.34074662494E+02  0.34074662494E+02  0.00000000000E+00 0.  1.
          1   -1    0    0  502    0  0.00000000000E+00 -0.00000000000E+00 -0.10879399255E+04  0.10879399255E+04  0.00000000000E+00 0. -1.
         23    2    1    2    0    0 -0.63241809033E+02 -0.42397443678E+02 -0.19747984802E+03  0.23005865569E+03  0.90175523508E+02 0.  0.
         23    2    1    2    0    0  0.64968003533E+02 -0.38822690588E+02 -0.22209142805E+03  0.25248071636E+03  0.93240908034E+02 0.  0.
        -11    1    4    4    0    0  0.79290821499E+02 -0.56474676581E+02 -0.17860568416E+03  0.20341193151E+03  0.00000000000E+00 0.  1.
         11    1    4    4    0    0 -0.14322817966E+02  0.17651985993E+02 -0.43485743892E+02  0.49068784842E+02  0.00000000000E+00 0. -1.
        -13    1    3    3    0    0 -0.69856752027E+02 -0.19203275125E+02 -0.19215492309E+03  0.20535882267E+03  0.00000000000E+00 0. -1.
         13    1    3    3    0    0  0.66149429934E+01 -0.23194168553E+02 -0.53249249360E+01  0.24699833021E+02  0.00000000000E+00 0.  1.
         21    1    1    2  502  501 -0.17261944994E+01  0.81220134266E+02 -0.63429398691E+03  0.63947521593E+03  0.00000000000E+00 0. -1.
<scales pt_clust_5="13000.00000" pt_clust_6="13000.00000" pt_clust_7="13000.00000" pt_clust_8="13000.00000" pt_clust_9="81.23848"></scales>
<clustering>
<clus scale="   81.238">  2  9  1 -1</clus>
<clus scale="   90.176">  7  8 -1 -1</clus>
<clus scale="   93.241">  5  6 -1 -1</clus>
<clus scale="  110.682">  1  7  2 -1</clus>
<clus scale="   81.238">  2  5  1 -1</clus>
</clustering>
</event>
<event>
 9    1  0.1803370E-005  0.1025459E+03  0.7546771E-02  0.1281290E+00
          1   -1    0    0  502    0  0.00000000000E+00  0.00000000000E+00  0.41352599701E+03  0.41352599701E+03  0.00000000000E+00 0. -1.
         -1   -1    0    0    0  501 -0.00000000000E+00 -0.00000000000E+00 -0.14033412423E+03  0.14033412423E+03  0.00000000000E+00 0.  1.
         23    2    1    2    0    0 -0.27692206795E+02  0.18797163933E+02 -0.78180222983E+02  0.12225224103E+03  0.87825232599E+02 0.  0.
         23    2    1    2    0    0 -0.62951897402E+02 -0.26796741124E+02  0.79068625346E+02  0.14450245208E+03  0.99740184594E+02 0.  0.
        -11    1    4    4    0    0 -0.74387829169E+02 -0.51464358782E+02  0.45348768087E+02  0.10118616566E+03  0.00000000000E+00 0.  1.
         11    1    4    4    0    0  0.11435931767E+02  0.24667617658E+02  0.33719857259E+02  0.43316286427E+02  0.00000000000E+00 0. -1.
        -11    1    3    3    0    0 -0.29883485909E+02 -0.10597819574E+02 -0.86081337430E+02  0.91735125025E+02  0.00000000000E+00 0.  1.
         11    1    3    3    0    0  0.21912791135E+01  0.29394983506E+02  0.79011144464E+01  0.30517116000E+02  0.00000000000E+00 0. -1.
         21    1    1    2  502  501  0.90644104197E+02  0.79995771917E+01  0.27230347041E+03  0.28710542813E+03  0.00000000000E+00 0. -1.
<scales pt_clust_5="13000.00000" pt_clust_6="13000.00000" pt_clust_7="13000.00000" pt_clust_8="13000.00000" pt_clust_9="90.99641"></scales>
<clustering>
<clus scale="   87.825">  7  8 -1 -1</clus>
<clus scale="   90.996">  1  9  2 -1</clus>
<clus scale="   90.999">  2  7  1 -1</clus>
<clus scale="   99.740">  5  6 -1 -1</clus>
<clus scale="   90.996">  1  5  2 -1</clus>
</clustering>
</event>
<event>
 9    1  0.1803370E-005  0.1359889E+03  0.7546771E-02  0.1220495E+00
         -2   -1    0    0    0  501 -0.00000000000E+00  0.00000000000E+00  0.62175765201E+02  0.62175765201E+02  0.00000000000E+00 0.  1.
          2   -1    0    0  502    0  0.00000000000E+00 -0.00000000000E+00 -0.46858988206E+03  0.46858988206E+03  0.00000000000E+00 0. -1.
         23    2    1    2    0    0 -0.10861596165E+03 -0.24261757429E+02 -0.67398831430E+02  0.15493592660E+03  0.84121809737E+02 0.  0.
         23    2    1    2    0    0  0.79617901256E+02  0.79113457628E+01 -0.20956155660E+03  0.24216412532E+03  0.91245920454E+02 0.  0.
        -11    1    4    4    0    0  0.18043719839E+02  0.37004753264E+02 -0.32481398237E+02  0.52440145129E+02  0.00000000000E+00 0.  1.
         11    1    4    4    0    0  0.61574181417E+02 -0.29093407501E+02 -0.17708015836E+03  0.18972398020E+03  0.00000000000E+00 0. -1.
        -11    1    3    3    0    0 -0.62891429923E+02  0.10286013590E+02  0.34381921400E+01  0.63819708543E+02  0.00000000000E+00 0.  1.
         11    1    3    3    0    0 -0.45724531727E+02 -0.34547771019E+02 -0.70837023570E+02  0.91116218053E+02  0.00000000000E+00 0. -1.
         21    1    1    2  502  501  0.28998060394E+02  0.16350411666E+02 -0.12945372883E+03  0.13366559533E+03  0.00000000000E+00 0. -1.
<scales pt_clust_5="13000.00000" pt_clust_6="13000.00000" pt_clust_7="13000.00000" pt_clust_8="13000.00000" pt_clust_9="33.28999"></scales>
<clustering>
<clus scale="   33.290">  2  9  1 -1</clus>
<clus scale="   84.122">  7  8 -1 -1</clus>
<clus scale="   91.246">  5  6 -1 -1</clus>
<clus scale="  131.315">  1  7  2 -1</clus>
<clus scale="   33.290">  2  5  1 -1</clus>
</clustering>
</event>
<event>
 9    1  0.1803370E-005  0.1475114E+03  0.7546771E-02  0.1203572E+00
          1   -1    0    0  502    0  0.00000000000E+00  0.00000000000E+00  0.41752718492E+02  0.41752718492E+02  0.00000000000E+00 0. -1.
         -1   -1    0    0    0  501 -0.00000000000E+00 -0.00000000000E+00 -0.89224381072E+03  0.89224381072E+03  0.00000000000E+00 0.  1.
         23    2    1    2    0    0  0.82501523383E+02 -0.12430962270E+03 -0.54465542716E+03  0.57201418808E+03  0.91056649213E+02 0.  0.
         23    2    1    2    0    0 -0.35871550385E+02  0.69458785258E+02 -0.21309269498E+03  0.24457609236E+03  0.91091587575E+02 0.  0.
        -13    1    4    4    0    0 -0.46728787742E+02  0.41487158961E+02 -0.53724848863E+02  0.82408272326E+02  0.00000000000E+00 0. -1.
         13    1    4    4    0    0  0.10857237357E+02  0.27971626297E+02 -0.15936784611E+03  0.16216782004E+03  0.00000000000E+00 0.  1.
        -13    1    3    3    0    0  0.39433546637E+02 -0.82541541076E+02 -0.45521536947E+03  0.46431577962E+03  0.00000000000E+00 0.  1.
         13    1    3    3    0    0  0.43067976745E+02 -0.41768081625E+02 -0.89440057691E+02  0.10769840845E+03  0.00000000000E+00 0. -1.
         21    1    1    2  502  501 -0.46629972998E+02  0.54850837443E+02 -0.92742970091E+02  0.11740624877E+03  0.00000000000E+00 0. -1.
<scales pt_clust_5="13000.00000" pt_clust_6="13000.00000" pt_clust_7="13000.00000" pt_clust_8="13000.00000" pt_clust_9="71.99284"></scales>
<clustering>
<clus scale="   71.993">  1  9  2 -1</clus>
<clus scale="   91.057">  7  8 -1 -1</clus>
<clus scale="   91.092">  5  6 -1 -1</clus>
<clus scale="  147.490">  2  7  1 -1</clus>
<clus scale="   71.993">  1  5  2 -1</clus>
</clustering>
</event>
<event>
 9    1  0.1803370E-005  0.1025942E+03  0.7546771E-02  0.1277402E+00
          3   -1    0    0  502    0  0.00000000000E+00  0.00000000000E+00  0.48741158844E+03  0.48741158844E+03  0.00000000000E+00 0. -1.
         -3   -1    0    0    0  501 -0.00000000000E+00 -0.00000000000E+00 -0.39600738273E+02  0.39600738273E+02  0.00000000000E+00 0.  1.
         23    2    1    2    0    0 -0.43595456137E+02 -0.10835932233E+02  0.62050428622E+02  0.11992413023E+03  0.92268955213E+02 0.  0.
         23    2    1    2    0    0  0.47894938211E+02 -0.15988945542E+02  0.26834296725E+03  0.28656882797E+03  0.86972257681E+02 0.  0.
        -11    1    4    4    0    0 -0.16652911018E+02 -0.29438342636E+02  0.74466716232E+02  0.81787696440E+02  0.00000000000E+00 0.  1.
         11    1    4    4    0    0  0.64547849229E+02  0.13449397095E+02  0.19387625101E+03  0.20478113153E+03  0.00000000000E+00 0. -1.
        -13    1    3    3    0    0 -0.19395811627E+02  0.41019617045E+02  0.26130926268E+02  0.52360593950E+02  0.00000000000E+00 0.  1.
         13    1    3    3    0    0 -0.24199644510E+02 -0.51855549277E+02  0.35919502353E+02  0.67563536280E+02  0.00000000000E+00 0. -1.
         21    1    1    2  502  501 -0.42994820738E+01  0.26824877774E+02  0.11741745430E+03  0.12051936852E+03  0.00000000000E+00 0. -1.
<scales pt_clust_5="13000.00000" pt_clust_6="13000.00000" pt_clust_7="13000.00000" pt_clust_8="13000.00000" pt_clust_9="27.16725"></scales>
<clustering>
<clus scale="   27.167">  1  9  2 -1</clus>
<clus scale="   86.972">  5  6 -1 -1</clus>
<clus scale="   92.269">  7  8 -1 -1</clus>
<clus scale="   97.858">  1  5  2 -1</clus>
<clus scale="   27.167">  1  5  2 -1</clus>
</clustering>
</event>
<event>
 9    1  0.1803370E-005  0.1382708E+03  0.7546771E-02  0.1216911E+00
          1   -1    0    0  502    0  0.00000000000E+00  0.00000000000E+00  0.23230092482E+03  0.23230092482E+03  0.00000000000E+00 0. -1.
         -1   -1    0    0    0  501 -0.00000000000E+00 -0.00000000000E+00 -0.69297183319E+03  0.69297183319E+03  0.00000000000E+00 0.  1.
         23    2    1    2    0    0  0.10906091277E+03  0.28420943814E+01 -0.46958051359E+03  0.49010915689E+03  0.88310626357E+02 0.  0.
         23    2    1    2    0    0 -0.72468721821E+02 -0.81029233547E+02 -0.17838434137E+03  0.22893256660E+03  0.93657324714E+02 0.  0.
        -11    1    3    3    0    0  0.61830503229E+02  0.29485764570E+02 -0.37396228296E+03  0.38018444277E+03  0.00000000000E+00 0.  1.
         11    1    3    3    0    0  0.47230409545E+02 -0.26643670189E+02 -0.95618230625E+02  0.10992471412E+03  0.00000000000E+00 0. -1.
        -13    1    4    4    0    0 -0.91911467274E+02 -0.54128846782E+02 -0.11172628003E+03  0.15446815697E+03  0.00000000000E+00 0. -1.
         13    1    4    4    0    0  0.19442745453E+02 -0.26900386765E+02 -0.66658061345E+02  0.74464409627E+02  0.00000000000E+00 0.  1.
         21    1    1    2  502  501 -0.36592190954E+02  0.78187139165E+02  0.18729394659E+03  0.20623103452E+03  0.00000000000E+00 0. -1.
<scales pt_clust_5="13000.00000" pt_clust_6="13000.00000" pt_clust_7="13000.00000" pt_clust_8="13000.00000" pt_clust_9="86.32623"></scales>
<clustering>
<clus scale="   86.326">  1  9  2 -1</clus>
<clus scale="   88.311">  5  6 -1 -1</clus>
<clus scale="   93.657">  7  8 -1 -1</clus>
<clus scale="  134.707">  2  5  1 -1</clus>
<clus scale="   86.326">  1  5  2 -1</clus>
</clustering>
</event>
<event>
 9    1  0.1803370E-005  0.1700787E+03  0.7546771E-02  0.1178354E+00
          1   -1    0    0  502    0  0.00000000000E+00  0.00000000000E+00  0.42919849191E+03  0.42919849191E+03  0.00000000000E+00 0. -1.
         -1   -1    0    0    0  501 -0.00000000000E+00 -0.00000000000E+00 -0.79025585892E+02  0.79025585892E+02  0.00000000000E+00 0.  1.
         23    2    1    2    0    0  0.14437484323E+02  0.15621387652E+03  0.14146176138E+03  0.22809043323E+03  0.86038361358E+02 0.  0.
         23    2    1    2    0    0 -0.44869937205E+01 -0.13530793498E+03  0.19128910523E+03  0.25115782513E+03  0.90334716286E+02 0.  0.
        -11    1    4    4    0    0  0.64672518919E+01 -0.11816186829E+03  0.92241012779E+02  0.15004151726E+03  0.00000000000E+00 0.  1.
         11    1    4    4    0    0 -0.10954245612E+02 -0.17146066694E+02  0.99048092448E+02  0.10111630787E+03  0.00000000000E+00 0. -1.
        -13    1    3    3    0    0  0.29932344272E+02  0.22140071935E+02  0.75995509948E+01  0.37998436734E+02  0.00000000000E+00 0.  1.
         13    1    3    3    0    0 -0.15494859948E+02  0.13407380459E+03  0.13386221039E+03  0.19009199650E+03  0.00000000000E+00 0. -1.
         21    1    1    2  502  501 -0.99504906028E+01 -0.20905941542E+02  0.17422039405E+02  0.28975819437E+02  0.00000000000E+00 0. -1.
<scales pt_clust_5="13000.00000" pt_clust_6="13000.00000" pt_clust_7="13000.00000" pt_clust_8="13000.00000" pt_clust_9="23.15320"></scales>
<clustering>
<clus scale="   23.153">  2  9  1 -1</clus>
<clus scale="   86.038">  7  8 -1 -1</clus>
<clus scale="   90.335">  5  6 -1 -1</clus>
<clus scale="  167.836">  2  7  1 -1</clus>
<clus scale="  170.079">  1  5  2 -1</clus>
</clustering>
</event>
<event>
 9    1  0.1803370E-005  0.1484105E+03  0.7546771E-02  0.1203395E+00
         -1   -1    0    0    0  501 -0.00000000000E+00  0.00000000000E+00  0.44577083856E+03  0.44577083856E+03  0.00000000000E+00 0.  1.
          1   -1    0    0  502    0  0.00000000000E+00 -0.00000000000E+00 -0.28539455105E+03  0.28539455105E+03  0.00000000000E+00 0. -1.
         23    2    1    2    0    0  0.87869954430E+02 -0.77225006104E+02  0.40330021486E+03  0.43124250266E+03  0.98153972567E+02 0.  0.
         23    2    1    2    0    0 -0.35156046382E+02  0.28074159636E+02 -0.14724482779E+03  0.18013535878E+03  0.93507230395E+02 0.  0.
        -11    1    3    3    0    0  0.80256976004E+02 -0.24746835028E+02  0.14509917529E+03  0.16765249390E+03  0.00000000000E+00 0.  1.
         11    1    3    3    0    0  0.76129784256E+01 -0.52478171075E+02  0.25820103957E+03  0.26359000876E+03  0.00000000000E+00 0. -1.
        -13    1    4    4    0    0 -0.48993091539E+02  0.52865317605E+02 -0.12406924079E+03  0.14348603184E+03  0.00000000000E+00 0. -1.
         13    1    4    4    0    0  0.13837045157E+02 -0.24791157969E+02 -0.23175586994E+02  0.36649326933E+02  0.00000000000E+00 0.  1.
         21    1    1    2  502  501 -0.52713908047E+02  0.49150846468E+02 -0.95679099573E+02  0.11978752817E+03  0.00000000000E+00 0. -1.
<scales pt_clust_5="13000.00000" pt_clust_6="13000.00000" pt_clust_7="13000.00000" pt_clust_8="13000.00000" pt_clust_9="72.07331"></scales>
<clustering>
<clus scale="   72.073">  2  9  1 -1</clus>
<clus scale="   93.507">  7  8 -1 -1</clus>
<clus scale="   98.154">  5  6 -1 -1</clus>
<clus scale="  145.379">  2  7  1 -1</clus>
<clus scale="   72.073">  2  5  1 -1</clus>
</clustering>
</event>
<event>
 9    1  0.1803370E-005  0.1393201E+03  0.7546771E-02  0.1214295E+00
          1   -1    0    0  502    0  0.00000000000E+00  0.00000000000E+00  0.43103583972E+03  0.43103583972E+03  0.00000000000E+00 0. -1.
         -1   -1    0    0    0  501 -0.00000000000E+00 -0.00000000000E+00 -0.95069053940E+02  0.95069053940E+02  0.00000000000E+00 0.  1.
         23    2    1    2    0    0  0.65897247402E+01 -0.10171375232E+03 -0.92357209004E+01  0.13670310916E+03  0.90627422069E+02 0.  0.
         23    2    1    2    0    0 -0.10420067919E+02  0.12552054723E+03  0.31162812079E+03  0.34806566953E+03  0.90408180176E+02 0.  0.
        -11    1    4    4    0    0 -0.82901486901E+01  0.45843142838E+02  0.30082760587E+02  0.55455322514E+02  0.00000000000E+00 0.  1.
         11    1    4    4    0    0 -0.21299192294E+01  0.79677404395E+02  0.28154536020E+03  0.29261034701E+03  0.00000000000E+00 0. -1.
        -11    1    3    3    0    0 -0.28182690214E+02 -0.81342979796E+02 -0.30257935414E+02  0.91249586548E+02  0.00000000000E+00 0.  1.
         11    1    3    3    0    0  0.34772414954E+02 -0.20370772524E+02  0.21022214513E+02  0.45453522613E+02  0.00000000000E+00 0. -1.
         21    1    1    2  502  501  0.38303431792E+01 -0.23806794914E+02  0.33574385887E+02  0.41336114967E+02  0.00000000000E+00 0. -1.
<scales pt_clust_5="13000.00000" pt_clust_6="13000.00000" pt_clust_7="13000.00000" pt_clust_8="13000.00000" pt_clust_9="24.11296"></scales>
<clustering>
<clus scale="   24.113">  1  9  2 -1</clus>
<clus scale="   90.408">  5  6 -1 -1</clus>
<clus scale="   90.627">  7  8 -1 -1</clus>
<clus scale="  139.178">  1  5  2 -1</clus>
<clus scale="   24.113">  1  5  2 -1</clus>
</clustering>
</event>
<event>
 9    1  0.1803370E-005  0.9531291E+02  0.7546771E-02  0.1292502E+00
          1   -1    0    0  502    0  0.00000000000E+00  0.00000000000E+00  0.47393332756E+03  0.47393332756E+03  0.00000000000E+00 0. -1.
         -1   -1    0    0    0  501 -0.00000000000E+00 -0.00000000000E+00 -0.43306431685E+02  0.43306431685E+02  0.00000000000E+00 0.  1.
         23    2    1    2    0    0  0.78565758026E+01  0.84559983453E+00  0.31069525987E+02  0.96793602960E+02  0.91330418298E+02 0.  0.
         23    2    1    2    0    0 -0.41437691119E+01 -0.23227129205E+02  0.23800551168E+03  0.25730903396E+03  0.94892808017E+02 0.  0.
        -13    1    3    3    0    0  0.33894000156E+02 -0.31669171592E+02  0.29770242942E+02  0.55118118988E+02  0.00000000000E+00 0.  1.
         13    1    3    3    0    0 -0.26037424353E+02  0.32514771427E+02  0.12992830451E+01  0.41675483972E+02  0.00000000000E+00 0. -1.
        -13    1    4    4    0    0  0.31136208320E+02 -0.45205842171E+02  0.15590906011E+03  0.16528964475E+03  0.00000000000E+00 0.  1.
         13    1    4    4    0    0 -0.35279977432E+02  0.21978712966E+02  0.82096451567E+02  0.92019389213E+02  0.00000000000E+00 0. -1.
         21    1    1    2  502  501 -0.37128066907E+01  0.22381529371E+02  0.16155185821E+03  0.16313712232E+03  0.00000000000E+00 0.  1.
<scales pt_clust_5="13000.00000" pt_clust_6="13000.00000" pt_clust_7="13000.00000" pt_clust_8="13000.00000" pt_clust_9="22.68739"></scales>
<clustering>
<clus scale="   22.687">  1  9  2 -1</clus>
<clus scale="   91.330">  5  6 -1 -1</clus>
<clus scale="   91.767">  2  5  1 -1</clus>
<clus scale="   94.893">  7  8 -1 -1</clus>
<clus scale="   22.687">  1  5  2 -1</clus>
</clustering>
</event>
<event>
 9    1  0.1803370E-005  0.1003788E+03  0.7546771E-02  0.1279517E+00
         -2   -1    0    0    0  501 -0.00000000000E+00  0.00000000000E+00  0.20942117822E+03  0.20942117822E+03  0.00000000000E+00 0.  1.
          2   -1    0    0  502    0  0.00000000000E+00 -0.00000000000E+00 -0.20810851395E+03  0.20810851395E+03  0.00000000000E+00 0. -1.
         23    2    1    2    0    0 -0.37149706598E+02  0.29406852719E+02  0.15236588522E+03  0.18361733319E+03  0.90857571968E+02 0.  0.
         23    2    1    2    0    0  0.39767806076E+02  0.24397761140E+02 -0.38584314007E+02  0.10920852606E+03  0.90890173988E+02 0.  0.
        -11    1    3    3    0    0  0.13260817554E+02 -0.24088299452E+02  0.56300638150E+02  0.62656662126E+02  0.00000000000E+00 0. -1.
         11    1    3    3    0    0 -0.50410524152E+02  0.53495152171E+02  0.96065247066E+02  0.12096067107E+03  0.00000000000E+00 0.  1.
        -11    1    4    4    0    0  0.24720747523E+02  0.37971058028E+02  0.18267558272E+02  0.48853047920E+02  0.00000000000E+00 0.  1.
         11    1    4    4    0    0  0.15047058553E+02 -0.13573296888E+02 -0.56851872280E+02  0.60355478137E+02  0.00000000000E+00 0. -1.
         21    1    1    2  502  501 -0.26180994785E+01 -0.53804613859E+02 -0.11246890693E+03  0.12470383292E+03  0.00000000000E+00 0. -1.
<scales pt_clust_5="13000.00000" pt_clust_6="13000.00000" pt_clust_7="13000.00000" pt_clust_8="13000.00000" pt_clust_9="53.86827"></scales>
<clustering>
<clus scale="   53.868">  2  9  1 -1</clus>
<clus scale="   90.858">  5  6 -1 -1</clus>
<clus scale="   90.890">  7  8 -1 -1</clus>
<clus scale="  100.349">  1  5  2 -1</clus>
<clus scale="   53.868">  2  5  1 -1</clus>
</clustering>
</event>
<event>
 9    1  0.1803370E-005  0.9907203E+02  0.7546771E-02  0.1287845E+00
          2   -1    0    0  502    0  0.00000000000E+00  0.00000000000E+00  0.29280066181E+03  0.29280066181E+03  0.00000000000E+00 0. -1.
         -2   -1    0    0    0  501 -0.00000000000E+00 -0.00000000000E+00 -0.66722745879E+02  0.66722745879E+02  0.00000000000E+00 0.  1.
         23    2    1    2    0    0  0.31339600771E+02  0.27603043377E+02  0.29897608548E+01  0.10003446798E+03  0.90850743165E+02 0.  0.
         23    2    1    2    0    0 -0.44353126220E+02  0.56602679391E+01  0.12394247183E+03  0.15410551487E+03  0.79922055479E+02 0.  0.
        -11    1    4    4    0    0 -0.54652516855E+02  0.31793536893E+02  0.80300702118E+02  0.10220532935E+03  0.00000000000E+00 0.  1.
         11    1    4    4    0    0  0.10299390635E+02 -0.26133268954E+02  0.43641769707E+02  0.51900185519E+02  0.00000000000E+00 0. -1.
        -13    1    3    3    0    0 -0.13580587917E+02 -0.25453776308E+02 -0.72975994122E+01  0.29758730714E+02  0.00000000000E+00 0. -1.
         13    1    3    3    0    0  0.44920188688E+02  0.53056819685E+02  0.10287360267E+02  0.70275737264E+02  0.00000000000E+00 0.  1.
         21    1    1    2  502  501  0.13013525449E+02 -0.33263311316E+02  0.99145683254E+02  0.10538342485E+03  0.00000000000E+00 0.  1.
<scales pt_clust_5="13000.00000" pt_clust_6="13000.00000" pt_clust_7="13000.00000" pt_clust_8="13000.00000" pt_clust_9="35.71834"></scales>
<clustering>
<clus scale="   35.718">  1  9  2 -1</clus>
<clus scale="   79.922">  5  6 -1 -1</clus>
<clus scale="   89.157">  1  5  2 -1</clus>
<clus scale="   90.851">  7  8 -1 -1</clus>
<clus scale="   35.718">  1  5  2 -1</clus>
</clustering>
</event>
<event>
 9    1  0.1803370E-005  0.3474875E+03  0.7546771E-02  0.1063725E+00
         -1   -1    0    0    0  501 -0.00000000000E+00  0.00000000000E+00  0.36183947236E+03  0.36183947236E+03  0.00000000000E+00 0.  1.
          1   -1    0    0  502    0  0.00000000000E+00 -0.00000000000E+00 -0.37945647437E+03  0.37945647437E+03  0.00000000000E+00 0. -1.
         23    2    1    2    0    0  0.31949828474E+03 -0.91360836187E+02  0.77757163977E+02  0.35306373207E+03  0.90453667770E+02 0.  0.
         23    2    1    2    0    0 -0.32967536361E+03  0.68125953755E+02 -0.97872736713E+02  0.36274348085E+03  0.93149177974E+02 0.  0.
        -11    1    3    3    0    0  0.14241308926E+02 -0.14221819899E+02 -0.14692383260E+02  0.24918691118E+02  0.00000000000E+00 0. -1.
         11    1    3    3    0    0  0.30525697581E+03 -0.77139016288E+02  0.92449547238E+02  0.32814504095E+03  0.00000000000E+00 0.  1.
        -13    1    4    4    0    0 -0.27779720887E+03  0.68879201942E+02 -0.46929838474E+02  0.29003110774E+03  0.00000000000E+00 0. -1.
         13    1    4    4    0    0 -0.51878154744E+02 -0.75324818726E+00 -0.50942898238E+02  0.72712373111E+02  0.00000000000E+00 0.  1.
         21    1    1    2  502  501  0.10177078878E+02  0.23234882433E+02  0.24985707266E+01  0.25488733822E+02  0.00000000000E+00 0.  1.
<scales pt_clust_5="13000.00000" pt_clust_6="13000.00000" pt_clust_7="13000.00000" pt_clust_8="13000.00000" pt_clust_9="25.36598"></scales>
<clustering>
<clus scale="   25.366">  1  9  2 -1</clus>
<clus scale="   90.454">  5  6 -1 -1</clus>
<clus scale="   93.149">  7  8 -1 -1</clus>
<clus scale="  346.775">  1  5  2 -1</clus>
<clus scale="  347.487">  2  5  1 -1</clus>
</clustering>
</event>
<event>
 9    1  0.1803370E-005  0.1128641E+03  0.7546771E-02  0.1256703E+00
          1   -1    0    0  502    0  0.00000000000E+00  0.00000000000E+00  0.72682326206E+03  0.72682326206E+03  0.00000000000E+00 0. -1.
         -1   -1    0    0    0  501 -0.00000000000E+00 -0.00000000000E+00 -0.74184784333E+02  0.74184784333E+02  0.00000000000E+00 0.  1.
         23    2    1    2    0    0  0.53426303102E+02  0.25028774964E+02 -0.19183700456E+02  0.11473093237E+03  0.96510947778E+02 0.  0.
         23    2    1    2    0    0 -0.37662247829E+02 -0.45168650651E+02  0.46327794052E+03  0.47617042899E+03  0.93022445455E+02 0.  0.
        -11    1    4    4    0    0 -0.64909970787E+02 -0.14233328875E+02  0.33150020815E+03  0.33809507533E+03  0.00000000000E+00 0. -1.
         11    1    4    4    0    0  0.27247722958E+02 -0.30935321775E+02  0.13177773237E+03  0.13807535366E+03  0.00000000000E+00 0.  1.
        -13    1    3    3    0    0  0.15232054004E+02 -0.37125529197E+02 -0.54400340858E+01  0.40495856062E+02  0.00000000000E+00 0. -1.
         13    1    3    3    0    0  0.38194249098E+02  0.62154304161E+02 -0.13743666370E+02  0.74235076313E+02  0.00000000000E+00 0.  1.
         21    1    1    2  502  501 -0.15764055273E+02  0.20139875686E+02  0.20854423766E+03  0.21010668503E+03  0.00000000000E+00 0.  1.
<scales pt_clust_5="13000.00000" pt_clust_6="13000.00000" pt_clust_7="13000.00000" pt_clust_8="13000.00000" pt_clust_9="25.57577"></scales>
<clustering>
<clus scale="   25.576">  1  9  2 -1</clus>
<clus scale="   93.022">  5  6 -1 -1</clus>
<clus scale="   96.511">  7  8 -1 -1</clus>
<clus scale="  109.896">  1  5  2 -1</clus>
<clus scale="   25.576">  1  5  2 -1</clus>
</clustering>
</event>
<event>
 9    1  0.1803370E-005  0.2305582E+03  0.7546771E-02  0.1126956E+00
         -1   -1    0    0    0  501 -0.00000000000E+00  0.00000000000E+00  0.41499088204E+03  0.41499088204E+03  0.00000000000E+00 0.  1.
          1   -1    0    0  502    0  0.00000000000E+00 -0.00000000000E+00 -0.73188363298E+03  0.73188363298E+03  0.00000000000E+00 0. -1.
         23    2    1    2    0    0  0.12693457540E+03  0.16665981646E+03  0.35068373305E+03  0.41772689299E+03  0.87342977077E+02 0.  0.
         23    2    1    2    0    0 -0.83702103449E+02 -0.19065774234E+03 -0.44153558824E+03  0.49776172439E+03  0.97245265962E+02 0.  0.
        -11    1    4    4    0    0 -0.23036553454E+02  0.59542141173E+01 -0.38948052303E+02  0.45640839595E+02  0.00000000000E+00 0.  1.
         11    1    4    4    0    0 -0.60665549995E+02 -0.19661195645E+03 -0.40258753594E+03  0.45212088480E+03  0.00000000000E+00 0. -1.
        -13    1    3    3    0    0  0.20476011703E+02  0.64780635702E+02  0.17910994089E+03  0.19156244085E+03  0.00000000000E+00 0.  1.
         13    1    3    3    0    0  0.10645856370E+03  0.10187918076E+03  0.17157379216E+03  0.22616445214E+03  0.00000000000E+00 0. -1.
         21    1    1    2  502  501 -0.43232471950E+02  0.23997925878E+02 -0.22604089575E+03  0.23138589764E+03  0.00000000000E+00 0. -1.
<scales pt_clust_5="13000.00000" pt_clust_6="13000.00000" pt_clust_7="13000.00000" pt_clust_8="13000.00000" pt_clust_9="49.44641"></scales>
<clustering>
<clus scale="   49.446">  2  9  1 -1</clus>
<clus scale="   87.343">  7  8 -1 -1</clus>
<clus scale="   97.245">  5  6 -1 -1</clus>
<clus scale="  226.560">  1  7  2 -1</clus>
<clus scale="   49.446">  2  5  1 -1</clus>
</clustering>
</event>
<event>
 9    1  0.1803370E-005  0.1358779E+03  0.7546771E-02  0.1219569E+00
          1   -1    0    0  502    0  0.00000000000E+00  0.00000000000E+00  0.72181964079E+03  0.72181964079E+03  0.00000000000E+00 0. -1.
         -1   -1    0    0    0  501 -0.00000000000E+00 -0.00000000000E+00 -0.61705974083E+02  0.61705974083E+02  0.00000000000E+00 0.  1.
         23    2    1    2    0    0  0.95987764135E+02 -0.60692214652E+01  0.39726883774E+02  0.13734876246E+03  0.89643577247E+02 0.  0.
         23    2    1    2    0    0 -0.12123593402E+03 -0.20139089199E+01  0.48966169381E+03  0.51279073618E+03  0.92106227777E+02 0.  0.
        -11    1    4    4    0    0 -0.10105837874E+03  0.23120023793E+02  0.44947493203E+03  0.46127545560E+03  0.00000000000E+00 0. -1.
         11    1    4    4    0    0 -0.20177555277E+02 -0.25133932713E+02  0.40186761784E+02  0.51515280581E+02  0.00000000000E+00 0.  1.
        -11    1    3    3    0    0  0.37262520991E+02 -0.27372783133E+02  0.56169150858E+02  0.72751207792E+02  0.00000000000E+00 0. -1.
         11    1    3    3    0    0  0.58725243144E+02  0.21303561668E+02 -0.16442267084E+02  0.64597554667E+02  0.00000000000E+00 0.  1.
         21    1    1    2  502  501  0.25248169885E+02  0.80831303851E+01  0.13072508912E+03  0.13338611624E+03  0.00000000000E+00 0. -1.
<scales pt_clust_5="13000.00000" pt_clust_6="13000.00000" pt_clust_7="13000.00000" pt_clust_8="13000.00000" pt_clust_9="26.51051"></scales>
<clustering>
<clus scale="   26.511">  1  9  2 -1</clus>
<clus scale="   89.644">  7  8 -1 -1</clus>
<clus scale="   92.106">  5  6 -1 -1</clus>
<clus scale="  134.221">  2  7  1 -1</clus>
<clus scale="   26.511">  1  5  2 -1</clus>
</clustering>
</event>
<event>
 9    1  0.1803370E-005  0.1733921E+03  0.7546771E-02  0.1174562E+00
         -1   -1    0    0    0  501 -0.00000000000E+00  0.00000000000E+00  0.34264680284E+02  0.34264680284E+02  0.00000000000E+00 0.  1.
          1   -1    0    0  502    0  0.00000000000E+00 -0.00000000000E+00 -0.10070805405E+04  0.10070805405E+04  0.00000000000E+00 0. -1.
         23    2    1    2    0    0 -0.93402421224E+02 -0.11950947849E+03 -0.43505604205E+03  0.46967898553E+03  0.91203409949E+02 0.  0.
         23    2    1    2    0    0  0.10500056230E+03  0.98468790836E+02 -0.45919535750E+03  0.48951027446E+03  0.89658862364E+02 0.  0.
        -11    1    4    4    0    0  0.81715981695E+02  0.11316143566E+03 -0.41034693466E+03  0.43343698385E+03  0.00000000000E+00 0.  1.
         11    1    4    4    0    0  0.23284580608E+02 -0.14692644821E+02 -0.48848422839E+02  0.56073290609E+02  0.00000000000E+00 0. -1.
        -11    1    3    3    0    0 -0.53773040699E+02 -0.11966571260E+03 -0.37872673897E+03  0.40080589503E+03  0.00000000000E+00 0. -1.
         11    1    3    3    0    0 -0.39629380526E+02  0.15623411288E+00 -0.56329303078E+02  0.68873090502E+02  0.00000000000E+00 0.  1.
         21    1    1    2  502  501 -0.11598141079E+02  0.21040687655E+02 -0.78564460622E+02  0.82155960747E+02  0.00000000000E+00 0. -1.
<scales pt_clust_5="13000.00000" pt_clust_6="13000.00000" pt_clust_7="13000.00000" pt_clust_8="13000.00000" pt_clust_9="24.02556"></scales>
<clustering>
<clus scale="   24.026">  2  9  1 -1</clus>
<clus scale="   89.659">  5  6 -1 -1</clus>
<clus scale="   91.203">  7  8 -1 -1</clus>
<clus scale="  172.585">  2  5  1 -1</clus>
<clus scale="   24.026">  2  5  1 -1</clus>
</clustering>
</event>
<event>
 9    1  0.1803370E-005  0.1019058E+03  0.7546771E-02  0.1277422E+00
          1   -1    0    0  502    0  0.00000000000E+00  0.00000000000E+00  0.29576752911E+03  0.29576752911E+03  0.00000000000E+00 0. -1.
         -1   -1    0    0    0  501 -0.00000000000E+00 -0.00000000000E+00 -0.66454094197E+02  0.66454094197E+02  0.00000000000E+00 0.  1.
         23    2    1    2    0    0  0.12835872161E+02 -0.45035336571E+02 -0.62276776035E+00  0.10189122681E+03  0.90490292885E+02 0.  0.
         23    2    1    2    0    0  0.92665159876E+00  0.24018663941E+02  0.19516961497E+03  0.21743723610E+03  0.92790183390E+02 0.  0.
        -13    1    3    3    0    0 -0.19177256540E+02  0.18009932254E+02  0.13829761684E+02  0.29721829291E+02  0.00000000000E+00 0.  1.
         13    1    3    3    0    0  0.32013128701E+02 -0.63045268825E+02 -0.14452529444E+02  0.72169397516E+02  0.00000000000E+00 0. -1.
        -13    1    4    4    0    0 -0.33305852093E+02  0.17836852541E+02  0.17088789819E+03  0.17501459037E+03  0.00000000000E+00 0. -1.
         13    1    4    4    0    0  0.34232503692E+02  0.61818114002E+01  0.24281716777E+02  0.42422645731E+02  0.00000000000E+00 0.  1.
         21    1    1    2  502  501 -0.13762523760E+02  0.21016672630E+02  0.34766587697E+02  0.42893160396E+02  0.00000000000E+00 0. -1.
<scales pt_clust_5="13000.00000" pt_clust_6="13000.00000" pt_clust_7="13000.00000" pt_clust_8="13000.00000" pt_clust_9="25.12185"></scales>
<clustering>
<clus scale="   25.122">  1  9  2 -1</clus>
<clus scale="   90.490">  5  6 -1 -1</clus>
<clus scale="   92.790">  7  8 -1 -1</clus>
<clus scale="   99.816">  2  5  1 -1</clus>
<clus scale="   25.122">  1  5  2 -1</clus>
</clustering>
</event>
<event>
 9    1  0.1803370E-005  0.9379817E+02  0.7546771E-02  0.1294131E+00
         -2   -1    0    0    0  501 -0.00000000000E+00  0.00000000000E+00  0.33552391872E+02  0.33552391872E+02  0.00000000000E+00 0.  1.
          2   -1    0    0  502    0  0.00000000000E+00 -0.00000000000E+00 -0.40840539509E+03  0.40840539509E+03  0.00000000000E+00 0. -1.
         23    2    1    2    0    0  0.53742428567E+01 -0.46446977402E-01 -0.10355288363E+03  0.13846403757E+03  0.91761676911E+02 0.  0.
         23    2    1    2    0    0 -0.35421213800E+02  0.18770520303E+02 -0.20627222266E+03  0.22945295818E+03  0.92159835906E+02 0.  0.
        -11    1    4    4    0    0 -0.36192645086E+02 -0.32814195576E+02 -0.96475138826E+02  0.10813940725E+03  0.00000000000E+00 0.  1.
         11    1    4    4    0    0  0.77143128679E+00  0.51584715879E+02 -0.10979708384E+03  0.12131355092E+03  0.00000000000E+00 0. -1.
        -11    1    3    3    0    0  0.32319356905E+02 -0.35072144045E+02 -0.55664544700E+02  0.73301689307E+02  0.00000000000E+00 0.  1.
         11    1    3    3    0    0 -0.26945114049E+02  0.35025697067E+02 -0.47888338932E+02  0.65162348268E+02  0.00000000000E+00 0. -1.
         21    1    1    2  502  501  0.30046970943E+02 -0.18724073325E+02 -0.65027896926E+02  0.74040791213E+02  0.00000000000E+00 0.  1.
<scales pt_clust_5="13000.00000" pt_clust_6="13000.00000" pt_clust_7="13000.00000" pt_clust_8="13000.00000" pt_clust_9="35.40355"></scales>
<clustering>
<clus scale="   35.404">  2  9  1 -1</clus>
<clus scale="   91.762">  7  8 -1 -1</clus>
<clus scale="   92.160">  5  6 -1 -1</clus>
<clus scale="   93.407">  1  7  2 -1</clus>
<clus scale="   35.404">  2  5  1 -1</clus>
</clustering>
</event>
<event>
 9    1  0.1803370E-005  0.9658065E+02  0.7546771E-02  0.1290047E+00
          3   -1    0    0  502    0  0.00000000000E+00  0.00000000000E+00  0.65768670471E+03  0.65768670471E+03  0.00000000000E+00 0. -1.
         -3   -1    0    0    0  501 -0.00000000000E+00 -0.00000000000E+00 -0.19143319290E+02  0.19143319290E+02  0.00000000000E+00 0.  1.
         23    2    1    2    0    0 -0.25960985371E+02  0.34393013182E+01  0.18911643092E+03  0.21124141378E+03  0.90399717360E+02 0.  0.
         23    2    1    2    0    0  0.20932094415E+01 -0.13443373817E+02  0.35789336811E+03  0.37046684808E+03  0.94725481066E+02 0.  0.
        -11    1    4    4    0    0 -0.34965061216E+02  0.24289272726E+02  0.14677022068E+03  0.15282022757E+03  0.00000000000E+00 0.  1.
         11    1    4    4    0    0  0.37058270657E+02 -0.37732646543E+02  0.21112314743E+03  0.21764662051E+03  0.00000000000E+00 0. -1.
        -11    1    3    3    0    0 -0.10055739887E+02 -0.43242026056E+02  0.79872273187E+02  0.91381457343E+02  0.00000000000E+00 0. -1.
         11    1    3    3    0    0 -0.15905245484E+02  0.46681327374E+02  0.10924415773E+03  0.11985995644E+03  0.00000000000E+00 0.  1.
         21    1    1    2  502  501  0.23867775930E+02  0.10004072498E+02  0.91533586388E+02  0.95121762134E+02  0.00000000000E+00 0.  1.
<scales pt_clust_5="13000.00000" pt_clust_6="13000.00000" pt_clust_7="13000.00000" pt_clust_8="13000.00000" pt_clust_9="25.87957"></scales>
<clustering>
<clus scale="   25.880">  1  9  2 -1</clus>
<clus scale="   90.400">  7  8 -1 -1</clus>
<clus scale="   92.342">  2  7  1 -1</clus>
<clus scale="   94.725">  5  6 -1 -1</clus>
<clus scale="   25.880">  1  5  2 -1</clus>
</clustering>
</event>
<event>
 9    1  0.1803370E-005  0.1081665E+03  0.7546771E-02  0.1265067E+00
         -1   -1    0    0    0  501 -0.00000000000E+00  0.00000000000E+00  0.24003707491E+03  0.24003707491E+03  0.00000000000E+00 0.  1.
          1   -1    0    0  502    0  0.00000000000E+00 -0.00000000000E+00 -0.64759063984E+02  0.64759063984E+02  0.00000000000E+00 0. -1.
         23    2    1    2    0    0  0.42614097904E+02 -0.34779033346E+02  0.10048291912E+03  0.14673496178E+03  0.91699451862E+02 0.  0.
         23    2    1    2    0    0 -0.32817040929E+02  0.52335431789E+02  0.82821912077E+02  0.13641309879E+03  0.89068001026E+02 0.  0.
        -11    1    4    4    0    0  0.30374577227E+02  0.13902601395E+02  0.17377712583E+02  0.37654776083E+02  0.00000000000E+00 0. -1.
         11    1    4    4    0    0 -0.63191618156E+02  0.38432830394E+02  0.65444199494E+02  0.98758322711E+02  0.00000000000E+00 0.  1.
        -11    1    3    3    0    0  0.23492556155E+02 -0.67183402052E+01 -0.13420819663E+02  0.27877494332E+02  0.00000000000E+00 0. -1.
         11    1    3    3    0    0  0.19121541749E+02 -0.28060693141E+02  0.11390373878E+03  0.11885746744E+03  0.00000000000E+00 0.  1.
         21    1    1    2  502  501 -0.97970569745E+01 -0.17556398443E+02 -0.80268202685E+01  0.21648078327E+02  0.00000000000E+00 0.  1.
<scales pt_clust_5="13000.00000" pt_clust_6="13000.00000" pt_clust_7="13000.00000" pt_clust_8="13000.00000" pt_clust_9="20.10496"></scales>
<clustering>
<clus scale="   20.105">  2  9  1 -1</clus>
<clus scale="   89.068">  5  6 -1 -1</clus>
<clus scale="   91.699">  7  8 -1 -1</clus>
<clus scale="  105.945">  2  5  1 -1</clus>
<clus scale="   20.105">  2  5  1 -1</clus>
</clustering>
</event>
<event>
 9    1  0.1803370E-005  0.9699027E+02  0.7546771E-02  0.1287021E+00
         -1   -1    0    0    0  501 -0.00000000000E+00  0.00000000000E+00  0.40675006153E+02  0.40675006153E+02  0.00000000000E+00 0.  1.
          1   -1    0    0  502    0  0.00000000000E+00 -0.00000000000E+00 -0.64856860869E+03  0.64856860869E+03  0.00000000000E+00 0. -1.
         23    2    1    2    0    0  0.12111523897E+02  0.35117091616E+02 -0.38081979098E+02  0.10491493569E+03  0.90426807220E+02 0.  0.
         23    2    1    2    0    0 -0.23668246798E+02 -0.31927830481E+01 -0.45442253375E+03  0.46404833437E+03  0.90943046365E+02 0.  0.
        -11    1    4    4    0    0 -0.20437003254E+02 -0.46360217045E+02 -0.23587902123E+03  0.24125889306E+03  0.00000000000E+00 0. -1.
         11    1    4    4    0    0 -0.32312435436E+01  0.43167433997E+02 -0.21854351252E+03  0.22278944131E+03  0.00000000000E+00 0.  1.
        -13    1    3    3    0    0  0.13916172166E+02  0.56021428854E+02  0.40308364259E+01  0.57864565849E+02  0.00000000000E+00 0.  1.
         13    1    3    3    0    0 -0.18046482693E+01 -0.20904337238E+02 -0.42112815524E+02  0.47050369840E+02  0.00000000000E+00 0. -1.
         21    1    1    2  502  501  0.11556722901E+02 -0.31924308568E+02 -0.11538908969E+03  0.12028034478E+03  0.00000000000E+00 0. -1.
<scales pt_clust_5="13000.00000" pt_clust_6="13000.00000" pt_clust_7="13000.00000" pt_clust_8="13000.00000" pt_clust_9="33.95172"></scales>
<clustering>
<clus scale="   33.952">  2  9  1 -1</clus>
<clus scale="   90.427">  7  8 -1 -1</clus>
<clus scale="   90.943">  5  6 -1 -1</clus>
<clus scale="   96.506">  1  7  2 -1</clus>
<clus scale="   33.952">  2  5  1 -1</clus>
</clustering>
</event>
<event>
 9    1  0.1803370E-005  0.1138640E+03  0.7546771E-02  0.1253897E+00
         -1   -1    0    0    0  501 -0.00000000000E+00  0.00000000000E+00  0.51572801173E+02  0.51572801173E+02  0.00000000000E+00 0.  1.
          1   -1    0    0  502    0  0.00000000000E+00 -0.00000000000E+00 -0.67801097512E+03  0.67801097512E+03  0.00000000000E+00 0. -1.
         23    2    1    2    0    0  0.60334035739E+01 -0.59079514498E+02 -0.10882256242E+03  0.15214021095E+03  0.88190150834E+02 0.  0.
         23    2    1    2    0    0  0.79862893394E+02  0.75363574812E+02 -0.18119262970E+03  0.22984643194E+03  0.89111520386E+02 0.  0.
        -13    1    4    4    0    0  0.52476762908E+02  0.94439862764E+02 -0.13806628699E+03  0.17531399809E+03  0.00000000000E+00 0.  1.
         13    1    4    4    0    0  0.27386130486E+02 -0.19076287953E+02 -0.43126342717E+02  0.54532433847E+02  0.00000000000E+00 0. -1.
        -13    1    3    3    0    0  0.18038036655E+01 -0.34693471607E+02 -0.12004053806E+03  0.12496648134E+03  0.00000000000E+00 0. -1.
         13    1    3    3    0    0  0.42295999083E+01 -0.24386042891E+02  0.11217975645E+02  0.27173729609E+02  0.00000000000E+00 0.  1.
         21    1    1    2  502  501 -0.85896296968E+02 -0.16284060314E+02 -0.33642298182E+03  0.34759713341E+03  0.00000000000E+00 0. -1.
<scales pt_clust_5="13000.00000" pt_clust_6="13000.00000" pt_clust_7="13000.00000" pt_clust_8="13000.00000" pt_clust_9="87.42622"></scales>
<clustering>
<clus scale="   87.426">  2  9  1 -1</clus>
<clus scale="   88.190">  7  8 -1 -1</clus>
<clus scale="   89.112">  5  6 -1 -1</clus>
<clus scale="  113.144">  1  7  2 -1</clus>
<clus scale="   87.426">  2  5  1 -1</clus>
</clustering>
</event>
<event>
 9    1  0.1803370E-005  0.9966289E+02  0.7546771E-02  0.1282646E+00
          2   -1    0    0  502    0  0.00000000000E+00  0.00000000000E+00  0.40370020053E+03  0.40370020053E+03  0.00000000000E+00 0. -1.
         -2   -1    0    0    0  501 -0.00000000000E+00 -0.00000000000E+00 -0.54695229767E+02  0.54695229767E+02  0.00000000000E+00 0.  1.
         23    2    1    2    0    0 -0.21021778754E+02 -0.82802295807E+01  0.46031805603E+02  0.10723120311E+03  0.94176039461E+02 0.  0.
         23    2    1    2    0    0  0.35234686085E+02  0.34707433530E+02  0.93312616363E+02  0.13936727357E+03  0.90939009906E+02 0.  0.
        -11    1    4    4    0    0  0.53864712943E+02  0.92415208843E+01  0.92933402709E+02  0.10781201393E+03  0.00000000000E+00 0. -1.
         11    1    4    4    0    0 -0.18630026858E+02  0.25465912646E+02  0.37921365420E+00  0.31555259635E+02  0.00000000000E+00 0.  1.
        -13    1    3    3    0    0 -0.13964989191E+02 -0.51146357357E+02  0.20519657077E+02  0.56850920138E+02  0.00000000000E+00 0.  1.
         13    1    3    3    0    0 -0.70567895627E+01  0.42866127776E+02  0.25512148527E+02  0.50380282968E+02  0.00000000000E+00 0. -1.
         21    1    1    2  502  501 -0.14212907331E+02 -0.26427203949E+02  0.20966054880E+03  0.21179695363E+03  0.00000000000E+00 0. -1.
<scales pt_clust_5="13000.00000" pt_clust_6="13000.00000" pt_clust_7="13000.00000" pt_clust_8="13000.00000" pt_clust_9="30.00673"></scales>
<clustering>
<clus scale="   30.007">  1  9  2 -1</clus>
<clus scale="   90.939">  5  6 -1 -1</clus>
<clus scale="   94.176">  7  8 -1 -1</clus>
<clus scale="   96.610">  1  5  2 -1</clus>
<clus scale="   30.007">  1  5  2 -1</clus>
</clustering>
</event>
<event>
 9    1  0.1803370E-005  0.1046131E+03  0.7546771E-02  0.1270899E+00
          2   -1    0    0  502    0  0.00000000000E+00  0.00000000000E+00  0.57044013117E+03  0.57044013117E+03  0.00000000000E+00 0. -1.
         -2   -1    0    0    0  501 -0.00000000000E+00 -0.00000000000E+00 -0.35579064474E+02  0.35579064474E+02  0.00000000000E+00 0.  1.
         23    2    1    2    0    0  0.54078048299E+02  0.37817353436E+02  0.14787147820E+03  0.18564129188E+03  0.90786164462E+02 0.  0.
         23    2    1    2    0    0 -0.45130450992E+02  0.13357845961E+02  0.18067583115E+03  0.20762375691E+03  0.90822237463E+02 0.  0.
        -11    1    3    3    0    0 -0.19098470878E+02  0.18847481296E+02  0.78797395915E+02  0.83240667609E+02  0.00000000000E+00 0.  1.
         11    1    3    3    0    0  0.73176519177E+02  0.18969872140E+02  0.69074082286E+02  0.10240062427E+03  0.00000000000E+00 0. -1.
        -13    1    4    4    0    0  0.19889638500E+02 -0.73247708605E+01  0.92642495560E+01  0.23131716488E+02  0.00000000000E+00 0.  1.
         13    1    4    4    0    0 -0.65020089492E+02  0.20682616822E+02  0.17141158159E+03  0.18449204042E+03  0.00000000000E+00 0. -1.
         21    1    1    2  502  501 -0.89475973067E+01 -0.51175199397E+02  0.20631375735E+03  0.21275414685E+03  0.00000000000E+00 0.  1.
<scales pt_clust_5="13000.00000" pt_clust_6="13000.00000" pt_clust_7="13000.00000" pt_clust_8="13000.00000" pt_clust_9="51.95152"></scales>
<clustering>
<clus scale="   51.952">  1  9  2 -1</clus>
<clus scale="   90.786">  5  6 -1 -1</clus>
<clus scale="   90.822">  7  8 -1 -1</clus>
<clus scale="  104.582">  2  5  1 -1</clus>
<clus scale="   51.952">  1  5  2 -1</clus>
</clustering>
</event>
<event>
 9    1  0.1803370E-005  0.9452661E+02  0.7546771E-02  0.1295459E+00
         -4   -1    0    0    0  501 -0.00000000000E+00  0.00000000000E+00  0.25741794022E+02  0.25741794022E+02  0.00000000000E+00 0.  1.
          4   -1    0    0  502    0  0.00000000000E+00 -0.00000000000E+00 -0.56617199978E+03  0.56617199978E+03  0.00000000000E+00 0. -1.
         23    2    1    2    0    0 -0.20134129685E+02 -0.23038916822E+01 -0.11682565190E+03  0.14545511727E+03  0.84251214247E+02 0.  0.
         23    2    1    2    0    0  0.41858414770E+02  0.31639655613E+02 -0.30044470078E+03  0.31800292144E+03  0.90031356325E+02 0.  0.
        -11    1    3    3    0    0 -0.22288968711E+02 -0.32735055549E+02 -0.20867574276E+02  0.44764245153E+02  0.00000000000E+00 0.  1.
         11    1    3    3    0    0  0.21548390264E+01  0.30431163867E+02 -0.95958077625E+02  0.10069087211E+03  0.00000000000E+00 0. -1.
        -13    1    4    4    0    0  0.55550115659E+02  0.49851520918E+02 -0.17116749010E+03  0.18673322992E+03  0.00000000000E+00 0. -1.
         13    1    4    4    0    0 -0.13691700889E+02 -0.18211865306E+02 -0.12927721068E+03  0.13126969152E+03  0.00000000000E+00 0.  1.
         21    1    1    2  502  501 -0.21724285085E+02 -0.29335763930E+02 -0.12315985308E+03  0.12845575510E+03  0.00000000000E+00 0. -1.
<scales pt_clust_5="13000.00000" pt_clust_6="13000.00000" pt_clust_7="13000.00000" pt_clust_8="13000.00000" pt_clust_9="36.50386"></scales>
<clustering>
<clus scale="   36.504">  2  9  1 -1</clus>
<clus scale="   84.251">  5  6 -1 -1</clus>
<clus scale="   89.039">  1  5  2 -1</clus>
<clus scale="   90.031">  7  8 -1 -1</clus>
<clus scale="   36.504">  2  5  1 -1</clus>
</clustering>
</event>
<event>
 9    1  0.1803370E-005  0.1413648E+03  0.7546771E-02  0.1230876E+00
         -1   -1    0    0    0  501 -0.00000000000E+00  0.00000000000E+00  0.87274321058E+02  0.87274321058E+02  0.00000000000E+00 0.  1.
          1   -1    0    0  502    0  0.00000000000E+00 -0.00000000000E+00 -0.56420789254E+03  0.56420789254E+03  0.00000000000E+00 0. -1.
         23    2    1    2    0    0  0.16955388150E+02 -0.69404023116E+01  0.17204901997E+02  0.95753987742E+02  0.92396770204E+02 0.  0.
         23    2    1    2    0    0  0.89770454844E+02  0.79179046884E+01 -0.17940836085E+03  0.22339344755E+03  0.97958382436E+02 0.  0.
        -11    1    4    4    0    0  0.55614082678E+02  0.50945216841E+02 -0.80910924574E+02  0.11061156823E+03  0.00000000000E+00 0.  1.
         11    1    4    4    0    0  0.34156372166E+02 -0.43027312153E+02 -0.98497436272E+02  0.11278187932E+03  0.00000000000E+00 0. -1.
        -13    1    3    3    0    0  0.52316675214E+02 -0.18860950725E+02  0.17926421060E+02  0.58430527464E+02  0.00000000000E+00 0.  1.
         13    1    3    3    0    0 -0.35361287064E+02  0.11920548414E+02 -0.72151906326E+00  0.37323460277E+02  0.00000000000E+00 0. -1.
         21    1    1    2  502  501 -0.10672584299E+03 -0.97750237675E+00 -0.31473011263E+03  0.33233477830E+03  0.00000000000E+00 0. -1.
<scales pt_clust_5="13000.00000" pt_clust_6="13000.00000" pt_clust_7="13000.00000" pt_clust_8="13000.00000" pt_clust_9="101.92239"></scales>
<clustering>
<clus scale="   92.397">  7  8 -1 -1</clus>
<clus scale="   94.196">  1  7  2 -1</clus>
<clus scale="   97.958">  5  6 -1 -1</clus>
<clus scale="  101.922">  2  9  1 -1</clus>
<clus scale="  101.922">  2  5  1 -1</clus>
</clustering>
</event>
<event>
 9    1  0.1803370E-005  0.9295266E+02  0.7546771E-02  0.1296927E+00
         -1   -1    0    0    0  501 -0.00000000000E+00  0.00000000000E+00  0.42794597087E+02  0.42794597087E+02  0.00000000000E+00 0.  1.
          1   -1    0    0  502    0  0.00000000000E+00 -0.00000000000E+00 -0.54069912211E+03  0.54069912211E+03  0.00000000000E+00 0. -1.
         23    2    1    2    0    0  0.97182053362E+01  0.37686811909E+02 -0.99366871092E+02  0.14001441019E+03  0.90639509505E+02 0.  0.
         23    2    1    2    0    0 -0.71219578564E+01  0.45809674147E+02 -0.15804238527E+03  0.18888870051E+03  0.92478630563E+02 0.  0.
        -11    1    3    3    0    0  0.48317589759E+02  0.31896496376E+02 -0.71776117176E+02  0.92215979949E+02  0.00000000000E+00 0. -1.
         11    1    3    3    0    0 -0.38599384423E+02  0.57903155323E+01 -0.27590753916E+02  0.47798430240E+02  0.00000000000E+00 0.  1.
        -13    1    4    4    0    0  0.12104896771E+02 -0.21905217204E+02 -0.79845130575E+02  0.83675635301E+02  0.00000000000E+00 0.  1.
         13    1    4    4    0    0 -0.19226854628E+02  0.67714891350E+02 -0.78197254692E+02  0.10521306521E+03  0.00000000000E+00 0. -1.
         21    1    1    2  502  501 -0.25962474797E+01 -0.83496486055E+02 -0.24049526866E+03  0.25459060849E+03  0.00000000000E+00 0.  1.
<scales pt_clust_5="13000.00000" pt_clust_6="13000.00000" pt_clust_7="13000.00000" pt_clust_8="13000.00000" pt_clust_9="83.53684"></scales>
<clustering>
<clus scale="   83.537">  2  9  1 -1</clus>
<clus scale="   90.640">  5  6 -1 -1</clus>
<clus scale="   91.123">  1  5  2 -1</clus>
<clus scale="   92.479">  7  8 -1 -1</clus>
<clus scale="   83.537">  2  5  1 -1</clus>
</clustering>
</event>
<event>
 9    1  0.1803370E-005  0.1384517E+03  0.7546771E-02  0.1216005E+00
         -3   -1    0    0    0  501 -0.00000000000E+00  0.00000000000E+00  0.24905897089E+03  0.24905897089E+03  0.00000000000E+00 0.  1.
          3   -1    0    0  502    0  0.00000000000E+00 -0.00000000000E+00 -0.15983255734E+03  0.15983255734E+03  0.00000000000E+00 0. -1.
         23    2    1    2    0    0 -0.16780592647E+02  0.11265615621E+03  0.15584149799E+03  0.21313125106E+03  0.90362380788E+02 0.  0.
         23    2    1    2    0    0 -0.13094869965E+02 -0.62859611708E+02 -0.77128672373E+02  0.13674523976E+03  0.92884993892E+02 0.  0.
        -13    1    4    4    0    0  0.30723741220E+02 -0.36542911140E+02 -0.45285790090E+01  0.47956653939E+02  0.00000000000E+00 0.  1.
         13    1    4    4    0    0 -0.43818611185E+02 -0.26316700568E+02 -0.72600093364E+02  0.88788585817E+02  0.00000000000E+00 0. -1.
        -13    1    3    3    0    0 -0.32508624668E+02  0.79142029231E+02  0.45835272785E+02  0.97062576207E+02  0.00000000000E+00 0.  1.
         13    1    3    3    0    0  0.15728032021E+02  0.33514126976E+02  0.11000622520E+03  0.11606867485E+03  0.00000000000E+00 0. -1.
         21    1    1    2  502  501  0.29875462612E+02 -0.49796544499E+02  0.10513587926E+02  0.59015037417E+02  0.00000000000E+00 0. -1.
<scales pt_clust_5="13000.00000" pt_clust_6="13000.00000" pt_clust_7="13000.00000" pt_clust_8="13000.00000" pt_clust_9="58.07098"></scales>
<clustering>
<clus scale="   58.071">  2  9  1 -1</clus>
<clus scale="   90.362">  7  8 -1 -1</clus>
<clus scale="   92.885">  5  6 -1 -1</clus>
<clus scale="  136.772">  1  7  2 -1</clus>
<clus scale="   58.071">  2  5  1 -1</clus>
</clustering>
</event>
<event>
 9    1  0.1803370E-005  0.1147875E+03  0.7546771E-02  0.1252417E+00
         -2   -1    0    0    0  501 -0.00000000000E+00  0.00000000000E+00  0.77813862837E+03  0.77813862837E+03  0.00000000000E+00 0.  1.
          2   -1    0    0  502    0  0.00000000000E+00 -0.00000000000E+00 -0.20251764774E+03  0.20251764774E+03  0.00000000000E+00 0. -1.
         23    2    1    2    0    0  0.46037632365E+02 -0.61939296650E+02  0.41282041977E+03  0.42952618424E+03  0.90089421741E+02 0.  0.
         23    2    1    2    0    0 -0.93220201603E+02 -0.20406324210E+02  0.33226231915E+03  0.35690269000E+03  0.88740393000E+02 0.  0.
        -11    1    3    3    0    0 -0.14027175221E+02  0.15292797286E+02  0.68382097946E+02  0.71461476427E+02  0.00000000000E+00 0. -1.
         11    1    3    3    0    0  0.60064807587E+02 -0.77232093936E+02  0.34443832182E+03  0.35806470782E+03  0.00000000000E+00 0.  1.
        -13    1    4    4    0    0 -0.87703791737E+02  0.19580791358E+02  0.23509814337E+03  0.25168730499E+03  0.00000000000E+00 0.  1.
         13    1    4    4    0    0 -0.55164098663E+01 -0.39987115568E+02  0.97164175773E+02  0.10521538501E+03  0.00000000000E+00 0. -1.
         21    1    1    2  502  501  0.47182569237E+02  0.82345620859E+02 -0.16946175828E+03  0.19422740186E+03  0.00000000000E+00 0. -1.
<scales pt_clust_5="13000.00000" pt_clust_6="13000.00000" pt_clust_7="13000.00000" pt_clust_8="13000.00000" pt_clust_9="94.90520"></scales>
<clustering>
<clus scale="   88.740">  7  8 -1 -1</clus>
<clus scale="   90.089">  5  6 -1 -1</clus>
<clus scale="   94.905">  2  9  1 -1</clus>
<clus scale="  113.732">  2  7  1 -1</clus>
<clus scale="   94.905">  2  5  1 -1</clus>
</clustering>
</event>
<event>
 9    1  0.1803370E-005  0.1238126E+03  0.7546771E-02  0.1237165E+00
         -2   -1    0    0    0  501 -0.00000000000E+00  0.00000000000E+00  0.15653772544E+03  0.15653772544E+03  0.00000000000E+00 0.  1.
          2   -1    0    0  502    0  0.00000000000E+00 -0.00000000000E+00 -0.24369898429E+03  0.24369898429E+03  0.00000000000E+00 0. -1.
         23    2    1    2    0    0  0.11231502839E+01 -0.78389072927E+02  0.87981753351E+02  0.14939081371E+03  0.91818941828E+02 0.  0.
         23    2    1    2    0    0 -0.26163162453E+02  0.10385589088E+03 -0.15466070864E+03  0.20967447649E+03  0.92589924690E+02 0.  0.
        -11    1    3    3    0    0  0.97526629522E+01 -0.53558054356E+02  0.10486139329E+03  0.11815029168E+03  0.00000000000E+00 0.  1.
         11    1    3    3    0    0 -0.86295126683E+01 -0.24831018571E+02 -0.16879639943E+02  0.31240522031E+02  0.00000000000E+00 0. -1.
        -11    1    4    4    0    0 -0.51535823640E+02  0.51519170361E+02 -0.45284904288E+02  0.85795621038E+02  0.00000000000E+00 0.  1.
         11    1    4    4    0    0  0.25372661187E+02  0.52336720523E+02 -0.10937580435E+03  0.12387885545E+03  0.00000000000E+00 0. -1.
         21    1    1    2  502  501  0.25040012169E+02 -0.25466817958E+02 -0.20482303557E+02  0.41171419520E+02  0.00000000000E+00 0. -1.
<scales pt_clust_5="13000.00000" pt_clust_6="13000.00000" pt_clust_7="13000.00000" pt_clust_8="13000.00000" pt_clust_9="35.71500"></scales>
<clustering>
<clus scale="   35.715">  2  9  1 -1</clus>
<clus scale="   91.819">  5  6 -1 -1</clus>
<clus scale="   92.590">  7  8 -1 -1</clus>
<clus scale="  123.237">  1  5  2 -1</clus>
<clus scale="   35.715">  2  5  1 -1</clus>
</clustering>
</event>
<event>
 9    1  0.1803370E-005  0.1278559E+03  0.7546771E-02  0.1231292E+00
         -1   -1    0    0    0  501 -0.00000000000E+00  0.00000000000E+00  0.17036472214E+03  0.17036472214E+03  0.00000000000E+00 0.  1.
          1   -1    0    0  502    0  0.00000000000E+00 -0.00000000000E+00 -0.11504083917E+03  0.11504083917E+03  0.00000000000E+00 0. -1.
         23    2    1    2    0    0  0.74759765355E+02  0.36585981089E+01  0.46244022999E+02  0.12713764867E+03  0.91777253114E+02 0.  0.
         23    2    1    2    0    0 -0.96172690180E+02  0.49042514583E+01  0.38601517102E+01  0.13462301686E+03  0.93995839686E+02 0.  0.
        -11    1    3    3    0    0  0.14855912793E+02  0.21076514910E+02  0.58164622391E+02  0.63624216487E+02  0.00000000000E+00 0.  1.
         11    1    3    3    0    0  0.59903852562E+02 -0.17417916801E+02 -0.11920599391E+02  0.63513432180E+02  0.00000000000E+00 0. -1.
        -13    1    4    4    0    0 -0.12392668590E+02  0.20941537743E+02 -0.33577670062E+02  0.41467893178E+02  0.00000000000E+00 0. -1.
         13    1    4    4    0    0 -0.83780021590E+02 -0.16037286285E+02  0.37437821772E+02  0.93155123681E+02  0.00000000000E+00 0.  1.
         21    1    1    2  502  501  0.21412924825E+02 -0.85628495672E+01  0.52197082576E+01  0.23644895782E+02  0.00000000000E+00 0.  1.
<scales pt_clust_5="13000.00000" pt_clust_6="13000.00000" pt_clust_7="13000.00000" pt_clust_8="13000.00000" pt_clust_9="23.06156"></scales>
<clustering>
<clus scale="   23.062">  1  9  2 -1</clus>
<clus scale="   91.777">  5  6 -1 -1</clus>
<clus scale="   93.996">  7  8 -1 -1</clus>
<clus scale="  126.234">  1  5  2 -1</clus>
<clus scale="  127.856">  2  5  1 -1</clus>
</clustering>
</event>
<event>
 9    1  0.1803370E-005  0.9135616E+02  0.7546771E-02  0.1301709E+00
          1   -1    0    0  502    0  0.00000000000E+00  0.00000000000E+00  0.15112921295E+03  0.15112921295E+03  0.00000000000E+00 0. -1.
         -1   -1    0    0    0  501 -0.00000000000E+00 -0.00000000000E+00 -0.12264257078E+03  0.12264257078E+03  0.00000000000E+00 0.  1.
         23    2    1    2    0    0  0.79967730650E+01  0.80616239374E+01 -0.69299005610E+02  0.11163719364E+03  0.86784633809E+02 0.  0.
         23    2    1    2    0    0  0.38106348934E+01 -0.34925513930E+02  0.88828768331E+02  0.13145382808E+03  0.90306402714E+02 0.  0.
        -11    1    3    3    0    0 -0.72912114232E+00 -0.26255084964E+02 -0.71488545309E+02  0.76160837801E+02  0.00000000000E+00 0.  1.
         11    1    3    3    0    0  0.87258942073E+01  0.34316708902E+02  0.21895396987E+01  0.35476355839E+02  0.00000000000E+00 0. -1.
        -13    1    4    4    0    0 -0.13675591289E+02  0.27876788850E+02  0.21716119505E+02  0.37890988375E+02  0.00000000000E+00 0.  1.
         13    1    4    4    0    0  0.17486226182E+02 -0.62802302780E+02  0.67112648826E+02  0.93562839702E+02  0.00000000000E+00 0. -1.
         21    1    1    2  502  501 -0.11807407958E+02  0.26863889993E+02  0.89568794462E+01  0.30680762012E+02  0.00000000000E+00 0. -1.
<scales pt_clust_5="13000.00000" pt_clust_6="13000.00000" pt_clust_7="13000.00000" pt_clust_8="13000.00000" pt_clust_9="29.34422"></scales>
<clustering>
<clus scale="   29.344">  1  9  2 -1</clus>
<clus scale="   86.785">  5  6 -1 -1</clus>
<clus scale="   87.876">  2  5  1 -1</clus>
<clus scale="   90.306">  7  8 -1 -1</clus>
<clus scale="   29.344">  1  5  2 -1</clus>
</clustering>
</event>
<event>
 9    1  0.1803370E-005  0.2331406E+03  0.7546771E-02  0.1124611E+00
          3   -1    0    0  502    0  0.00000000000E+00  0.00000000000E+00  0.52200874778E+03  0.52200874778E+03  0.00000000000E+00 0. -1.
         -3   -1    0    0    0  501 -0.00000000000E+00 -0.00000000000E+00 -0.13902361927E+03  0.13902361927E+03  0.00000000000E+00 0.  1.
         23    2    1    2    0    0 -0.17551357332E+03  0.11301739429E+03  0.56310979072E+02  0.23451176765E+03  0.90812427385E+02 0.  0.
         23    2    1    2    0    0  0.19707559953E+03 -0.10765288707E+03  0.25873590962E+03  0.35504120838E+03  0.93177533228E+02 0.  0.
        -11    1    4    4    0    0  0.70735929604E+02 -0.30542180541E+01  0.38977544627E+02  0.80821711006E+02  0.00000000000E+00 0.  1.
         11    1    4    4    0    0  0.12633966992E+03 -0.10459866901E+03  0.21975836499E+03  0.27421949737E+03  0.00000000000E+00 0. -1.
        -11    1    3    3    0    0 -0.97936095430E+02  0.11133739114E+03  0.22945065213E+02  0.15004655768E+03  0.00000000000E+00 0.  1.
         11    1    3    3    0    0 -0.77577477893E+02  0.16800031489E+01  0.33365913859E+02  0.84465209965E+02  0.00000000000E+00 0. -1.
         21    1    1    2  502  501 -0.21562026202E+02 -0.53645072211E+01  0.67938239816E+02  0.71479391023E+02  0.00000000000E+00 0. -1.
<scales pt_clust_5="13000.00000" pt_clust_6="13000.00000" pt_clust_7="13000.00000" pt_clust_8="13000.00000" pt_clust_9="22.21934"></scales>
<clustering>
<clus scale="   22.219">  1  9  2 -1</clus>
<clus scale="   90.812">  7  8 -1 -1</clus>
<clus scale="   93.178">  5  6 -1 -1</clus>
<clus scale="  232.205">  2  7  1 -1</clus>
<clus scale="   22.219">  1  5  2 -1</clus>
</clustering>
</event>
<event>
 9    1  0.1803370E-005  0.9443836E+02  0.7546771E-02  0.1293613E+00
         -1   -1    0    0    0  501 -0.00000000000E+00  0.00000000000E+00  0.16414113349E+03  0.16414113349E+03  0.00000000000E+00 0.  1.
          1   -1    0    0  502    0  0.00000000000E+00 -0.00000000000E+00 -0.80535371875E+02  0.80535371875E+02  0.00000000000E+00 0. -1.
         23    2    1    2    0    0 -0.66556871001E+01 -0.28527859235E+02  0.49603371119E+02  0.10642648843E+03  0.89487239817E+02 0.  0.
         23    2    1    2    0    0 -0.27229462713E+02  0.12586437092E+02  0.27723135636E+02  0.10027948415E+03  0.91583517372E+02 0.  0.
        -11    1    4    4    0    0 -0.44281165435E+02 -0.96402291703E+01  0.47758735192E+02  0.65838077264E+02  0.00000000000E+00 0.  1.
         11    1    4    4    0    0  0.17051702722E+02  0.22226666262E+02 -0.20035599556E+02  0.34441406889E+02  0.00000000000E+00 0. -1.
        -13    1    3    3    0    0 -0.96503952571E+01 -0.48478087450E+02  0.64562552762E+02  0.81311612397E+02  0.00000000000E+00 0. -1.
         13    1    3    3    0    0  0.29947081570E+01  0.19950228215E+02 -0.14959181643E+02  0.25114876034E+02  0.00000000000E+00 0.  1.
         21    1    1    2  502  501  0.33885149813E+02  0.15941422143E+02  0.62792548568E+01  0.37970532776E+02  0.00000000000E+00 0. -1.
<scales pt_clust_5="13000.00000" pt_clust_6="13000.00000" pt_clust_7="13000.00000" pt_clust_8="13000.00000" pt_clust_9="37.44773"></scales>
<clustering>
<clus scale="   37.448">  2  9  1 -1</clus>
<clus scale="   89.487">  7  8 -1 -1</clus>
<clus scale="   91.584">  5  6 -1 -1</clus>
<clus scale="   92.407">  1  7  2 -1</clus>
<clus scale="   37.448">  2  5  1 -1</clus>
</clustering>
</event>
<event>
 9    1  0.1803370E-005  0.9597857E+02  0.7546771E-02  0.1293543E+00
         -1   -1    0    0    0  501 -0.00000000000E+00  0.00000000000E+00  0.39273025962E+02  0.39273025962E+02  0.00000000000E+00 0.  1.
          1   -1    0    0  502    0  0.00000000000E+00 -0.00000000000E+00 -0.50256328218E+03  0.50256328218E+03  0.00000000000E+00 0. -1.
         23    2    1    2    0    0 -0.22578565523E+01  0.88058483342E+01 -0.43647533171E+02  0.10525085699E+03  0.95341464558E+02 0.  0.
         23    2    1    2    0    0  0.25844317366E+02 -0.11136780894E+02 -0.37445305889E+03  0.38555741840E+03  0.87449830985E+02 0.  0.
        -11    1    4    4    0    0  0.42138612714E+02  0.21650163677E+02 -0.28485132361E+03  0.28876403659E+03  0.00000000000E+00 0.  1.
         11    1    4    4    0    0 -0.16294295349E+02 -0.32786944571E+02 -0.89601735287E+02  0.96793381807E+02  0.00000000000E+00 0. -1.
        -13    1    3    3    0    0  0.17825512014E+02 -0.38815379975E+02 -0.28665604146E+02  0.51440251382E+02  0.00000000000E+00 0. -1.
         13    1    3    3    0    0 -0.20083368566E+02  0.47621228309E+02 -0.14981929024E+02  0.53810605608E+02  0.00000000000E+00 0.  1.
         21    1    1    2  502  501 -0.23586460813E+02  0.23309325602E+01 -0.45189664153E+02  0.51028032753E+02  0.00000000000E+00 0. -1.
<scales pt_clust_5="13000.00000" pt_clust_6="13000.00000" pt_clust_7="13000.00000" pt_clust_8="13000.00000" pt_clust_9="23.70136"></scales>
<clustering>
<clus scale="   23.701">  2  9  1 -1</clus>
<clus scale="   87.450">  5  6 -1 -1</clus>
<clus scale="   88.144">  2  5  1 -1</clus>
<clus scale="   95.341">  7  8 -1 -1</clus>
<clus scale="   23.701">  2  5  1 -1</clus>
</clustering>
</event>
<event>
 9    1  0.1803370E-005  0.9463810E+02  0.7546771E-02  0.1292809E+00
          1   -1    0    0  502    0  0.00000000000E+00  0.00000000000E+00  0.30332269849E+03  0.30332269849E+03  0.00000000000E+00 0. -1.
         -1   -1    0    0    0  501 -0.00000000000E+00 -0.00000000000E+00 -0.49153588582E+02  0.49153588582E+02  0.00000000000E+00 0.  1.
         23    2    1    2    0    0  0.14407944731E+02 -0.40528899717E+02  0.11165694378E+03  0.15046177624E+03  0.91221118341E+02 0.  0.
         23    2    1    2    0    0  0.17601867932E+01  0.94758858163E+00  0.12543601741E+03  0.15597448995E+03  0.92681448355E+02 0.  0.
        -11    1    3    3    0    0  0.48872649347E+02 -0.32917123080E+02  0.41960349161E+02  0.72337706266E+02  0.00000000000E+00 0. -1.
         11    1    3    3    0    0 -0.34464704616E+02 -0.76117766364E+01  0.69696594616E+02  0.78124069972E+02  0.00000000000E+00 0.  1.
        -13    1    4    4    0    0 -0.41044330470E+02  0.18526337193E+02  0.48400497216E+02  0.66109533082E+02  0.00000000000E+00 0.  1.
         13    1    4    4    0    0  0.42804517264E+02 -0.17578748612E+02  0.77035520195E+02  0.89864956867E+02  0.00000000000E+00 0. -1.
         21    1    1    2  502  501 -0.16168131524E+02  0.39581311135E+02  0.17076148722E+02  0.46040020887E+02  0.00000000000E+00 0. -1.
<scales pt_clust_5="13000.00000" pt_clust_6="13000.00000" pt_clust_7="13000.00000" pt_clust_8="13000.00000" pt_clust_9="42.75615"></scales>
<clustering>
<clus scale="   42.756">  2  9  1 -1</clus>
<clus scale="   91.221">  5  6 -1 -1</clus>
<clus scale="   92.681">  7  8 -1 -1</clus>
<clus scale="   93.208">  2  5  1 -1</clus>
<clus scale="   94.638">  1  5  2 -1</clus>
</clustering>
</event>
<event>
 9    1  0.1803370E-005  0.2813612E+03  0.7546771E-02  0.1094973E+00
         -2   -1    0    0    0  501 -0.00000000000E+00  0.00000000000E+00  0.19484289900E+03  0.19484289900E+03  0.00000000000E+00 0. -1.
          2   -1    0    0  502    0  0.00000000000E+00 -0.00000000000E+00 -0.11259168384E+04  0.11259168384E+04  0.00000000000E+00 0.  1.
         23    2    1    2    0    0 -0.29910845419E+03 -0.14284738139E+02  0.16253902403E+02  0.31318559743E+03  0.90283486765E+02 0.  0.
         23    2    1    2    0    0  0.13487050462E+03  0.49756793064E+02 -0.56710535550E+03  0.59188013010E+03  0.89709602031E+02 0.  0.
        -11    1    4    4    0    0  0.38968204014E+02 -0.24956511614E+02 -0.19516369616E+03  0.20057471599E+03  0.00000000000E+00 0. -1.
         11    1    4    4    0    0  0.95902300611E+02  0.74713304678E+02 -0.37194165934E+03  0.39130541411E+03  0.00000000000E+00 0.  1.
        -13    1    3    3    0    0 -0.18999853539E+03 -0.10236877109E+02  0.53785757452E+02  0.19772997954E+03  0.00000000000E+00 0. -1.
         13    1    3    3    0    0 -0.10910991879E+03 -0.40478610306E+01 -0.37531855049E+02  0.11545561789E+03  0.00000000000E+00 0.  1.
         21    1    1    2  502  501  0.16423794956E+03 -0.35472054925E+02 -0.38022248629E+03  0.41569400986E+03  0.00000000000E+00 0.  1.
<scales pt_clust_5="13000.00000" pt_clust_6="13000.00000" pt_clust_7="13000.00000" pt_clust_8="13000.00000" pt_clust_9="168.02491"></scales>
<clustering>
<clus scale="   89.710">  5  6 -1 -1</clus>
<clus scale="   90.283">  7  8 -1 -1</clus>
<clus scale="  168.025">  2  9  1 -1</clus>
<clus scale="  281.178">  2  5  1 -1</clus>
<clus scale="  168.025">  2  5  1 -1</clus>
</clustering>
</event>
<event>
 9    1  0.1803370E-005  0.1026344E+03  0.7546771E-02  0.1274989E+00
         -1   -1    0    0    0  501 -0.00000000000E+00  0.00000000000E+00  0.53465901131E+02  0.53465901131E+02  0.00000000000E+00 0.  1.
          1   -1    0    0  502    0  0.00000000000E+00 -0.00000000000E+00 -0.26831456551E+03  0.26831456551E+03  0.00000000000E+00 0. -1.
         23    2    1    2    0    0  0.41172016246E+02  0.27045268966E+02 -0.58477878563E+02  0.11875889585E+03  0.90870410844E+02 0.  0.
         23    2    1    2    0    0 -0.48798822294E+02 -0.42564440338E+01 -0.14063163163E+03  0.17429493356E+03  0.90565035618E+02 0.  0.
        -11    1    3    3    0    0  0.98688462428E-01  0.52327495503E+02 -0.16637488064E+02  0.54908856609E+02  0.00000000000E+00 0.  1.
         11    1    3    3    0    0  0.41073327783E+02 -0.25282226537E+02 -0.41840390499E+02  0.63850039240E+02  0.00000000000E+00 0. -1.
        -13    1    4    4    0    0  0.48121086257E+01 -0.26503333277E+02 -0.99689370927E+02  0.10326448441E+03  0.00000000000E+00 0.  1.
         13    1    4    4    0    0 -0.53610930920E+02  0.22246889243E+02 -0.40942260699E+02  0.71030449148E+02  0.00000000000E+00 0. -1.
         21    1    1    2  502  501  0.76268060485E+01 -0.22788824933E+02 -0.15739154193E+02  0.28726637238E+02  0.00000000000E+00 0.  1.
<scales pt_clust_5="13000.00000" pt_clust_6="13000.00000" pt_clust_7="13000.00000" pt_clust_8="13000.00000" pt_clust_9="24.03120"></scales>
<clustering>
<clus scale="   24.031">  1  9  2 -1</clus>
<clus scale="   90.565">  7  8 -1 -1</clus>
<clus scale="   90.870">  5  6 -1 -1</clus>
<clus scale="  102.364">  2  7  1 -1</clus>
<clus scale="  102.364">  2  5  1 -1</clus>
</clustering>
</event>
<event>
 9    1  0.1803370E-005  0.1008420E+03  0.7546771E-02  0.1279639E+00
         -1   -1    0    0    0  501 -0.00000000000E+00  0.00000000000E+00  0.19625600378E+03  0.19625600378E+03  0.00000000000E+00 0.  1.
          1   -1    0    0  502    0  0.00000000000E+00 -0.00000000000E+00 -0.14823372002E+03  0.14823372002E+03  0.00000000000E+00 0. -1.
         23    2    1    2    0    0 -0.33568187811E+01  0.17945367298E+02  0.43769362398E+02  0.10052417780E+03  0.88634354496E+02 0.  0.
         23    2    1    2    0    0 -0.69535566490E+02 -0.56704869622E+02  0.63177389889E+02  0.14253728643E+03  0.90966247495E+02 0.  0.
        -11    1    3    3    0    0 -0.31296911885E+02  0.18236384103E+02  0.58599431183E+02  0.68890897321E+02  0.00000000000E+00 0.  1.
         11    1    3    3    0    0  0.27940093104E+02 -0.29101680561E+00 -0.14830068785E+02  0.31633280475E+02  0.00000000000E+00 0. -1.
        -13    1    4    4    0    0  0.14357328018E+02 -0.18479787675E+02 -0.93868413832E+01  0.25214047900E+02  0.00000000000E+00 0. -1.
         13    1    4    4    0    0 -0.83892894508E+02 -0.38225081947E+02  0.72564231272E+02  0.11732323853E+03  0.00000000000E+00 0.  1.
         21    1    1    2  502  501  0.72892385271E+02  0.38759502324E+02 -0.58924468522E+02  0.10142825958E+03  0.00000000000E+00 0.  1.
<scales pt_clust_5="13000.00000" pt_clust_6="13000.00000" pt_clust_7="13000.00000" pt_clust_8="13000.00000" pt_clust_9="82.55664"></scales>
<clustering>
<clus scale="   82.557">  2  9  1 -1</clus>
<clus scale="   88.634">  5  6 -1 -1</clus>
<clus scale="   90.966">  7  8 -1 -1</clus>
<clus scale="   98.744">  1  5  2 -1</clus>
<clus scale="   82.557">  2  5  1 -1</clus>
</clustering>
</event>
<event>
 9    1  0.1803370E-005  0.9971699E+02  0.7546771E-02  0.1281117E+00
         -1   -1    0    0    0  501 -0.00000000000E+00  0.00000000000E+00  0.27803434079E+02  0.27803434079E+02  0.00000000000E+00 0.  1.
          1   -1    0    0  502    0  0.00000000000E+00 -0.00000000000E+00 -0.57519984380E+03  0.57519984380E+03  0.00000000000E+00 0. -1.
         23    2    1    2    0    0  0.14134534009E+02 -0.22070454870E+02 -0.17507511262E+03  0.19843232149E+03  0.89650438492E+02 0.  0.
         23    2    1    2    0    0 -0.33406850307E+02  0.50533198489E+02 -0.18829652169E+03  0.21736340336E+03  0.90120182202E+02 0.  0.
        -11    1    3    3    0    0 -0.36146387781E+02 -0.22712825792E+02 -0.70997900744E+02  0.82844044536E+02  0.00000000000E+00 0. -1.
         11    1    3    3    0    0  0.50280921790E+02  0.64237092286E+00 -0.10407721188E+03  0.11558827695E+03  0.00000000000E+00 0.  1.
        -13    1    4    4    0    0 -0.63351013455E+01  0.33472250483E+02 -0.90020541258E+01  0.35235806220E+02  0.00000000000E+00 0.  1.
         13    1    4    4    0    0 -0.27071748961E+02  0.17060948006E+02 -0.17929446757E+03  0.18212759714E+03  0.00000000000E+00 0. -1.
         21    1    1    2  502  501  0.19272316298E+02 -0.28462743620E+02 -0.18402477540E+03  0.18720755303E+03  0.00000000000E+00 0. -1.
<scales pt_clust_5="13000.00000" pt_clust_6="13000.00000" pt_clust_7="13000.00000" pt_clust_8="13000.00000" pt_clust_9="34.37368"></scales>
<clustering>
<clus scale="   34.374">  2  9  1 -1</clus>
<clus scale="   89.650">  5  6 -1 -1</clus>
<clus scale="   90.120">  7  8 -1 -1</clus>
<clus scale="   99.293">  1  5  2 -1</clus>
<clus scale="   34.374">  2  5  1 -1</clus>
</clustering>
</event>
<event>
 9    1  0.1803370E-005  0.1130694E+03  0.7546771E-02  0.1256565E+00
         -2   -1    0    0    0  501 -0.00000000000E+00  0.00000000000E+00  0.47226867350E+02  0.47226867350E+02  0.00000000000E+00 0.  1.
          2   -1    0    0  502    0  0.00000000000E+00 -0.00000000000E+00 -0.43423745884E+03  0.43423745884E+03  0.00000000000E+00 0. -1.
         23    2    1    2    0    0  0.60153896962E+02  0.78061800995E+01 -0.60556386317E+02  0.12616738980E+03  0.92583511259E+02 0.  0.
         23    2    1    2    0    0 -0.78780886229E+02  0.35746603774E+01 -0.27591922900E+03  0.30024902929E+03  0.88311111580E+02 0.  0.
        -13    1    4    4    0    0 -0.17983636524E+02  0.93229997574E+01 -0.28757997835E+01  0.20459709956E+02  0.00000000000E+00 0.  1.
         13    1    4    4    0    0 -0.60797249705E+02 -0.57483393800E+01 -0.27304342922E+03  0.27978931934E+03  0.00000000000E+00 0. -1.
        -13    1    3    3    0    0  0.13532732110E+02  0.29675461871E+02  0.14051421797E+02  0.35513523201E+02  0.00000000000E+00 0. -1.
         13    1    3    3    0    0  0.46621164852E+02 -0.21869281772E+02 -0.74607808114E+02  0.90653866597E+02  0.00000000000E+00 0.  1.
         21    1    1    2  502  501  0.18626989267E+02 -0.11380840477E+02 -0.50534976176E+02  0.55047907101E+02  0.00000000000E+00 0. -1.
<scales pt_clust_5="13000.00000" pt_clust_6="13000.00000" pt_clust_7="13000.00000" pt_clust_8="13000.00000" pt_clust_9="21.82861"></scales>
<clustering>
<clus scale="   21.829">  2  9  1 -1</clus>
<clus scale="   88.311">  5  6 -1 -1</clus>
<clus scale="   92.584">  7  8 -1 -1</clus>
<clus scale="  109.599">  2  5  1 -1</clus>
<clus scale="   21.829">  2  5  1 -1</clus>
</clustering>
</event>
<event>
 9    1  0.1803370E-005  0.1910526E+03  0.7546771E-02  0.1157551E+00
         -2   -1    0    0    0  501 -0.00000000000E+00  0.00000000000E+00  0.61846008897E+03  0.61846008897E+03  0.00000000000E+00 0.  1.
          2   -1    0    0  502    0  0.00000000000E+00 -0.00000000000E+00 -0.77105905286E+02  0.77105905286E+02  0.00000000000E+00 0. -1.
         23    2    1    2    0    0  0.51629360484E+02  0.17006389808E+03  0.39570354517E+03  0.44307106912E+03  0.90240547074E+02 0.  0.
         23    2    1    2    0    0 -0.53594381711E+02 -0.13964012277E+03  0.11513601653E+03  0.20936014141E+03  0.90573974585E+02 0.  0.
        -11    1    4    4    0    0 -0.18119780407E+02 -0.81645050435E+02  0.11397393384E+03  0.14136583144E+03  0.00000000000E+00 0.  1.
         11    1    4    4    0    0 -0.35474601304E+02 -0.57995072331E+02  0.11620826852E+01  0.67994309971E+02  0.00000000000E+00 0. -1.
        -13    1    3    3    0    0  0.83086327583E+00  0.55123848367E+02  0.47103831833E+02  0.72512757263E+02  0.00000000000E+00 0. -1.
         13    1    3    3    0    0  0.50798497208E+02  0.11494004971E+03  0.34859971334E+03  0.37055831186E+03  0.00000000000E+00 0.  1.
         21    1    1    2  502  501  0.19650212275E+01 -0.30423775310E+02  0.30514621988E+02  0.43134783732E+02  0.00000000000E+00 0. -1.
<scales pt_clust_5="13000.00000" pt_clust_6="13000.00000" pt_clust_7="13000.00000" pt_clust_8="13000.00000" pt_clust_9="30.48717"></scales>
<clustering>
<clus scale="   30.487">  2  9  1 -1</clus>
<clus scale="   90.241">  7  8 -1 -1</clus>
<clus scale="   90.574">  5  6 -1 -1</clus>
<clus scale="  190.895">  1  7  2 -1</clus>
<clus scale="   30.487">  2  5  1 -1</clus>
</clustering>
</event>
<event>
 9    1  0.1803370E-005  0.1010265E+03  0.7546771E-02  0.1278204E+00
         -1   -1    0    0    0  501 -0.00000000000E+00  0.00000000000E+00  0.10382837029E+03  0.10382837029E+03  0.00000000000E+00 0.  1.
          1   -1    0    0  502    0  0.00000000000E+00 -0.00000000000E+00 -0.33981303028E+03  0.33981303028E+03  0.00000000000E+00 0. -1.
         23    2    1    2    0    0 -0.41235044529E+02 -0.94980371781E+01 -0.22042497331E+02  0.10793620023E+03  0.96818438453E+02 0.  0.
         23    2    1    2    0    0 -0.19749834234E+02 -0.63941545889E+02 -0.19896730948E+02  0.11945035677E+03  0.96922291491E+02 0.  0.
        -13    1    3    3    0    0 -0.12814041110E+01 -0.46962113669E+02  0.42690386775E+01  0.47173157706E+02  0.00000000000E+00 0.  1.
         13    1    3    3    0    0 -0.39953640418E+02  0.37464076491E+02 -0.26311536008E+02  0.60763042526E+02  0.00000000000E+00 0. -1.
        -13    1    4    4    0    0  0.29812933265E+02  0.53550714691E+01  0.49783253586E+01  0.30696441222E+02  0.00000000000E+00 0. -1.
         13    1    4    4    0    0 -0.49562767499E+02 -0.69296617358E+02 -0.24875056307E+02  0.88753915551E+02  0.00000000000E+00 0.  1.
         21    1    1    2  502  501  0.60984878763E+02  0.73439583067E+02 -0.19404543171E+03  0.21625484357E+03  0.00000000000E+00 0. -1.
<scales pt_clust_5="13000.00000" pt_clust_6="13000.00000" pt_clust_7="13000.00000" pt_clust_8="13000.00000" pt_clust_9="95.45956"></scales>
<clustering>
<clus scale="   95.460">  2  9  1 -1</clus>
<clus scale="   96.818">  5  6 -1 -1</clus>
<clus scale="   96.922">  7  8 -1 -1</clus>
<clus scale="  100.927">  1  5  2 -1</clus>
<clus scale="   95.460">  2  5  1 -1</clus>
</clustering>
</event>
<event>
 9    1  0.1803370E-005  0.1122586E+03  0.7546771E-02  0.1257286E+00
          3   -1    0    0  502    0  0.00000000000E+00  0.00000000000E+00  0.51473716483E+02  0.51473716483E+02  0.00000000000E+00 0. -1.
         -3   -1    0    0    0  501 -0.00000000000E+00 -0.00000000000E+00 -0.31584227020E+03  0.31584227020E+03  0.00000000000E+00 0.  1.
         23    2    1    2    0    0  0.44370091791E+02  0.30924934627E+02 -0.14433373265E+03  0.17909671663E+03  0.91204993818E+02 0.  0.
         23    2    1    2    0    0 -0.58334884594E+02 -0.45272863201E+02 -0.11871147017E+03  0.16815363401E+03  0.93437896906E+02 0.  0.
        -11    1    3    3    0    0  0.64606966158E+02  0.10585544700E+02 -0.13301401084E+03  0.14825262532E+03  0.00000000000E+00 0.  1.
         11    1    3    3    0    0 -0.20236874367E+02  0.20339389927E+02 -0.11319721808E+02  0.30844091307E+02  0.00000000000E+00 0. -1.
        -13    1    4    4    0    0 -0.70524492859E+02 -0.39917250136E+01 -0.48106299874E+02  0.85462588594E+02  0.00000000000E+00 0. -1.
         13    1    4    4    0    0  0.12189608266E+02 -0.41281138188E+02 -0.70605170292E+02  0.82691045414E+02  0.00000000000E+00 0.  1.
         21    1    1    2  502  501  0.13964792803E+02  0.14347928574E+02 -0.13233508966E+01  0.20065636047E+02  0.00000000000E+00 0.  1.
<scales pt_clust_5="13000.00000" pt_clust_6="13000.00000" pt_clust_7="13000.00000" pt_clust_8="13000.00000" pt_clust_9="20.02195"></scales>
<clustering>
<clus scale="   20.022">  1  9  2 -1</clus>
<clus scale="   91.205">  5  6 -1 -1</clus>
<clus scale="   93.438">  7  8 -1 -1</clus>
<clus scale="  110.407">  2  5  1 -1</clus>
<clus scale="   20.022">  1  5  2 -1</clus>
</clustering>
</event>
<event>
 9    1  0.1803370E-005  0.1108537E+03  0.7546771E-02  0.1269840E+00
         -1   -1    0    0    0  501 -0.00000000000E+00  0.00000000000E+00  0.11194676408E+03  0.11194676408E+03  0.00000000000E+00 0.  1.
          1   -1    0    0  502    0  0.00000000000E+00 -0.00000000000E+00 -0.49814701122E+03  0.49814701122E+03  0.00000000000E+00 0. -1.
         23    2    1    2    0    0  0.92836713999E+01 -0.48787066258E+01  0.75789400592E+02  0.11751170506E+03  0.89190690380E+02 0.  0.
         23    2    1    2    0    0  0.24897093274E+02  0.32335182348E+02 -0.25310912181E+03  0.27914998071E+03  0.11043122256E+03 0.  0.
        -13    1    3    3    0    0  0.25094957100E+02 -0.35512602911E+02  0.12174834788E+02  0.45156709794E+02  0.00000000000E+00 0.  1.
         13    1    3    3    0    0 -0.15811285700E+02  0.30633896285E+02  0.63614565804E+02  0.72354995263E+02  0.00000000000E+00 0. -1.
        -13    1    4    4    0    0  0.48851213643E+02 -0.24922338409E+02 -0.10239854224E+03  0.11615948295E+03  0.00000000000E+00 0.  1.
         13    1    4    4    0    0 -0.23954120370E+02  0.57257520757E+02 -0.15071057957E+03  0.16299049776E+03  0.00000000000E+00 0. -1.
         21    1    1    2  502  501 -0.34180764674E+02 -0.27456475722E+02 -0.20888052591E+03  0.21343208952E+03  0.00000000000E+00 0. -1.
<scales pt_clust_5="13000.00000" pt_clust_6="13000.00000" pt_clust_7="13000.00000" pt_clust_8="13000.00000" pt_clust_9="43.84270"></scales>
<clustering>
<clus scale="   43.843">  2  9  1 -1</clus>
<clus scale="   89.191">  5  6 -1 -1</clus>
<clus scale="   89.713">  1  5  2 -1</clus>
<clus scale="  110.431">  7  8 -1 -1</clus>
<clus scale="   43.843">  2  5  1 -1</clus>
</clustering>
</event>
<event>
 9    1  0.1803370E-005  0.4731942E+03  0.7546771E-02  0.1021067E+00
          1   -1    0    0  502    0  0.00000000000E+00  0.00000000000E+00  0.13951759195E+04  0.13951759195E+04  0.00000000000E+00 0. -1.
         -1   -1    0    0    0  501 -0.00000000000E+00 -0.00000000000E+00 -0.19871730492E+03  0.19871730492E+03  0.00000000000E+00 0.  1.
         23    2    1    2    0    0  0.26404465817E+03 -0.36768662972E+03  0.36354689019E+03  0.58774555392E+03  0.91462864640E+02 0.  0.
         23    2    1    2    0    0 -0.31775862358E+03  0.36203800838E+03  0.64470697384E+03  0.81034643166E+03  0.94721670205E+02 0.  0.
        -11    1    3    3    0    0  0.26867347818E+03 -0.34130943999E+03  0.34941035657E+03  0.55746315482E+03  0.00000000000E+00 0. -1.
         11    1    3    3    0    0 -0.46288200104E+01 -0.26377189728E+02  0.14136533621E+02  0.30282399104E+02  0.00000000000E+00 0.  1.
        -13    1    4    4    0    0 -0.53273950062E+02  0.38921691535E+02  0.46078970246E+02  0.80475358503E+02  0.00000000000E+00 0. -1.
         13    1    4    4    0    0 -0.26448467351E+03  0.32311631684E+03  0.59862800360E+03  0.72987107315E+03  0.00000000000E+00 0.  1.
         21    1    1    2  502  501  0.53713965402E+02  0.56486213393E+01  0.18820475058E+03  0.19580123887E+03  0.00000000000E+00 0.  1.
<scales pt_clust_5="13000.00000" pt_clust_6="13000.00000" pt_clust_7="13000.00000" pt_clust_8="13000.00000" pt_clust_9="54.01016"></scales>
<clustering>
<clus scale="   54.010">  1  9  2 -1</clus>
<clus scale="   91.463">  5  6 -1 -1</clus>
<clus scale="   94.722">  7  8 -1 -1</clus>
<clus scale="  472.553">  2  5  1 -1</clus>
<clus scale="   54.010">  1  5  2 -1</clus>
</clustering>
</event>
<event>
 9    1  0.1803370E-005  0.9562406E+02  0.7546771E-02  0.1290281E+00
         -1   -1    0    0    0  501 -0.00000000000E+00  0.00000000000E+00  0.29559847587E+03  0.29559847587E+03  0.00000000000E+00 0.  1.
          1   -1    0    0  502    0  0.00000000000E+00 -0.00000000000E+00 -0.50004441286E+02  0.50004441286E+02  0.00000000000E+00 0. -1.
         23    2    1    2    0    0 -0.31514735648E+02 -0.25779943557E+02  0.15303312842E+03  0.18302596039E+03  0.91769165473E+02 0.  0.
         23    2    1    2    0    0 -0.68377815657E+01  0.11189045663E+02  0.55285468573E+02  0.10713989221E+03  0.90832392177E+02 0.  0.
        -11    1    4    4    0    0  0.18128099074E+02 -0.30656211536E+02  0.31117970424E+01  0.35750728141E+02  0.00000000000E+00 0.  1.
         11    1    4    4    0    0 -0.24965880639E+02  0.41845257198E+02  0.52173671530E+02  0.71389164073E+02  0.00000000000E+00 0. -1.
        -13    1    3    3    0    0 -0.31405650173E+02  0.14291796465E+02  0.12192207272E+02  0.36595357999E+02  0.00000000000E+00 0. -1.
         13    1    3    3    0    0 -0.10908547563E+00 -0.40071740022E+02  0.14084092115E+03  0.14643060239E+03  0.00000000000E+00 0.  1.
         21    1    1    2  502  501  0.38352517214E+02  0.14590897894E+02  0.37275437592E+02  0.55437064548E+02  0.00000000000E+00 0. -1.
<scales pt_clust_5="13000.00000" pt_clust_6="13000.00000" pt_clust_7="13000.00000" pt_clust_8="13000.00000" pt_clust_9="41.03425"></scales>
<clustering>
<clus scale="   41.034">  2  9  1 -1</clus>
<clus scale="   90.832">  5  6 -1 -1</clus>
<clus scale="   91.769">  7  8 -1 -1</clus>
<clus scale="   94.725">  2  5  1 -1</clus>
<clus scale="   41.034">  2  5  1 -1</clus>
</clustering>
</event>
<event>
 9    1  0.1803370E-005  0.1727790E+03  0.7546771E-02  0.1175184E+00
          1   -1    0    0  502    0  0.00000000000E+00  0.00000000000E+00  0.36801828462E+03  0.36801828462E+03  0.00000000000E+00 0. -1.
         -1   -1    0    0    0  501 -0.00000000000E+00 -0.00000000000E+00 -0.25702832784E+03  0.25702832784E+03  0.00000000000E+00 0.  1.
         23    2    1    2    0    0 -0.14488319968E+03  0.21905677297E+02 -0.19268890231E+03  0.25813261695E+03  0.89623850694E+02 0.  0.
         23    2    1    2    0    0  0.15141923314E+03  0.64080990418E+01  0.26249206151E+03  0.31650822245E+03  0.91140137276E+02 0.  0.
        -11    1    3    3    0    0 -0.21332543275E+02 -0.26353595080E+02 -0.68481052744E+02  0.76414945928E+02  0.00000000000E+00 0. -1.
         11    1    3    3    0    0 -0.12355065640E+03  0.48259272376E+02 -0.12420784957E+03  0.18171767102E+03  0.00000000000E+00 0.  1.
        -11    1    4    4    0    0  0.12511487691E+03 -0.25083981585E+02  0.15095048771E+03  0.19765876732E+03  0.00000000000E+00 0.  1.
         11    1    4    4    0    0  0.26304356223E+02  0.31492080627E+02  0.11154157380E+03  0.11884945513E+03  0.00000000000E+00 0. -1.
         21    1    1    2  502  501 -0.65360334569E+01 -0.28313776338E+02  0.41186797572E+02  0.50405773063E+02  0.00000000000E+00 0.  1.
<scales pt_clust_5="13000.00000" pt_clust_6="13000.00000" pt_clust_7="13000.00000" pt_clust_8="13000.00000" pt_clust_9="29.05838"></scales>
<clustering>
<clus scale="   29.058">  1  9  2 -1</clus>
<clus scale="   89.624">  5  6 -1 -1</clus>
<clus scale="   91.140">  7  8 -1 -1</clus>
<clus scale="  171.984">  2  5  1 -1</clus>
<clus scale="   29.058">  1  5  2 -1</clus>
</clustering>
</event>
<event>
 9    1  0.2956225E-005  0.1296049E+03  0.7546771E-02  0.1229253E+00
         -2   -1    0    0    0  501 -0.00000000000E+00  0.00000000000E+00  0.31084288138E+03  0.31084288138E+03  0.00000000000E+00 0.  1.
          2   -1    0    0  502    0  0.00000000000E+00 -0.00000000000E+00 -0.17209616250E+03  0.17209616250E+03  0.00000000000E+00 0. -1.
         23    2    1    2    0    0 -0.89987545979E+02  0.77240884537E+01  0.26356850676E+03  0.29457509306E+03  0.95648877275E+02 0.  0.
         23    2    1    2    0    0  0.63595129671E+02  0.33958500610E+01 -0.10838131860E+03  0.15534120560E+03  0.91260657571E+02 0.  0.
        -11    1    4    4    0    0  0.10673519128E+02  0.18883448356E+02  0.10645099578E+02  0.24162507681E+02  0.00000000000E+00 0.  1.
         11    1    4    4    0    0  0.52921610542E+02 -0.15487598295E+02 -0.11902641818E+03  0.13117869792E+03  0.00000000000E+00 0. -1.
        -11    1    3    3    0    0 -0.11029290390E+03  0.91762850665E+01  0.21237460314E+03  0.23948215157E+03  0.00000000000E+00 0.  1.
         11    1    3    3    0    0  0.20305357922E+02 -0.14521966128E+01  0.51193903616E+02  0.55092941497E+02  0.00000000000E+00 0. -1.
         21    1    1    2  502  501  0.26392416309E+02 -0.11119938515E+02 -0.16440469286E+02  0.33022745215E+02  0.00000000000E+00 0. -1.
<scales pt_clust_5="13000.00000" pt_clust_6="13000.00000" pt_clust_7="13000.00000" pt_clust_8="13000.00000" pt_clust_9="28.63936"></scales>
<clustering>
<clus scale="   28.639">  2  9  1 -1</clus>
<clus scale="   91.261">  5  6 -1 -1</clus>
<clus scale="   95.649">  7  8 -1 -1</clus>
<clus scale="  126.401">  2  5  1 -1</clus>
<clus scale="   28.639">  2  5  1 -1</clus>
</clustering>
</event>
<event>
 9    1  0.1803370E-005  0.1451103E+03  0.7546771E-02  0.1206616E+00
          1   -1    0    0  502    0  0.00000000000E+00  0.00000000000E+00  0.56367595394E+02  0.56367595394E+02  0.00000000000E+00 0. -1.
         -1   -1    0    0    0  501 -0.00000000000E+00 -0.00000000000E+00 -0.50369297986E+03  0.50369297986E+03  0.00000000000E+00 0.  1.
         23    2    1    2    0    0 -0.12149121314E+03 -0.12211423569E+02 -0.26086012710E+03  0.30198854415E+03  0.90773570763E+02 0.  0.
         23    2    1    2    0    0  0.10157705241E+03  0.21991338041E+02 -0.19080212443E+03  0.23546608187E+03  0.90759619337E+02 0.  0.
        -11    1    3    3    0    0 -0.12096575290E+03 -0.37619253116E+02 -0.22022813457E+03  0.25406367870E+03  0.00000000000E+00 0. -1.
         11    1    3    3    0    0 -0.52546023746E+00  0.25407829547E+02 -0.40631992536E+02  0.47924865448E+02  0.00000000000E+00 0.  1.
        -13    1    4    4    0    0 -0.89947237752E-01  0.27857976274E+02 -0.81246718003E+02  0.85890069966E+02  0.00000000000E+00 0. -1.
         13    1    4    4    0    0  0.10166699965E+03 -0.58666382328E+01 -0.10955540642E+03  0.14957601191E+03  0.00000000000E+00 0.  1.
         21    1    1    2  502  501  0.19914160729E+02 -0.97799144717E+01  0.43368670656E+01  0.22605949230E+02  0.00000000000E+00 0.  1.
<scales pt_clust_5="13000.00000" pt_clust_6="13000.00000" pt_clust_7="13000.00000" pt_clust_8="13000.00000" pt_clust_9="22.18604"></scales>
<clustering>
<clus scale="   22.186">  1  9  2 -1</clus>
<clus scale="   90.760">  7  8 -1 -1</clus>
<clus scale="   90.774">  5  6 -1 -1</clus>
<clus scale="  145.102">  1  7  2 -1</clus>
<clus scale="   22.186">  1  5  2 -1</clus>
</clustering>
</event>
<event>
 9    1  0.1803370E-005  0.1071325E+03  0.7546771E-02  0.1275385E+00
         -3   -1    0    0    0  501 -0.00000000000E+00  0.00000000000E+00  0.43923798956E+03  0.43923798956E+03  0.00000000000E+00 0.  1.
          3   -1    0    0  502    0  0.00000000000E+00 -0.00000000000E+00 -0.51928181188E+02  0.51928181188E+02  0.00000000000E+00 0. -1.
         23    2    1    2    0    0 -0.44039481734E+02  0.48483416398E+02  0.31854699263E+03  0.33810162565E+03  0.92468400751E+02 0.  0.
         23    2    1    2    0    0  0.65318963973E+01 -0.53485118793E+02  0.20111605169E+02  0.91430331588E+02  0.71075349236E+02 0.  0.
        -11    1    4    4    0    0 -0.31496731907E+02 -0.28497242613E+02  0.22115848488E+01  0.42532670559E+02  0.00000000000E+00 0.  1.
         11    1    4    4    0    0  0.38028628304E+02 -0.24987876180E+02  0.17900020320E+02  0.48897661029E+02  0.00000000000E+00 0. -1.
        -11    1    3    3    0    0  0.28344297676E+02  0.53521615811E+01  0.72534427899E+02  0.78059516236E+02  0.00000000000E+00 0. -1.
         11    1    3    3    0    0 -0.72383779411E+02  0.43131254817E+02  0.24601256473E+03  0.26004210941E+03  0.00000000000E+00 0.  1.
         21    1    1    2  502  501  0.37507585337E+02  0.50017023950E+01  0.48651210576E+02  0.61634213511E+02  0.00000000000E+00 0.  1.
<scales pt_clust_5="13000.00000" pt_clust_6="13000.00000" pt_clust_7="13000.00000" pt_clust_8="13000.00000" pt_clust_9="37.83961"></scales>
<clustering>
<clus scale="   37.840">  1  9  2 -1</clus>
<clus scale="   71.075">  5  6 -1 -1</clus>
<clus scale="   89.323">  2  5  1 -1</clus>
<clus scale="   92.468">  7  8 -1 -1</clus>
<clus scale="   89.323">  2  5  1 -1</clus>
</clustering>
</event>
<event>
 9    1  0.1803370E-005  0.1521521E+03  0.7546771E-02  0.1198258E+00
         -2   -1    0    0    0  501 -0.00000000000E+00  0.00000000000E+00  0.19159455838E+03  0.19159455838E+03  0.00000000000E+00 0.  1.
          2   -1    0    0  502    0  0.00000000000E+00 -0.00000000000E+00 -0.36252577099E+03  0.36252577099E+03  0.00000000000E+00 0. -1.
         23    2    1    2    0    0  0.95928388178E+02  0.56383028606E+02  0.10403283222E+03  0.17757576134E+03  0.91263460718E+02 0.  0.
         23    2    1    2    0    0 -0.58108018129E+02 -0.11118198625E+03 -0.26876615406E+03  0.30967364759E+03  0.89019922524E+02 0.  0.
        -13    1    4    4    0    0 -0.75424653199E+02 -0.89608533514E+02 -0.25048179940E+03  0.27651347059E+03  0.00000000000E+00 0. -1.
         13    1    4    4    0    0  0.17316635070E+02 -0.21573452736E+02 -0.18284354658E+02  0.33160176996E+02  0.00000000000E+00 0.  1.
        -13    1    3    3    0    0  0.34567369093E+01  0.50259919151E+02  0.46073301449E+02  0.68269741537E+02  0.00000000000E+00 0.  1.
         13    1    3    3    0    0  0.92471651269E+02  0.61231094548E+01  0.57959530773E+02  0.10930601980E+03  0.00000000000E+00 0. -1.
         21    1    1    2  502  501 -0.37820370049E+02  0.54798957644E+02 -0.61978907738E+01  0.66870920433E+02  0.00000000000E+00 0. -1.
<scales pt_clust_5="13000.00000" pt_clust_6="13000.00000" pt_clust_7="13000.00000" pt_clust_8="13000.00000" pt_clust_9="66.58308"></scales>
<clustering>
<clus scale="   66.583">  1  9  2 -1</clus>
<clus scale="   89.020">  5  6 -1 -1</clus>
<clus scale="   91.263">  7  8 -1 -1</clus>
<clus scale="  150.817">  2  5  1 -1</clus>
<clus scale="  150.817">  2  5  1 -1</clus>
</clustering>
</event>
<event>
 9    1  0.1803370E-005  0.9847487E+02  0.7546771E-02  0.1286148E+00
         -2   -1    0    0    0  501 -0.00000000000E+00  0.00000000000E+00  0.30185701066E+02  0.30185701066E+02  0.00000000000E+00 0.  1.
          2   -1    0    0  502    0  0.00000000000E+00 -0.00000000000E+00 -0.45190302791E+03  0.45190302791E+03  0.00000000000E+00 0. -1.
         23    2    1    2    0    0  0.24655315114E+02  0.21738432603E+02 -0.12800136448E+03  0.16324840359E+03  0.95839699250E+02 0.  0.
         23    2    1    2    0    0 -0.15984278894E+01 -0.11627259159E+02 -0.17602063691E+03  0.19848233641E+03  0.90962767761E+02 0.  0.
        -11    1    3    3    0    0  0.38545461734E+02  0.40694127975E+02 -0.32274641042E+02  0.64679340800E+02  0.00000000000E+00 0.  1.
         11    1    3    3    0    0 -0.13890146621E+02 -0.18955695372E+02 -0.95726723437E+02  0.98569062794E+02  0.00000000000E+00 0. -1.
        -13    1    4    4    0    0 -0.51051918499E+01 -0.37328628185E+02 -0.16672275312E+03  0.17092678513E+03  0.00000000000E+00 0. -1.
         13    1    4    4    0    0  0.35067639605E+01  0.25701369026E+02 -0.92978837942E+01  0.27555551280E+02  0.00000000000E+00 0.  1.
         21    1    1    2  502  501 -0.23056887224E+02 -0.10111173444E+02 -0.11769532546E+03  0.12035798898E+03  0.00000000000E+00 0. -1.
<scales pt_clust_5="13000.00000" pt_clust_6="13000.00000" pt_clust_7="13000.00000" pt_clust_8="13000.00000" pt_clust_9="25.17649"></scales>
<clustering>
<clus scale="   25.176">  2  9  1 -1</clus>
<clus scale="   90.963">  7  8 -1 -1</clus>
<clus scale="   93.735">  2  7  1 -1</clus>
<clus scale="   95.840">  5  6 -1 -1</clus>
<clus scale="   25.176">  2  5  1 -1</clus>
</clustering>
</event>
<event>
 9    1  0.1803370E-005  0.2874647E+03  0.7546771E-02  0.1091750E+00
         -1   -1    0    0    0  501 -0.00000000000E+00  0.00000000000E+00  0.92625747937E+02  0.92625747937E+02  0.00000000000E+00 0.  1.
          1   -1    0    0  502    0  0.00000000000E+00 -0.00000000000E+00 -0.10701476668E+04  0.10701476668E+04  0.00000000000E+00 0. -1.
         23    2    1    2    0    0 -0.20867082787E+03 -0.13897439786E+03 -0.41063869437E+03  0.48979473280E+03  0.91746091501E+02 0.  0.
         23    2    1    2    0    0  0.25408400021E+03  0.15018328508E+03 -0.44204016502E+03  0.53966032283E+03  0.93381252218E+02 0.  0.
        -11    1    4    4    0    0  0.25316466942E+03  0.12774859236E+03 -0.38343368942E+03  0.47689982897E+03  0.00000000000E+00 0.  1.
         11    1    4    4    0    0  0.91933078457E+00  0.22434692725E+02 -0.58606475597E+02  0.62760493853E+02  0.00000000000E+00 0. -1.
        -11    1    3    3    0    0 -0.16530443677E+03 -0.11810737926E+03 -0.38487853314E+03  0.43520845020E+03  0.00000000000E+00 0. -1.
         11    1    3    3    0    0 -0.43366391097E+02 -0.20867018600E+02 -0.25760161225E+02  0.54586282603E+02  0.00000000000E+00 0.  1.
         21    1    1    2  502  501 -0.45413172336E+02 -0.11208887225E+02 -0.12484305946E+03  0.13331835908E+03  0.00000000000E+00 0.  1.
<scales pt_clust_5="13000.00000" pt_clust_6="13000.00000" pt_clust_7="13000.00000" pt_clust_8="13000.00000" pt_clust_9="46.77601"></scales>
<clustering>
<clus scale="   46.776">  2  9  1 -1</clus>
<clus scale="   91.746">  7  8 -1 -1</clus>
<clus scale="   93.381">  5  6 -1 -1</clus>
<clus scale="  286.938">  1  7  2 -1</clus>
<clus scale="   46.776">  2  5  1 -1</clus>
</clustering>
</event>
<event>
 9    1  0.1803370E-005  0.1328068E+03  0.7546771E-02  0.1238600E+00
          1   -1    0    0  502    0  0.00000000000E+00  0.00000000000E+00  0.32097236826E+03  0.32097236826E+03  0.00000000000E+00 0. -1.
         -1   -1    0    0    0  501 -0.00000000000E+00 -0.00000000000E+00 -0.10465684286E+03  0.10465684286E+03  0.00000000000E+00 0.  1.
         23    2    1    2    0    0  0.91289828164E+02 -0.10311950385E+03  0.75806838440E+02  0.17005973057E+03  0.64854995247E+02 0.  0.
         23    2    1    2    0    0 -0.21952928121E+02  0.25919649524E+02  0.11160570204E+03  0.14785315982E+03  0.90834821824E+02 0.  0.
        -11    1    4    4    0    0 -0.26251845439E+02 -0.30548089894E+02  0.49137486682E+02  0.63536114002E+02  0.00000000000E+00 0. -1.
         11    1    4    4    0    0  0.42989173185E+01  0.56467739418E+02  0.62468215358E+02  0.84317045816E+02  0.00000000000E+00 0.  1.
        -11    1    3    3    0    0  0.60917679709E+02 -0.20762099448E+02  0.29171138630E+02  0.70661048701E+02  0.00000000000E+00 0.  1.
         11    1    3    3    0    0  0.30372148456E+02 -0.82357404399E+02  0.46635699810E+02  0.99398681873E+02  0.00000000000E+00 0. -1.
         21    1    1    2  502  501 -0.69336900044E+02  0.77199854323E+02  0.28902984916E+02  0.10771632073E+03  0.00000000000E+00 0. -1.
<scales pt_clust_5="13000.00000" pt_clust_6="13000.00000" pt_clust_7="13000.00000" pt_clust_8="13000.00000" pt_clust_9="115.89422"></scales>
<clustering>
<clus scale="   64.855">  7  8 -1 -1</clus>
<clus scale="   90.835">  5  6 -1 -1</clus>
<clus scale="   96.978">  1  5  2 -1</clus>
<clus scale="  115.894">  2  9  1 -1</clus>
<clus scale="   96.978">  1  5  2 -1</clus>
</clustering>
</event>
<event>
 9    1  0.1803370E-005  0.1002538E+03  0.7546771E-02  0.1280056E+00
          2   -1    0    0  502    0  0.00000000000E+00  0.00000000000E+00  0.36043005234E+03  0.36043005234E+03  0.00000000000E+00 0. -1.
         -2   -1    0    0    0  501 -0.00000000000E+00 -0.00000000000E+00 -0.68607985743E+02  0.68607985743E+02  0.00000000000E+00 0.  1.
         23    2    1    2    0    0 -0.21317015853E+02  0.36916100558E+02 -0.52639966784E+01  0.10133608333E+03  0.91782778766E+02 0.  0.
         23    2    1    2    0    0  0.33776836454E+02 -0.16274154529E+02  0.15576993010E+03  0.18434370923E+03  0.91173511623E+02 0.  0.
        -11    1    4    4    0    0  0.62333427496E+02 -0.99128866947E+00  0.76318987673E+02  0.98544541787E+02  0.00000000000E+00 0.  1.
         11    1    4    4    0    0 -0.28556591042E+02 -0.15282865859E+02  0.79450942425E+02  0.85799167438E+02  0.00000000000E+00 0. -1.
        -11    1    3    3    0    0  0.35368354601E+02  0.49680215319E+01 -0.62596112015E+01  0.36259956943E+02  0.00000000000E+00 0.  1.
         11    1    3    3    0    0 -0.56685370454E+02  0.31948079026E+02  0.99561452312E+00  0.65076126385E+02  0.00000000000E+00 0. -1.
         21    1    1    2  502  501 -0.12459820601E+02 -0.20641946029E+02  0.14131613318E+03  0.14335824553E+03  0.00000000000E+00 0.  1.
<scales pt_clust_5="13000.00000" pt_clust_6="13000.00000" pt_clust_7="13000.00000" pt_clust_8="13000.00000" pt_clust_9="24.11093"></scales>
<clustering>
<clus scale="   24.111">  1  9  2 -1</clus>
<clus scale="   91.174">  5  6 -1 -1</clus>
<clus scale="   91.783">  7  8 -1 -1</clus>
<clus scale="   99.696">  1  5  2 -1</clus>
<clus scale="   24.111">  1  5  2 -1</clus>
</clustering>
</event>
