<event>
 9    1  0.1426358E-005  0.1457700E+03  0.7546771E-02  0.1206121E+00
         21   -1    0    0  501  502  0.00000000000E+00  0.00000000000E+00  0.64140125664E+02  0.64140125664E+02  0.00000000000E+00 0.  1.
          1   -1    0    0  502    0 -0.00000000000E+00 -0.00000000000E+00 -0.63759473489E+03  0.63759473489E+03  0.00000000000E+00 0. -1.
         23    2    1    2    0    0 -0.74884904018E+02  0.66246125075E+02 -0.31957118033E+03  0.34690906361E+03  0.90685507016E+02 0.  0.
         23    2    1    2    0    0  0.12015519077E+03 -0.72914407585E+02 -0.26002123142E+03  0.30865722025E+03  0.88907019555E+02 0.  0.
        -13    1    4    4    0    0  0.92580388392E+02 -0.87139017900E+02 -0.16254448229E+03  0.20636144378E+03  0.00000000000E+00 0.  1.
         13    1    4    4    0    0  0.27574802377E+02  0.14224610316E+02 -0.97476749123E+02  0.10229577647E+03  0.00000000000E+00 0. -1.
        -13    1    3    3    0    0 -0.43620074051E+02 -0.50705806072E+01 -0.19592507420E+03  0.20078609600E+03  0.00000000000E+00 0. -1.
         13    1    3    3    0    0 -0.31264829968E+02  0.71316705682E+02 -0.12364610613E+03  0.14612296761E+03  0.00000000000E+00 0.  1.
          1    1    1    2  501    0 -0.45270286750E+02  0.66682825097E+01  0.61378025132E+01  0.46168576692E+02  0.00000000000E+00 0. -1.
<scales pt_clust_5="13000.00000" pt_clust_6="13000.00000" pt_clust_7="13000.00000" pt_clust_8="13000.00000" pt_clust_9="45.75877"></scales>
<clustering>
<clus scale="   45.759">  1  9  2 -1</clus>
<clus scale="   88.907">  5  6 -1 -1</clus>
<clus scale="   90.686">  7  8 -1 -1</clus>
<clus scale="  144.670">  1  5  2 -1</clus>
<clus scale="   45.759">  1  5  2 -1</clus>
</clustering>
</event>
<event>
 9    1  0.1426358E-005  0.1388431E+03  0.7546771E-02  0.1216718E+00
          4   -1    0    0  502    0 -0.00000000000E+00  0.00000000000E+00  0.37961810711E+03  0.37961810711E+03  0.00000000000E+00 0. -1.
         21   -1    0    0  501  502  0.00000000000E+00 -0.00000000000E+00 -0.80341880741E+02  0.80341880741E+02  0.00000000000E+00 0. -1.
         23    2    1    2    0    0 -0.67094408920E+02 -0.51386633236E+02  0.77938307513E+02  0.14246349968E+03  0.84138119657E+02 0.  0.
         23    2    1    2    0    0  0.10424142067E+03  0.77663903191E+02  0.10064985398E+03  0.18851585241E+03  0.92248999249E+02 0.  0.
        -11    1    3    3    0    0  0.29873446739E+01 -0.48366113614E+02  0.39216354863E+02  0.62338813455E+02  0.00000000000E+00 0. -1.
         11    1    3    3    0    0 -0.70081753594E+02 -0.30205196222E+01  0.38721952651E+02  0.80124686225E+02  0.00000000000E+00 0.  1.
        -11    1    4    4    0    0  0.40204698364E+02  0.78625760080E+02  0.85038178661E+02  0.12259657315E+03  0.00000000000E+00 0. -1.
         11    1    4    4    0    0  0.64036722301E+02 -0.96185688846E+00  0.15611675322E+02  0.65919279260E+02  0.00000000000E+00 0.  1.
          4    1    1    2  501    0 -0.37147011745E+02 -0.26277269955E+02  0.12068806488E+03  0.12898063576E+03  0.00000000000E+00 0. -1.
<scales pt_clust_5="13000.00000" pt_clust_6="13000.00000" pt_clust_7="13000.00000" pt_clust_8="13000.00000" pt_clust_9="45.50162"></scales>
<clustering>
<clus scale="   45.502">  2  9  1 -1</clus>
<clus scale="   84.138">  5  6 -1 -1</clus>
<clus scale="   92.249">  7  8 -1 -1</clus>
<clus scale="  133.592">  1  5  2 -1</clus>
<clus scale="   45.502">  2  5  1 -1</clus>
</clustering>
</event>
<event>
 9    1  0.1426358E-005  0.1031918E+03  0.7546771E-02  0.1279308E+00
          1   -1    0    0  502    0 -0.00000000000E+00  0.00000000000E+00  0.21386511719E+03  0.21386511719E+03  0.00000000000E+00 0. -1.
         21   -1    0    0  501  502  0.00000000000E+00 -0.00000000000E+00 -0.30587679296E+03  0.30587679296E+03  0.00000000000E+00 0.  1.
         23    2    1    2    0    0 -0.49554758196E+01 -0.23953630850E+02  0.12154091685E+03  0.15393268454E+03  0.91240033586E+02 0.  0.
         23    2    1    2    0    0 -0.52487146343E+02 -0.17251221210E+02  0.23680791502E+02  0.11826696010E+03  0.10185179823E+03 0.  0.
        -11    1    3    3    0    0  0.30948559194E+02  0.34600133395E+01  0.98333783876E+02  0.10314707005E+03  0.00000000000E+00 0.  1.
         11    1    3    3    0    0 -0.35904035013E+02 -0.27413644190E+02  0.23207132972E+02  0.50785614487E+02  0.00000000000E+00 0. -1.
        -13    1    4    4    0    0 -0.52170515998E+02  0.34930955869E+02  0.20256205290E+02  0.65971571682E+02  0.00000000000E+00 0. -1.
         13    1    4    4    0    0 -0.31663034503E+00 -0.52182177079E+02  0.34245862121E+01  0.52295388422E+02  0.00000000000E+00 0.  1.
          1    1    1    2  501    0  0.57442622163E+02  0.41204852060E+02 -0.23723338412E+03  0.24754226551E+03  0.00000000000E+00 0. -1.
<scales pt_clust_5="13000.00000" pt_clust_6="13000.00000" pt_clust_7="13000.00000" pt_clust_8="13000.00000" pt_clust_9="70.69296"></scales>
<clustering>
<clus scale="   70.693">  2  9  1 -1</clus>
<clus scale="   91.240">  5  6 -1 -1</clus>
<clus scale="   92.733">  1  5  2 -1</clus>
<clus scale="  101.852">  7  8 -1 -1</clus>
<clus scale="   70.693">  2  5  1 -1</clus>
</clustering>
</event>
<event>
 9    1  0.1426358E-005  0.1365672E+03  0.7546771E-02  0.1218076E+00
          2   -1    0    0  502    0 -0.00000000000E+00  0.00000000000E+00  0.43766416744E+03  0.43766416744E+03  0.00000000000E+00 0. -1.
         21   -1    0    0  501  502  0.00000000000E+00 -0.00000000000E+00 -0.16392124077E+03  0.16392124077E+03  0.00000000000E+00 0. -1.
         23    2    1    2    0    0 -0.70446128396E+02  0.52197174442E+02  0.19374839905E+03  0.23138353827E+03  0.91173996435E+02 0.  0.
         23    2    1    2    0    0  0.10351280311E+03 -0.62844350975E+02  0.19680741475E+03  0.24833301444E+03  0.90949517333E+02 0.  0.
        -11    1    3    3    0    0 -0.62850513012E+02  0.75647765156E+02  0.12982496604E+03  0.16287201468E+03  0.00000000000E+00 0.  1.
         11    1    3    3    0    0 -0.75956153839E+01 -0.23450590714E+02  0.63923433002E+02  0.68511523590E+02  0.00000000000E+00 0. -1.
        -13    1    4    4    0    0  0.11921816356E+03 -0.49706069178E+02  0.18149475722E+03  0.22276447368E+03  0.00000000000E+00 0. -1.
         13    1    4    4    0    0 -0.15705360459E+02 -0.13138281798E+02  0.15312657529E+02  0.25568540755E+02  0.00000000000E+00 0.  1.
          2    1    1    2  501    0 -0.33066674709E+02  0.10647176534E+02 -0.11681288712E+03  0.12186885550E+03  0.00000000000E+00 0. -1.
<scales pt_clust_5="13000.00000" pt_clust_6="13000.00000" pt_clust_7="13000.00000" pt_clust_8="13000.00000" pt_clust_9="34.73856"></scales>
<clustering>
<clus scale="   34.739">  2  9  1 -1</clus>
<clus scale="   90.950">  7  8 -1 -1</clus>
<clus scale="   91.174">  5  6 -1 -1</clus>
<clus scale="  136.417">  2  7  1 -1</clus>
<clus scale="   34.739">  2  5  1 -1</clus>
</clustering>
</event>
<event>
 9    1  0.1426358E-005  0.1018886E+03  0.7546771E-02  0.1279695E+00
          2   -1    0    0  502    0 -0.00000000000E+00  0.00000000000E+00  0.19012253310E+03  0.19012253310E+03  0.00000000000E+00 0. -1.
         21   -1    0    0  501  502  0.00000000000E+00 -0.00000000000E+00 -0.12562737993E+03  0.12562737993E+03  0.00000000000E+00 0. -1.
         23    2    1    2    0    0  0.76348741406E+01 -0.35303267372E+02  0.11839823940E+03  0.15797780191E+03  0.98154117659E+02 0.  0.
         23    2    1    2    0    0  0.26285432505E+02  0.53343359412E+01 -0.12263772014E+02  0.96269618960E+02  0.91640931514E+02 0.  0.
        -11    1    4    4    0    0 -0.25469418112E+02  0.28796963683E+02 -0.17768727603E+01  0.38485239419E+02  0.00000000000E+00 0.  1.
         11    1    4    4    0    0  0.51754850617E+02 -0.23462627742E+02 -0.10486899254E+02  0.57784379541E+02  0.00000000000E+00 0. -1.
        -13    1    3    3    0    0 -0.35635078654E+02 -0.22454157817E+02  0.14242788690E+02  0.44462400561E+02  0.00000000000E+00 0.  1.
         13    1    3    3    0    0  0.43269952795E+02 -0.12849109555E+02  0.10415545071E+03  0.11351540135E+03  0.00000000000E+00 0. -1.
          2    1    1    2  501    0 -0.33920306646E+02  0.29968931431E+02 -0.41639314216E+02  0.61502492165E+02  0.00000000000E+00 0. -1.
<scales pt_clust_5="13000.00000" pt_clust_6="13000.00000" pt_clust_7="13000.00000" pt_clust_8="13000.00000" pt_clust_9="45.26283"></scales>
<clustering>
<clus scale="   45.263">  2  9  1 -1</clus>
<clus scale="   91.641">  5  6 -1 -1</clus>
<clus scale="   95.630">  2  5  1 -1</clus>
<clus scale="   98.154">  7  8 -1 -1</clus>
<clus scale="   45.263">  2  5  1 -1</clus>
</clustering>
</event>
<event>
 9    1  0.1426358E-005  0.1251864E+03  0.7546771E-02  0.1236112E+00
         21   -1    0    0  501  502  0.00000000000E+00  0.00000000000E+00  0.14812650194E+03  0.14812650194E+03  0.00000000000E+00 0.  1.
          1   -1    0    0  502    0 -0.00000000000E+00 -0.00000000000E+00 -0.29334468175E+03  0.29334468175E+03  0.00000000000E+00 0. -1.
         23    2    1    2    0    0  0.58734808298E+02  0.47459832125E+02 -0.15904825755E+03  0.19714289992E+03  0.88694765269E+02 0.  0.
         23    2    1    2    0    0 -0.84992954865E+02 -0.55369452772E+02 -0.71114032698E+02  0.15506712616E+03  0.93268586838E+02 0.  0.
        -11    1    3    3    0    0  0.36189099027E+02  0.50970370410E+00 -0.13501613053E+03  0.13978292525E+03  0.00000000000E+00 0. -1.
         11    1    3    3    0    0  0.22545709272E+02  0.46950128421E+02 -0.24032127021E+02  0.57359974672E+02  0.00000000000E+00 0.  1.
        -13    1    4    4    0    0  0.18756117471E+02 -0.93032826392E+01  0.33052411109E+00  0.20939251578E+02  0.00000000000E+00 0. -1.
         13    1    4    4    0    0 -0.10374907234E+03 -0.46066170133E+02 -0.71444556809E+02  0.13412787458E+03  0.00000000000E+00 0.  1.
          1    1    1    2  501    0  0.26258146566E+02  0.79096206474E+01  0.84944110440E+02  0.89261157613E+02  0.00000000000E+00 0. -1.
<scales pt_clust_5="13000.00000" pt_clust_6="13000.00000" pt_clust_7="13000.00000" pt_clust_8="13000.00000" pt_clust_9="27.42357"></scales>
<clustering>
<clus scale="   27.424">  1  9  2 -1</clus>
<clus scale="   88.695">  5  6 -1 -1</clus>
<clus scale="   93.269">  7  8 -1 -1</clus>
<clus scale="  121.817">  2  5  1 -1</clus>
<clus scale="   27.424">  1  5  2 -1</clus>
</clustering>
</event>
<event>
 9    1  0.1426358E-005  0.1184744E+03  0.7546771E-02  0.1250179E+00
         21   -1    0    0  501  502  0.00000000000E+00  0.00000000000E+00  0.38638151616E+02  0.38638151616E+02  0.00000000000E+00 0.  1.
          2   -1    0    0  502    0 -0.00000000000E+00 -0.00000000000E+00 -0.68072979414E+03  0.68072979414E+03  0.00000000000E+00 0. -1.
         23    2    1    2    0    0 -0.94764813650E+02 -0.42322831711E+02 -0.24246604817E+03  0.27498449508E+03  0.77814497539E+02 0.  0.
         23    2    1    2    0    0  0.32744460348E+02  0.28267873889E+02 -0.11734864598E+03  0.15503186239E+03  0.91612778937E+02 0.  0.
        -11    1    4    4    0    0  0.64827760902E+02  0.16053319030E+02 -0.72861614750E+02  0.98839073951E+02  0.00000000000E+00 0. -1.
         11    1    4    4    0    0 -0.32083300553E+02  0.12214554858E+02 -0.44487031227E+02  0.56192788436E+02  0.00000000000E+00 0.  1.
        -13    1    3    3    0    0 -0.89151010159E+02 -0.19906212799E+02 -0.12247449818E+03  0.15278796623E+03  0.00000000000E+00 0.  1.
         13    1    3    3    0    0 -0.56138034914E+01 -0.22416618912E+02 -0.11999154999E+03  0.12219652885E+03  0.00000000000E+00 0. -1.
          2    1    1    2  501    0  0.62020353302E+02  0.14054957822E+02 -0.28227694837E+03  0.28935158829E+03  0.00000000000E+00 0. -1.
<scales pt_clust_5="13000.00000" pt_clust_6="13000.00000" pt_clust_7="13000.00000" pt_clust_8="13000.00000" pt_clust_9="63.59300"></scales>
<clustering>
<clus scale="   63.593">  1  9  2 -1</clus>
<clus scale="   77.814">  7  8 -1 -1</clus>
<clus scale="   91.613">  5  6 -1 -1</clus>
<clus scale="  108.159">  2  7  1 -1</clus>
<clus scale="   63.593">  1  5  2 -1</clus>
</clustering>
</event>
<event>
 9    1  0.1426358E-005  0.1097852E+03  0.7546771E-02  0.1265903E+00
         21   -1    0    0  501  502  0.00000000000E+00  0.00000000000E+00  0.13573681260E+03  0.13573681260E+03  0.00000000000E+00 0.  1.
         -1   -1    0    0    0  501 -0.00000000000E+00 -0.00000000000E+00 -0.17262842229E+03  0.17262842229E+03  0.00000000000E+00 0.  1.
         23    2    1    2    0    0  0.42890849009E+02  0.34893717467E+02 -0.72717159779E+02  0.12342375728E+03  0.82996639011E+02 0.  0.
         23    2    1    2    0    0 -0.55791013781E+02 -0.15948660092E+02 -0.30037197859E+02  0.11520460775E+03  0.94883462281E+02 0.  0.
        -13    1    3    3    0    0 -0.16140597212E+02  0.37005483085E+02 -0.34151509516E+02  0.52879582628E+02  0.00000000000E+00 0. -1.
         13    1    3    3    0    0  0.59031446221E+02 -0.21117656186E+01 -0.38565650263E+02  0.70544174651E+02  0.00000000000E+00 0.  1.
        -13    1    4    4    0    0  0.82247699072E+01 -0.29845506685E+02  0.16279587459E+02  0.34977508161E+02  0.00000000000E+00 0. -1.
         13    1    4    4    0    0 -0.64015783689E+02  0.13896846593E+02 -0.46316785318E+02  0.80227099590E+02  0.00000000000E+00 0.  1.
         -1    1    1    2    0  502  0.12900164772E+02 -0.18945057375E+02  0.65862747950E+02  0.69736869858E+02  0.00000000000E+00 0.  1.
<scales pt_clust_5="13000.00000" pt_clust_6="13000.00000" pt_clust_7="13000.00000" pt_clust_8="13000.00000" pt_clust_9="22.92007"></scales>
<clustering>
<clus scale="   22.920">  1  9  2 -1</clus>
<clus scale="   82.997">  5  6 -1 -1</clus>
<clus scale="   94.883">  7  8 -1 -1</clus>
<clus scale="   99.691">  2  5  1 -1</clus>
<clus scale="   22.920">  1  5  2 -1</clus>
</clustering>
</event>
<event>
 9    1  0.1426358E-005  0.9123733E+02  0.7546771E-02  0.1301250E+00
         -1   -1    0    0    0  501 -0.00000000000E+00  0.00000000000E+00  0.48253912437E+03  0.48253912437E+03  0.00000000000E+00 0.  1.
         21   -1    0    0  501  502  0.00000000000E+00 -0.00000000000E+00 -0.22411737920E+02  0.22411737920E+02  0.00000000000E+00 0. -1.
         23    2    1    2    0    0 -0.10238561457E+02 -0.94632507278E+01  0.24399866877E+03  0.26083397912E+03  0.91129759407E+02 0.  0.
         23    2    1    2    0    0 -0.32963012987E+01 -0.10303218025E+02  0.17260099419E+03  0.19443219227E+03  0.88858045740E+02 0.  0.
        -11    1    4    4    0    0 -0.13268869466E+02  0.25799024487E+02  0.14508439751E+03  0.14795653065E+03  0.00000000000E+00 0.  1.
         11    1    4    4    0    0  0.99725681677E+01 -0.36102242512E+02  0.27516596676E+02  0.46475661619E+02  0.00000000000E+00 0. -1.
        -11    1    3    3    0    0  0.31166247668E+02 -0.38060764900E+00  0.32120797221E+02  0.44757406873E+02  0.00000000000E+00 0. -1.
         11    1    3    3    0    0 -0.41404809125E+02 -0.90826430788E+01  0.21187787155E+03  0.21607657225E+03  0.00000000000E+00 0.  1.
         -1    1    1    2    0  502  0.13534862756E+02  0.19766468752E+02  0.43527723500E+02  0.49684690900E+02  0.00000000000E+00 0.  1.
<scales pt_clust_5="13000.00000" pt_clust_6="13000.00000" pt_clust_7="13000.00000" pt_clust_8="13000.00000" pt_clust_9="23.95633"></scales>
<clustering>
<clus scale="   23.956">  2  9  1 -1</clus>
<clus scale="   88.858">  5  6 -1 -1</clus>
<clus scale="   88.968">  2  5  1 -1</clus>
<clus scale="   91.130">  7  8 -1 -1</clus>
<clus scale="   23.956">  2  5  1 -1</clus>
</clustering>
</event>
<event>
 9    1  0.1426358E-005  0.1006465E+03  0.7546771E-02  0.1279145E+00
         21   -1    0    0  501  502  0.00000000000E+00  0.00000000000E+00  0.34758636215E+02  0.34758636215E+02  0.00000000000E+00 0.  1.
         -2   -1    0    0    0  501 -0.00000000000E+00 -0.00000000000E+00 -0.51662152567E+03  0.51662152567E+03  0.00000000000E+00 0.  1.
         23    2    1    2    0    0  0.29910939610E+02  0.15135758660E+02 -0.25326760323E+03  0.27148932577E+03  0.91859782629E+02 0.  0.
         23    2    1    2    0    0 -0.30047475614E+02 -0.41385487929E+02 -0.23057306858E+03  0.25356635032E+03  0.92284043369E+02 0.  0.
        -11    1    4    4    0    0 -0.35665705935E+02  0.16667889109E+02 -0.49000808323E+02  0.62856505817E+02  0.00000000000E+00 0. -1.
         11    1    4    4    0    0  0.56182303209E+01 -0.58053377037E+02 -0.18157226025E+03  0.19070984451E+03  0.00000000000E+00 0.  1.
        -13    1    3    3    0    0  0.43367620716E+02 -0.25524375896E+02 -0.17705159563E+03  0.18406387969E+03  0.00000000000E+00 0.  1.
         13    1    3    3    0    0 -0.13456681107E+02  0.40660134556E+02 -0.76216007604E+02  0.87425446087E+02  0.00000000000E+00 0. -1.
         -2    1    1    2    0  502  0.13653600429E+00  0.26249729269E+02  0.19777823565E+01  0.26324485785E+02  0.00000000000E+00 0.  1.
<scales pt_clust_5="13000.00000" pt_clust_6="13000.00000" pt_clust_7="13000.00000" pt_clust_8="13000.00000" pt_clust_9="26.25008"></scales>
<clustering>
<clus scale="   26.250">  1  9  2 -1</clus>
<clus scale="   91.860">  7  8 -1 -1</clus>
<clus scale="   92.284">  5  6 -1 -1</clus>
<clus scale="  100.258">  2  7  1 -1</clus>
<clus scale="   26.250">  1  5  2 -1</clus>
</clustering>
</event>
<event>
 9    1  0.1426358E-005  0.9237899E+02  0.7546771E-02  0.1297951E+00
          1   -1    0    0  502    0 -0.00000000000E+00  0.00000000000E+00  0.29888857468E+03  0.29888857468E+03  0.00000000000E+00 0. -1.
         21   -1    0    0  501  502  0.00000000000E+00 -0.00000000000E+00 -0.60180976973E+02  0.60180976973E+02  0.00000000000E+00 0.  1.
         23    2    1    2    0    0  0.18503632854E+01 -0.11899393952E+02  0.18511142563E+03  0.20708965284E+03  0.92059029940E+02 0.  0.
         23    2    1    2    0    0 -0.21347405425E+02 -0.23012395148E+02  0.57281684921E+02  0.11182332183E+03  0.90763328655E+02 0.  0.
        -11    1    4    4    0    0  0.16628900155E+02 -0.47743471027E+02  0.26957049387E+02  0.57294344029E+02  0.00000000000E+00 0.  1.
         11    1    4    4    0    0 -0.37976305580E+02  0.24731075878E+02  0.30324635533E+02  0.54528977799E+02  0.00000000000E+00 0. -1.
        -11    1    3    3    0    0  0.10988996944E+02 -0.48885216842E+02  0.71873867747E+02  0.87614926493E+02  0.00000000000E+00 0.  1.
         11    1    3    3    0    0 -0.91386336589E+01  0.36985822890E+02  0.11323755788E+03  0.11947472635E+03  0.00000000000E+00 0. -1.
          1    1    1    2  501    0  0.19497042140E+02  0.34911789100E+02 -0.36855128437E+01  0.40156576987E+02  0.00000000000E+00 0. -1.
<scales pt_clust_5="13000.00000" pt_clust_6="13000.00000" pt_clust_7="13000.00000" pt_clust_8="13000.00000" pt_clust_9="39.98709"></scales>
<clustering>
<clus scale="   39.987">  2  9  1 -1</clus>
<clus scale="   90.763">  5  6 -1 -1</clus>
<clus scale="   91.088">  2  5  1 -1</clus>
<clus scale="   92.059">  7  8 -1 -1</clus>
<clus scale="   39.987">  2  5  1 -1</clus>
</clustering>
</event>
<event>
 9    1  0.1426358E-005  0.9708247E+02  0.7546771E-02  0.1287023E+00
         21   -1    0    0  501  502  0.00000000000E+00  0.00000000000E+00  0.51847010250E+02  0.51847010250E+02  0.00000000000E+00 0. -1.
         -3   -1    0    0    0  501 -0.00000000000E+00 -0.00000000000E+00 -0.28633514655E+03  0.28633514655E+03  0.00000000000E+00 0.  1.
         23    2    1    2    0    0 -0.39884094043E+02  0.32038448883E+01 -0.16154557838E+03  0.18966701967E+03  0.90970318656E+02 0.  0.
         23    2    1    2    0    0  0.18425959641E+02  0.44232139174E+01 -0.81421994256E+02  0.12421442935E+03  0.91872751675E+02 0.  0.
        -11    1    4    4    0    0  0.44467646799E+02  0.37117914786E+01 -0.67517974172E+01  0.45130209130E+02  0.00000000000E+00 0. -1.
         11    1    4    4    0    0 -0.26041687158E+02  0.71142243875E+00 -0.74670196839E+02  0.79084220221E+02  0.00000000000E+00 0.  1.
        -13    1    3    3    0    0 -0.42758990937E+02 -0.31768969384E+02 -0.13658282415E+03  0.14660309197E+03  0.00000000000E+00 0.  1.
         13    1    3    3    0    0  0.28748968943E+01  0.34972814272E+02 -0.24962754229E+02  0.43063927700E+02  0.00000000000E+00 0. -1.
         -3    1    1    2    0  502  0.21458134402E+02 -0.76270588057E+01  0.84794363354E+01  0.24300707780E+02  0.00000000000E+00 0.  1.
<scales pt_clust_5="13000.00000" pt_clust_6="13000.00000" pt_clust_7="13000.00000" pt_clust_8="13000.00000" pt_clust_9="22.77331"></scales>
<clustering>
<clus scale="   22.773">  1  9  2 -1</clus>
<clus scale="   90.970">  7  8 -1 -1</clus>
<clus scale="   91.873">  5  6 -1 -1</clus>
<clus scale="   96.229">  2  7  1 -1</clus>
<clus scale="   22.773">  1  5  2 -1</clus>
</clustering>
</event>
<event>
 9    1  0.1426358E-005  0.1583035E+03  0.7546771E-02  0.1193487E+00
         21   -1    0    0  501  502  0.00000000000E+00  0.00000000000E+00  0.52735211807E+02  0.52735211807E+02  0.00000000000E+00 0. -1.
          1   -1    0    0  502    0 -0.00000000000E+00 -0.00000000000E+00 -0.60044065712E+03  0.60044065712E+03  0.00000000000E+00 0. -1.
         23    2    1    2    0    0 -0.89453727265E+02  0.89690672046E+02 -0.31891901842E+03  0.35933849094E+03  0.10662281552E+03 0.  0.
         23    2    1    2    0    0  0.49190758412E+02 -0.97070646077E+02 -0.19066038405E+03  0.23789843073E+03  0.91661552754E+02 0.  0.
        -13    1    4    4    0    0  0.61876238326E+02 -0.50666128476E+02 -0.16503700106E+03  0.18339284927E+03  0.00000000000E+00 0.  1.
         13    1    4    4    0    0 -0.12685479914E+02 -0.46404517602E+02 -0.25623382997E+02  0.54505581464E+02  0.00000000000E+00 0. -1.
        -13    1    3    3    0    0 -0.21417197959E+02  0.22310058147E+01  0.19496336041E+00  0.21533967727E+02  0.00000000000E+00 0.  1.
         13    1    3    3    0    0 -0.68036529306E+02  0.87459666231E+02 -0.31911398178E+03  0.33780452321E+03  0.00000000000E+00 0. -1.
          1    1    1    2  501    0  0.40262968853E+02  0.73799740315E+01 -0.38126042844E+02  0.55938947259E+02  0.00000000000E+00 0. -1.
<scales pt_clust_5="13000.00000" pt_clust_6="13000.00000" pt_clust_7="13000.00000" pt_clust_8="13000.00000" pt_clust_9="40.93374"></scales>
<clustering>
<clus scale="   40.934">  1  9  2 -1</clus>
<clus scale="   91.662">  5  6 -1 -1</clus>
<clus scale="  106.623">  7  8 -1 -1</clus>
<clus scale="  148.638">  1  5  2 -1</clus>
<clus scale="   40.934">  1  5  2 -1</clus>
</clustering>
</event>
<event>
 9    1  0.1426358E-005  0.9871659E+02  0.7546771E-02  0.1283822E+00
         21   -1    0    0  501  502  0.00000000000E+00  0.00000000000E+00  0.79239583558E+02  0.79239583558E+02  0.00000000000E+00 0. -1.
          3   -1    0    0  502    0 -0.00000000000E+00 -0.00000000000E+00 -0.32497231191E+03  0.32497231191E+03  0.00000000000E+00 0. -1.
         23    2    1    2    0    0 -0.99673129152E+01 -0.32498530202E+02 -0.25616174545E+03  0.27361256219E+03  0.89941606399E+02 0.  0.
         23    2    1    2    0    0  0.21896883270E+02  0.51401752025E+02  0.39442882280E+01  0.10732492346E+03  0.91550358699E+02 0.  0.
        -11    1    4    4    0    0  0.22674815554E+02 -0.17012818126E+02 -0.20158782110E+02  0.34784475520E+02  0.00000000000E+00 0.  1.
         11    1    4    4    0    0 -0.77793228408E+00  0.68414570151E+02  0.24103070338E+02  0.72540447940E+02  0.00000000000E+00 0. -1.
        -13    1    3    3    0    0 -0.44429553044E+02 -0.16072572773E+02 -0.20132957092E+03  0.20679919948E+03  0.00000000000E+00 0.  1.
         13    1    3    3    0    0  0.34462240129E+02 -0.16425957428E+02 -0.54832174529E+02  0.66813362703E+02  0.00000000000E+00 0. -1.
          3    1    1    2  501    0 -0.11929570355E+02 -0.18903221823E+02  0.64847288691E+01  0.23274409824E+02  0.00000000000E+00 0. -1.
<scales pt_clust_5="13000.00000" pt_clust_6="13000.00000" pt_clust_7="13000.00000" pt_clust_8="13000.00000" pt_clust_9="22.35277"></scales>
<clustering>
<clus scale="   22.353">  1  9  2 -1</clus>
<clus scale="   89.942">  7  8 -1 -1</clus>
<clus scale="   91.550">  5  6 -1 -1</clus>
<clus scale="   97.226">  2  7  1 -1</clus>
<clus scale="   22.353">  1  5  2 -1</clus>
</clustering>
</event>
<event>
 9    1  0.1426358E-005  0.1930149E+03  0.7546771E-02  0.1155808E+00
         21   -1    0    0  501  502  0.00000000000E+00  0.00000000000E+00  0.25397508308E+03  0.25397508308E+03  0.00000000000E+00 0. -1.
          1   -1    0    0  502    0 -0.00000000000E+00 -0.00000000000E+00 -0.21970735136E+03  0.21970735136E+03  0.00000000000E+00 0. -1.
         23    2    1    2    0    0  0.61955056178E+02  0.14996954112E+03 -0.64548007142E+02  0.19738681106E+03  0.92009867429E+02 0.  0.
         23    2    1    2    0    0 -0.35573569116E+02 -0.18695152812E+03  0.91875117277E+02  0.23034105396E+03  0.91649393239E+02 0.  0.
        -11    1    4    4    0    0  0.21510628233E+02 -0.93338224110E+02  0.16271359921E+02  0.97157029394E+02  0.00000000000E+00 0. -1.
         11    1    4    4    0    0 -0.57084197348E+02 -0.93613304007E+02  0.75603757355E+02  0.13318402457E+03  0.00000000000E+00 0.  1.
        -11    1    3    3    0    0 -0.13613639069E+02  0.39897041171E+02  0.11546878305E+02  0.43708528476E+02  0.00000000000E+00 0.  1.
         11    1    3    3    0    0  0.75568695247E+02  0.11007249994E+03 -0.76094885447E+02  0.15367828258E+03  0.00000000000E+00 0. -1.
          1    1    1    2  501    0 -0.26381487062E+02  0.36981987001E+02  0.69406215842E+01  0.45954569415E+02  0.00000000000E+00 0. -1.
<scales pt_clust_5="13000.00000" pt_clust_6="13000.00000" pt_clust_7="13000.00000" pt_clust_8="13000.00000" pt_clust_9="45.42742"></scales>
<clustering>
<clus scale="   45.427">  1  9  2 -1</clus>
<clus scale="   91.649">  5  6 -1 -1</clus>
<clus scale="   92.010">  7  8 -1 -1</clus>
<clus scale="  192.843">  1  5  2 -1</clus>
<clus scale="   45.427">  1  5  2 -1</clus>
</clustering>
</event>
<event>
 9    1  0.1426358E-005  0.9904808E+02  0.7546771E-02  0.1283779E+00
         -3   -1    0    0    0  501 -0.00000000000E+00  0.00000000000E+00  0.13770196969E+03  0.13770196969E+03  0.00000000000E+00 0.  1.
         21   -1    0    0  501  502  0.00000000000E+00 -0.00000000000E+00 -0.13552350776E+03  0.13552350776E+03  0.00000000000E+00 0.  1.
         23    2    1    2    0    0 -0.80594866245E+01  0.47677781999E+02  0.62149506828E+02  0.11928476259E+03  0.89600039994E+02 0.  0.
         23    2    1    2    0    0 -0.12760316490E+02 -0.41626529672E+01 -0.41602508599E+02  0.10232256125E+03  0.92514779692E+02 0.  0.
        -11    1    3    3    0    0 -0.10299724051E+02  0.71044298229E+02  0.26338955620E+02  0.76466444991E+02  0.00000000000E+00 0.  1.
         11    1    3    3    0    0  0.22402374269E+01 -0.23366516230E+02  0.35810551209E+02  0.42818317603E+02  0.00000000000E+00 0. -1.
        -11    1    4    4    0    0 -0.33432655758E+02  0.32564937322E+02 -0.58147915315E+01  0.47032216771E+02  0.00000000000E+00 0.  1.
         11    1    4    4    0    0  0.20672339268E+02 -0.36727590289E+02 -0.35787717068E+02  0.55290344475E+02  0.00000000000E+00 0. -1.
         -3    1    1    2    0  502  0.20819803114E+02 -0.43515129032E+02 -0.18368536300E+02  0.51618153611E+02  0.00000000000E+00 0.  1.
<scales pt_clust_5="13000.00000" pt_clust_6="13000.00000" pt_clust_7="13000.00000" pt_clust_8="13000.00000" pt_clust_9="48.23931"></scales>
<clustering>
<clus scale="   48.239">  2  9  1 -1</clus>
<clus scale="   89.600">  5  6 -1 -1</clus>
<clus scale="   92.515">  7  8 -1 -1</clus>
<clus scale="   96.331">  1  5  2 -1</clus>
<clus scale="   48.239">  2  5  1 -1</clus>
</clustering>
</event>
<event>
 9    1  0.1426358E-005  0.9436308E+02  0.7546771E-02  0.1294686E+00
          1   -1    0    0  502    0 -0.00000000000E+00  0.00000000000E+00  0.20878591916E+03  0.20878591916E+03  0.00000000000E+00 0. -1.
         21   -1    0    0  501  502  0.00000000000E+00 -0.00000000000E+00 -0.11599872930E+03  0.11599872930E+03  0.00000000000E+00 0. -1.
         23    2    1    2    0    0  0.20841887329E+02 -0.56480452616E+01  0.10042867593E+03  0.13587658297E+03  0.88939542218E+02 0.  0.
         23    2    1    2    0    0 -0.83219759102E+00 -0.44803209525E+02  0.45935406411E+02  0.11264404906E+03  0.92577535556E+02 0.  0.
        -11    1    4    4    0    0  0.21743688620E+02  0.15572365035E+02 -0.87227587257E+01  0.28131353813E+02  0.00000000000E+00 0.  1.
         11    1    4    4    0    0 -0.22575886211E+02 -0.60375574560E+02  0.54658165137E+02  0.84512695246E+02  0.00000000000E+00 0. -1.
        -11    1    3    3    0    0  0.47557923848E+02 -0.63563924830E+00  0.97569089870E+02  0.10854440315E+03  0.00000000000E+00 0. -1.
         11    1    3    3    0    0 -0.26716036519E+02 -0.50124060133E+01  0.28595860555E+01  0.27332179820E+02  0.00000000000E+00 0.  1.
          1    1    1    2  501    0 -0.20009689738E+02  0.50451254787E+02 -0.53576892482E+02  0.76264016423E+02  0.00000000000E+00 0. -1.
<scales pt_clust_5="13000.00000" pt_clust_6="13000.00000" pt_clust_7="13000.00000" pt_clust_8="13000.00000" pt_clust_9="54.27446"></scales>
<clustering>
<clus scale="   54.274">  2  9  1 -1</clus>
<clus scale="   88.940">  7  8 -1 -1</clus>
<clus scale="   90.797">  1  7  2 -1</clus>
<clus scale="   92.578">  5  6 -1 -1</clus>
<clus scale="   54.274">  2  5  1 -1</clus>
</clustering>
</event>
<event>
 9    1  0.1426358E-005  0.1005112E+03  0.7546771E-02  0.1279396E+00
          1   -1    0    0  502    0 -0.00000000000E+00  0.00000000000E+00  0.14087187255E+03  0.14087187255E+03  0.00000000000E+00 0. -1.
         21   -1    0    0  501  502  0.00000000000E+00 -0.00000000000E+00 -0.12289611498E+03  0.12289611498E+03  0.00000000000E+00 0.  1.
         23    2    1    2    0    0  0.33006169300E+02 -0.32187077752E+02  0.69534537125E+02  0.12526969860E+03  0.93445333471E+02 0.  0.
         23    2    1    2    0    0 -0.26949317264E+01  0.17130040606E+02 -0.37528470443E+02  0.10186039783E+03  0.93093789284E+02 0.  0.
        -11    1    4    4    0    0 -0.40636895690E+02 -0.44059664403E+00  0.64833922789E+01  0.41153199051E+02  0.00000000000E+00 0. -1.
         11    1    4    4    0    0  0.37941963963E+02  0.17570637250E+02 -0.44011862722E+02  0.60707198774E+02  0.00000000000E+00 0.  1.
        -13    1    3    3    0    0  0.20508194426E+02 -0.12712919913E+02 -0.20899816196E+02  0.31921884161E+02  0.00000000000E+00 0.  1.
         13    1    3    3    0    0  0.12497974873E+02 -0.19474157840E+02  0.90434353321E+02  0.93347814437E+02  0.00000000000E+00 0. -1.
          1    1    1    2  501    0 -0.30311237573E+02  0.15057037147E+02 -0.14030309115E+02  0.36637891106E+02  0.00000000000E+00 0. -1.
<scales pt_clust_5="13000.00000" pt_clust_6="13000.00000" pt_clust_7="13000.00000" pt_clust_8="13000.00000" pt_clust_9="33.84502"></scales>
<clustering>
<clus scale="   33.845">  2  9  1 -1</clus>
<clus scale="   93.094">  5  6 -1 -1</clus>
<clus scale="   93.445">  7  8 -1 -1</clus>
<clus scale="  100.184">  2  5  1 -1</clus>
<clus scale="   33.845">  2  5  1 -1</clus>
</clustering>
</event>
<event>
 9    1  0.1426358E-005  0.1545383E+03  0.7546771E-02  0.1195088E+00
         21   -1    0    0  501  502  0.00000000000E+00  0.00000000000E+00  0.85846219418E+02  0.85846219418E+02  0.00000000000E+00 0. -1.
          1   -1    0    0  502    0 -0.00000000000E+00 -0.00000000000E+00 -0.67612717098E+03  0.67612717098E+03  0.00000000000E+00 0. -1.
         23    2    1    2    0    0  0.25230785410E+02 -0.13382220403E+03 -0.36046222278E+03  0.39581953314E+03  0.90526868623E+02 0.  0.
         23    2    1    2    0    0  0.26288833280E+01  0.11528523722E+03 -0.27406875131E+03  0.31067553018E+03  0.90044476025E+02 0.  0.
        -11    1    4    4    0    0 -0.31828597888E+02  0.29319257070E+02 -0.39917483764E+02  0.58873457420E+02  0.00000000000E+00 0. -1.
         11    1    4    4    0    0  0.34457481216E+02  0.85965980152E+02 -0.23415126754E+03  0.25180207276E+03  0.00000000000E+00 0.  1.
        -11    1    3    3    0    0  0.13076447271E+02 -0.23450555318E+02 -0.10784011881E+02  0.28934701143E+02  0.00000000000E+00 0.  1.
         11    1    3    3    0    0  0.12154338140E+02 -0.11037164871E+03 -0.34967821090E+03  0.36688483200E+03  0.00000000000E+00 0. -1.
          1    1    1    2  501    0 -0.27859668738E+02  0.18536966806E+02  0.44250022528E+02  0.55478327069E+02  0.00000000000E+00 0. -1.
<scales pt_clust_5="13000.00000" pt_clust_6="13000.00000" pt_clust_7="13000.00000" pt_clust_8="13000.00000" pt_clust_9="33.46312"></scales>
<clustering>
<clus scale="   33.463">  1  9  2 -1</clus>
<clus scale="   90.044">  5  6 -1 -1</clus>
<clus scale="   90.527">  7  8 -1 -1</clus>
<clus scale="  154.256">  1  5  2 -1</clus>
<clus scale="   33.463">  1  5  2 -1</clus>
</clustering>
</event>
<event>
 9    1  0.1426358E-005  0.9926516E+02  0.7546771E-02  0.1285807E+00
          3   -1    0    0  502    0 -0.00000000000E+00  0.00000000000E+00  0.29414752295E+03  0.29414752295E+03  0.00000000000E+00 0. -1.
         21   -1    0    0  501  502  0.00000000000E+00 -0.00000000000E+00 -0.66321134848E+02  0.66321134848E+02  0.00000000000E+00 0. -1.
         23    2    1    2    0    0  0.35410795835E+02 -0.25976173762E+02  0.13696320139E+03  0.17353650765E+03  0.97094360745E+02 0.  0.
         23    2    1    2    0    0 -0.12365546292E+01 -0.30320113659E+02  0.70152797505E+02  0.11789541384E+03  0.89761212371E+02 0.  0.
        -11    1    4    4    0    0  0.13155959831E+02 -0.59543453815E+02  0.54369524307E+02  0.81697902939E+02  0.00000000000E+00 0. -1.
         11    1    4    4    0    0 -0.14392514460E+02  0.29223340156E+02  0.15783273198E+02  0.36197510898E+02  0.00000000000E+00 0.  1.
        -11    1    3    3    0    0 -0.19975920197E+02 -0.30602759472E+02  0.14995806514E+02  0.39502411167E+02  0.00000000000E+00 0.  1.
         11    1    3    3    0    0  0.55386716032E+02  0.46265857101E+01  0.12196739487E+03  0.13403409648E+03  0.00000000000E+00 0. -1.
          3    1    1    2  501    0 -0.34174241206E+02  0.56296287421E+02  0.20710389213E+02  0.69036736313E+02  0.00000000000E+00 0. -1.
<scales pt_clust_5="13000.00000" pt_clust_6="13000.00000" pt_clust_7="13000.00000" pt_clust_8="13000.00000" pt_clust_9="65.85705"></scales>
<clustering>
<clus scale="   65.857">  2  9  1 -1</clus>
<clus scale="   89.761">  5  6 -1 -1</clus>
<clus scale="   92.105">  2  5  1 -1</clus>
<clus scale="   97.094">  7  8 -1 -1</clus>
<clus scale="   65.857">  2  5  1 -1</clus>
</clustering>
</event>
<event>
 9    1  0.1426358E-005  0.9233506E+02  0.7546771E-02  0.1297878E+00
         -1   -1    0    0    0  501 -0.00000000000E+00  0.00000000000E+00  0.40371827688E+03  0.40371827688E+03  0.00000000000E+00 0.  1.
         21   -1    0    0  501  502  0.00000000000E+00 -0.00000000000E+00 -0.78319946847E+02  0.78319946847E+02  0.00000000000E+00 0.  1.
         23    2    1    2    0    0  0.25766966860E+01 -0.31226756224E+01  0.26601741489E+03  0.28156498238E+03  0.92180170361E+02 0.  0.
         23    2    1    2    0    0  0.23307755208E+02 -0.90830329233E+01  0.10831813164E+03  0.14378254255E+03  0.91185793627E+02 0.  0.
        -11    1    4    4    0    0  0.53355222542E+02  0.14466576880E+02  0.53105253544E+02  0.76656569015E+02  0.00000000000E+00 0.  1.
         11    1    4    4    0    0 -0.30047467334E+02 -0.23549609803E+02  0.55212878097E+02  0.67125973533E+02  0.00000000000E+00 0. -1.
        -13    1    3    3    0    0  0.45741634816E+02  0.77371450437E+01  0.15982416868E+03  0.16642092856E+03  0.00000000000E+00 0.  1.
         13    1    3    3    0    0 -0.43164938130E+02 -0.10859820666E+02  0.10619324621E+03  0.11514405382E+03  0.00000000000E+00 0. -1.
         -1    1    1    2    0  502 -0.25884451894E+02  0.12205708546E+02 -0.48937216503E+02  0.56690698797E+02  0.00000000000E+00 0.  1.
<scales pt_clust_5="13000.00000" pt_clust_6="13000.00000" pt_clust_7="13000.00000" pt_clust_8="13000.00000" pt_clust_9="28.61790"></scales>
<clustering>
<clus scale="   28.618">  2  9  1 -1</clus>
<clus scale="   91.186">  5  6 -1 -1</clus>
<clus scale="   91.342">  2  5  1 -1</clus>
<clus scale="   92.180">  7  8 -1 -1</clus>
<clus scale="   28.618">  2  5  1 -1</clus>
</clustering>
</event>
<event>
 9    1  0.1426358E-005  0.1341182E+03  0.7546771E-02  0.1238365E+00
         21   -1    0    0  501  502  0.00000000000E+00  0.00000000000E+00  0.56869139191E+03  0.56869139191E+03  0.00000000000E+00 0. -1.
          2   -1    0    0  502    0 -0.00000000000E+00 -0.00000000000E+00 -0.13865014484E+03  0.13865014484E+03  0.00000000000E+00 0. -1.
         23    2    1    2    0    0  0.20401876554E+02 -0.12370386689E+02 -0.80634372070E+02  0.12431178622E+03  0.91554656906E+02 0.  0.
         23    2    1    2    0    0  0.75803375552E+02 -0.26261065119E+02  0.91627453435E+02  0.15134791771E+03  0.89859928149E+02 0.  0.
        -11    1    4    4    0    0 -0.21410856164E+01 -0.40655138268E+02  0.24776919630E+02  0.47658370320E+02  0.00000000000E+00 0.  1.
         11    1    4    4    0    0  0.77944461168E+02  0.14394073149E+02  0.66850533805E+02  0.10368954739E+03  0.00000000000E+00 0. -1.
        -13    1    3    3    0    0  0.27305696883E+02 -0.47922312259E+02 -0.63913514001E+02  0.84422072745E+02  0.00000000000E+00 0. -1.
         13    1    3    3    0    0 -0.69038203293E+01  0.35551925570E+02 -0.16720858069E+02  0.39889713479E+02  0.00000000000E+00 0.  1.
          2    1    1    2  501    0 -0.96205252106E+02  0.38631451808E+02  0.41904816570E+03  0.43168183281E+03  0.00000000000E+00 0. -1.
<scales pt_clust_5="13000.00000" pt_clust_6="13000.00000" pt_clust_7="13000.00000" pt_clust_8="13000.00000" pt_clust_9="99.56343"></scales>
<clustering>
<clus scale="   89.860">  5  6 -1 -1</clus>
<clus scale="   91.555">  7  8 -1 -1</clus>
<clus scale="   94.612">  2  7  1 -1</clus>
<clus scale="   99.563">  1  9  2 -1</clus>
<clus scale="   99.563">  1  5  2 -1</clus>
</clustering>
</event>
<event>
 9    1  0.1426358E-005  0.1021907E+03  0.7546771E-02  0.1277733E+00
          3   -1    0    0  502    0 -0.00000000000E+00  0.00000000000E+00  0.12390829435E+03  0.12390829435E+03  0.00000000000E+00 0. -1.
         21   -1    0    0  501  502  0.00000000000E+00 -0.00000000000E+00 -0.19909840362E+03  0.19909840362E+03  0.00000000000E+00 0. -1.
         23    2    1    2    0    0 -0.29692258666E+02 -0.35172904037E+02  0.63689681953E+02  0.11936923703E+03  0.89854748117E+02 0.  0.
         23    2    1    2    0    0  0.31274118918E+02  0.57206756154E+02 -0.14517826878E+03  0.18066652843E+03  0.85515971061E+02 0.  0.
        -13    1    4    4    0    0 -0.20412095138E+02 -0.47919798038E+01 -0.10015604281E+02  0.23236372941E+02  0.00000000000E+00 0.  1.
         13    1    4    4    0    0  0.51686214056E+02  0.61998735958E+02 -0.13516266450E+03  0.15743015549E+03  0.00000000000E+00 0. -1.
        -13    1    3    3    0    0  0.21861703163E+02 -0.19475330699E+02 -0.73642241120E+01  0.30190302546E+02  0.00000000000E+00 0.  1.
         13    1    3    3    0    0 -0.51553961829E+02 -0.15697573337E+02  0.71053906065E+02  0.89178934486E+02  0.00000000000E+00 0. -1.
          3    1    1    2  501    0 -0.15818602514E+01 -0.22033852118E+02  0.62984775524E+01  0.22970932512E+02  0.00000000000E+00 0. -1.
<scales pt_clust_5="13000.00000" pt_clust_6="13000.00000" pt_clust_7="13000.00000" pt_clust_8="13000.00000" pt_clust_9="22.09057"></scales>
<clustering>
<clus scale="   22.091">  2  9  1 -1</clus>
<clus scale="   85.516">  5  6 -1 -1</clus>
<clus scale="   89.855">  7  8 -1 -1</clus>
<clus scale="   98.397">  2  5  1 -1</clus>
<clus scale="   22.091">  2  5  1 -1</clus>
</clustering>
</event>
<event>
 9    1  0.1426358E-005  0.1115566E+03  0.7546771E-02  0.1258808E+00
         21   -1    0    0  501  502  0.00000000000E+00  0.00000000000E+00  0.10126314129E+03  0.10126314129E+03  0.00000000000E+00 0.  1.
          2   -1    0    0  502    0 -0.00000000000E+00 -0.00000000000E+00 -0.18672377435E+03  0.18672377435E+03  0.00000000000E+00 0.  1.
         23    2    1    2    0    0  0.51753968867E+02 -0.22430454800E+02 -0.44059611586E+02  0.12312191727E+03  0.10018062958E+03 0.  0.
         23    2    1    2    0    0 -0.34012892039E+02 -0.22943812550E+02 -0.24860648067E+02  0.11341449889E+03  0.10276916550E+03 0.  0.
        -11    1    4    4    0    0 -0.33694296637E+02  0.16899911138E+02 -0.52709975467E+02  0.64801652263E+02  0.00000000000E+00 0.  1.
         11    1    4    4    0    0 -0.31859540137E+00 -0.39843723689E+02  0.27849327399E+02  0.48612846625E+02  0.00000000000E+00 0. -1.
        -13    1    3    3    0    0  0.77444725257E+02 -0.35558016443E+02 -0.39447788056E+02  0.93905196800E+02  0.00000000000E+00 0.  1.
         13    1    3    3    0    0 -0.25690756390E+02  0.13127561643E+02 -0.46118235305E+01  0.29216720467E+02  0.00000000000E+00 0. -1.
          2    1    1    2  501    0 -0.17741076829E+02  0.45374267351E+02 -0.16540373405E+02  0.51450499483E+02  0.00000000000E+00 0.  1.
<scales pt_clust_5="13000.00000" pt_clust_6="13000.00000" pt_clust_7="13000.00000" pt_clust_8="13000.00000" pt_clust_9="48.71932"></scales>
<clustering>
<clus scale="   48.719">  1  9  2 -1</clus>
<clus scale="  100.181">  7  8 -1 -1</clus>
<clus scale="  102.769">  5  6 -1 -1</clus>
<clus scale="  109.177">  2  7  1 -1</clus>
<clus scale="   48.719">  1  5  2 -1</clus>
</clustering>
</event>
<event>
 9    1  0.1426358E-005  0.1213834E+03  0.7546771E-02  0.1241244E+00
          1   -1    0    0  502    0 -0.00000000000E+00  0.00000000000E+00  0.98410280015E+03  0.98410280015E+03  0.00000000000E+00 0. -1.
         21   -1    0    0  501  502  0.00000000000E+00 -0.00000000000E+00 -0.64561974347E+02  0.64561974347E+02  0.00000000000E+00 0. -1.
         23    2    1    2    0    0  0.59211776498E+02  0.67558761963E+02  0.64267915365E+03  0.65520580088E+03  0.90487160306E+02 0.  0.
         23    2    1    2    0    0 -0.19059488519E+01 -0.73065270964E+02  0.30686297432E+03  0.32854088943E+03  0.91826273770E+02 0.  0.
        -13    1    3    3    0    0  0.57797843752E+02 -0.11013702206E+01  0.33546753395E+03  0.34041191239E+03  0.00000000000E+00 0. -1.
         13    1    3    3    0    0  0.14139327466E+01  0.68660132183E+02  0.30721161970E+03  0.31479388849E+03  0.00000000000E+00 0.  1.
        -13    1    4    4    0    0  0.22783230372E+02 -0.42808129608E+02  0.27169173512E+03  0.27598552585E+03  0.00000000000E+00 0. -1.
         13    1    4    4    0    0 -0.24689179224E+02 -0.30257141356E+02  0.35171239203E+02  0.52555363578E+02  0.00000000000E+00 0.  1.
          1    1    1    2  501    0 -0.57305827646E+02  0.55065090009E+01 -0.30001302163E+02  0.64918084191E+02  0.00000000000E+00 0. -1.
<scales pt_clust_5="13000.00000" pt_clust_6="13000.00000" pt_clust_7="13000.00000" pt_clust_8="13000.00000" pt_clust_9="57.56978"></scales>
<clustering>
<clus scale="   57.570">  2  9  1 -1</clus>
<clus scale="   90.487">  5  6 -1 -1</clus>
<clus scale="   91.826">  7  8 -1 -1</clus>
<clus scale="  120.374">  1  5  2 -1</clus>
<clus scale="   57.570">  2  5  1 -1</clus>
</clustering>
</event>
<event>
 9    1  0.1426358E-005  0.1206524E+03  0.7546771E-02  0.1242098E+00
         21   -1    0    0  501  502  0.00000000000E+00  0.00000000000E+00  0.14863512685E+03  0.14863512685E+03  0.00000000000E+00 0. -1.
          4   -1    0    0  502    0 -0.00000000000E+00 -0.00000000000E+00 -0.15698024880E+03  0.15698024880E+03  0.00000000000E+00 0. -1.
         23    2    1    2    0    0 -0.70872159496E+02 -0.19683232142E+02 -0.48439620709E+02  0.12677322679E+03  0.91185314376E+02 0.  0.
         23    2    1    2    0    0  0.76850826083E+02  0.45713716754E+02 -0.36418336675E+01  0.12759571135E+03  0.90948387745E+02 0.  0.
        -11    1    3    3    0    0  0.18003516932E+00 -0.33565239837E+02  0.85502545137E+01  0.34637618137E+02  0.00000000000E+00 0.  1.
         11    1    3    3    0    0 -0.71052194665E+02  0.13882007695E+02 -0.56989875223E+02  0.92135608655E+02  0.00000000000E+00 0. -1.
        -13    1    4    4    0    0 -0.15407263103E+02  0.29706971548E+02 -0.56471856501E+01  0.33937864114E+02  0.00000000000E+00 0.  1.
         13    1    4    4    0    0  0.92258089186E+02  0.16006745206E+02  0.20053519825E+01  0.93657847236E+02  0.00000000000E+00 0. -1.
          4    1    1    2  501    0 -0.59786665874E+01 -0.26030484612E+02  0.43736332431E+02  0.51246437513E+02  0.00000000000E+00 0. -1.
<scales pt_clust_5="13000.00000" pt_clust_6="13000.00000" pt_clust_7="13000.00000" pt_clust_8="13000.00000" pt_clust_9="26.70825"></scales>
<clustering>
<clus scale="   26.708">  1  9  2 -1</clus>
<clus scale="   90.948">  7  8 -1 -1</clus>
<clus scale="   91.185">  5  6 -1 -1</clus>
<clus scale="  120.473">  1  7  2 -1</clus>
<clus scale="   26.708">  1  5  2 -1</clus>
</clustering>
</event>
<event>
 9    1  0.1426358E-005  0.1322405E+03  0.7546771E-02  0.1224631E+00
         21   -1    0    0  501  502  0.00000000000E+00  0.00000000000E+00  0.25418424112E+03  0.25418424112E+03  0.00000000000E+00 0. -1.
          1   -1    0    0  502    0 -0.00000000000E+00 -0.00000000000E+00 -0.30350512280E+03  0.30350512280E+03  0.00000000000E+00 0. -1.
         23    2    1    2    0    0  0.64282399933E+02  0.84158279133E+02 -0.22982031765E+03  0.26851528538E+03  0.89823366617E+02 0.  0.
         23    2    1    2    0    0 -0.12262570108E+02 -0.65066015945E+02  0.14296680201E+02  0.11397723715E+03  0.91664924951E+02 0.  0.
        -11    1    3    3    0    0 -0.19362393584E+02  0.21867257899E+02 -0.24089108156E+02  0.37859799062E+02  0.00000000000E+00 0. -1.
         11    1    3    3    0    0  0.83644793516E+02  0.62291021234E+02 -0.20573120950E+03  0.23065548632E+03  0.00000000000E+00 0.  1.
        -11    1    4    4    0    0  0.19832193667E+02  0.15315023187E+02 -0.43702307475E+01  0.25435501914E+02  0.00000000000E+00 0. -1.
         11    1    4    4    0    0 -0.32094763775E+02 -0.80381039132E+02  0.18666910948E+02  0.88541735232E+02  0.00000000000E+00 0.  1.
          1    1    1    2  501    0 -0.52019829825E+02 -0.19092263188E+02  0.16620275577E+03  0.17519684139E+03  0.00000000000E+00 0. -1.
<scales pt_clust_5="13000.00000" pt_clust_6="13000.00000" pt_clust_7="13000.00000" pt_clust_8="13000.00000" pt_clust_9="55.41279"></scales>
<clustering>
<clus scale="   55.413">  1  9  2 -1</clus>
<clus scale="   89.823">  5  6 -1 -1</clus>
<clus scale="   91.665">  7  8 -1 -1</clus>
<clus scale="  130.971">  2  5  1 -1</clus>
<clus scale="   55.413">  1  5  2 -1</clus>
</clustering>
</event>
<event>
 9    1  0.1426358E-005  0.1611974E+03  0.7546771E-02  0.1206142E+00
         21   -1    0    0  501  502  0.00000000000E+00  0.00000000000E+00  0.69520029827E+03  0.69520029827E+03  0.00000000000E+00 0. -1.
          2   -1    0    0  502    0 -0.00000000000E+00 -0.00000000000E+00 -0.11348993498E+03  0.11348993498E+03  0.00000000000E+00 0. -1.
         23    2    1    2    0    0 -0.53580942679E+02 -0.14197415888E+02  0.45074964464E+02  0.11604688573E+03  0.91447488918E+02 0.  0.
         23    2    1    2    0    0 -0.16149626175E+02 -0.10269481101E+03  0.29585523689E+00  0.13930235776E+03  0.92725534308E+02 0.  0.
        -11    1    3    3    0    0 -0.48891021525E+02 -0.36906648064E+02 -0.43922703364E+01  0.61414368805E+02  0.00000000000E+00 0. -1.
         11    1    3    3    0    0 -0.46899211539E+01  0.22709232176E+02  0.49467234801E+02  0.54632516922E+02  0.00000000000E+00 0.  1.
        -11    1    4    4    0    0 -0.34448665900E+02 -0.14539376040E+02  0.26151181641E+02  0.45628810407E+02  0.00000000000E+00 0.  1.
         11    1    4    4    0    0  0.18299039725E+02 -0.88155434975E+02 -0.25855326404E+02  0.93673547354E+02  0.00000000000E+00 0. -1.
          2    1    1    2  501    0  0.69730568854E+02  0.11689222690E+03  0.53633954358E+03  0.55334098977E+03  0.00000000000E+00 0. -1.
<scales pt_clust_5="13000.00000" pt_clust_6="13000.00000" pt_clust_7="13000.00000" pt_clust_8="13000.00000" pt_clust_9="131.85821"></scales>
<clustering>
<clus scale="   91.447">  5  6 -1 -1</clus>
<clus scale="   92.726">  7  8 -1 -1</clus>
<clus scale="  106.935">  2  5  1 -1</clus>
<clus scale="  131.858">  1  9  2 -1</clus>
<clus scale="  131.858">  1  5  2 -1</clus>
</clustering>
</event>
<event>
 9    1  0.1426358E-005  0.9094079E+02  0.7546771E-02  0.1301352E+00
          1   -1    0    0  502    0 -0.00000000000E+00  0.00000000000E+00  0.95356253397E+02  0.95356253397E+02  0.00000000000E+00 0. -1.
         21   -1    0    0  501  502  0.00000000000E+00 -0.00000000000E+00 -0.12788252317E+03  0.12788252317E+03  0.00000000000E+00 0.  1.
         23    2    1    2    0    0 -0.19412243584E+02 -0.56624033737E+01  0.22428353829E+02  0.93039347785E+02  0.88002222516E+02 0.  0.
         23    2    1    2    0    0  0.37133954217E+01  0.18867078809E+02 -0.26475158720E+02  0.95101035556E+02  0.89294551716E+02 0.  0.
        -11    1    3    3    0    0 -0.52258032349E+02  0.74051196758E+01  0.33900600612E+01  0.52888848065E+02  0.00000000000E+00 0.  1.
         11    1    3    3    0    0  0.32845788764E+02 -0.13067523049E+02  0.19038293768E+02  0.40150499720E+02  0.00000000000E+00 0. -1.
        -13    1    4    4    0    0  0.42058256110E+02  0.86168101346E+01  0.65986482941E+01  0.43436027480E+02  0.00000000000E+00 0. -1.
         13    1    4    4    0    0 -0.38344860688E+02  0.10250268674E+02 -0.33073807014E+02  0.51665008076E+02  0.00000000000E+00 0.  1.
          1    1    1    2  501    0  0.15698848163E+02 -0.13204675435E+02 -0.28479464881E+02  0.35098393224E+02  0.00000000000E+00 0. -1.
<scales pt_clust_5="13000.00000" pt_clust_6="13000.00000" pt_clust_7="13000.00000" pt_clust_8="13000.00000" pt_clust_9="20.51383"></scales>
<clustering>
<clus scale="   20.514">  2  9  1 -1</clus>
<clus scale="   88.002">  5  6 -1 -1</clus>
<clus scale="   89.295">  7  8 -1 -1</clus>
<clus scale="   89.672">  1  5  2 -1</clus>
<clus scale="   20.514">  2  5  1 -1</clus>
</clustering>
</event>
<event>
 9    1  0.1426358E-005  0.9799511E+02  0.7546771E-02  0.1287002E+00
         21   -1    0    0  501  502  0.00000000000E+00  0.00000000000E+00  0.52289011790E+02  0.52289011790E+02  0.00000000000E+00 0. -1.
         -2   -1    0    0    0  501 -0.00000000000E+00 -0.00000000000E+00 -0.36505699271E+03  0.36505699271E+03  0.00000000000E+00 0.  1.
         23    2    1    2    0    0 -0.35069767796E+02 -0.40146895716E+01 -0.25592378686E+03  0.27344728141E+03  0.89612636858E+02 0.  0.
         23    2    1    2    0    0  0.54109998808E+02 -0.88649271129E+01 -0.64330182732E+02  0.11972322001E+03  0.84786780188E+02 0.  0.
        -13    1    4    4    0    0  0.67012662057E+02 -0.32010287107E+02 -0.50728944267E+02  0.89937651421E+02  0.00000000000E+00 0.  1.
         13    1    4    4    0    0 -0.12902663248E+02  0.23145359995E+02 -0.13601238465E+02  0.29785568585E+02  0.00000000000E+00 0. -1.
        -13    1    3    3    0    0  0.51763307378E+01  0.37254529462E+02 -0.12140021411E+03  0.12709329783E+03  0.00000000000E+00 0. -1.
         13    1    3    3    0    0 -0.40246098534E+02 -0.41269219034E+02 -0.13452357275E+03  0.14635398359E+03  0.00000000000E+00 0.  1.
         -2    1    1    2    0  502 -0.19040231013E+02  0.12879616684E+02  0.74859886711E+01  0.24175503083E+02  0.00000000000E+00 0.  1.
<scales pt_clust_5="13000.00000" pt_clust_6="13000.00000" pt_clust_7="13000.00000" pt_clust_8="13000.00000" pt_clust_9="22.98728"></scales>
<clustering>
<clus scale="   22.987">  1  9  2 -1</clus>
<clus scale="   84.787">  5  6 -1 -1</clus>
<clus scale="   89.613">  7  8 -1 -1</clus>
<clus scale="   93.602">  1  5  2 -1</clus>
<clus scale="   22.987">  1  5  2 -1</clus>
</clustering>
</event>
<event>
 9    1  0.1426358E-005  0.2424662E+03  0.7546771E-02  0.1118235E+00
         21   -1    0    0  501  502  0.00000000000E+00  0.00000000000E+00  0.17599856696E+03  0.17599856696E+03  0.00000000000E+00 0. -1.
          2   -1    0    0  502    0 -0.00000000000E+00 -0.00000000000E+00 -0.87020031731E+03  0.87020031731E+03  0.00000000000E+00 0. -1.
         23    2    1    2    0    0  0.22988758851E+03  0.40263672552E+02 -0.66725877250E+03  0.71299464699E+03  0.93046388822E+02 0.  0.
         23    2    1    2    0    0 -0.19697492985E+03  0.49706058523E+02 -0.61631874493E+02  0.23131647962E+03  0.91864087381E+02 0.  0.
        -11    1    4    4    0    0 -0.17181152049E+03  0.56447764524E+02 -0.81687398767E+02  0.19843986447E+03  0.00000000000E+00 0. -1.
         11    1    4    4    0    0 -0.25163409354E+02 -0.67417060011E+01  0.20055524273E+02  0.32876615155E+02  0.00000000000E+00 0.  1.
        -13    1    3    3    0    0  0.14718346851E+03  0.27538454991E+01 -0.29333321145E+03  0.32819952774E+03  0.00000000000E+00 0.  1.
         13    1    3    3    0    0  0.82704120002E+02  0.37509827052E+02 -0.37392556105E+03  0.38479511925E+03  0.00000000000E+00 0. -1.
          2    1    1    2  501    0 -0.32912658665E+02 -0.89969731075E+02  0.34688896649E+02  0.10188775766E+03  0.00000000000E+00 0. -1.
<scales pt_clust_5="13000.00000" pt_clust_6="13000.00000" pt_clust_7="13000.00000" pt_clust_8="13000.00000" pt_clust_9="95.80081"></scales>
<clustering>
<clus scale="   91.864">  5  6 -1 -1</clus>
<clus scale="   93.046">  7  8 -1 -1</clus>
<clus scale="   95.801">  1  9  2 -1</clus>
<clus scale="  242.015">  1  5  2 -1</clus>
<clus scale="   95.801">  1  5  2 -1</clus>
</clustering>
</event>
<event>
 9    1  0.1426358E-005  0.9418530E+02  0.7546771E-02  0.1299329E+00
         -3   -1    0    0    0  501 -0.00000000000E+00  0.00000000000E+00  0.18119604198E+03  0.18119604198E+03  0.00000000000E+00 0.  1.
         21   -1    0    0  501  502  0.00000000000E+00 -0.00000000000E+00 -0.15296130552E+03  0.15296130552E+03  0.00000000000E+00 0.  1.
         23    2    1    2    0    0 -0.17179449141E+02  0.36686075715E+02  0.10316963532E+03  0.14183987563E+03  0.88507485809E+02 0.  0.
         23    2    1    2    0    0  0.22234015946E+02 -0.96756753616E+01  0.28013284856E+02  0.85764954763E+02  0.77349293328E+02 0.  0.
        -11    1    4    4    0    0  0.46776432453E+01 -0.32793391318E+02 -0.12943417396E+02  0.35564292688E+02  0.00000000000E+00 0. -1.
         11    1    4    4    0    0  0.17556372700E+02  0.23117715957E+02  0.40956702252E+02  0.50200662076E+02  0.00000000000E+00 0.  1.
        -13    1    3    3    0    0  0.30874078121E+02 -0.36941421444E+01  0.17637724182E+02  0.35748352414E+02  0.00000000000E+00 0. -1.
         13    1    3    3    0    0 -0.48053527262E+02  0.40380217859E+02  0.85531911133E+02  0.10609152322E+03  0.00000000000E+00 0.  1.
         -3    1    1    2    0  502 -0.50545668041E+01 -0.27010400353E+02 -0.10294818371E+03  0.10655251711E+03  0.00000000000E+00 0.  1.
<scales pt_clust_5="13000.00000" pt_clust_6="13000.00000" pt_clust_7="13000.00000" pt_clust_8="13000.00000" pt_clust_9="27.47927"></scales>
<clustering>
<clus scale="   27.479">  2  9  1 -1</clus>
<clus scale="   77.349">  5  6 -1 -1</clus>
<clus scale="   83.787">  2  5  1 -1</clus>
<clus scale="   88.507">  7  8 -1 -1</clus>
<clus scale="   27.479">  2  5  1 -1</clus>
</clustering>
</event>
<event>
 9    1  0.1426358E-005  0.1500351E+03  0.7546771E-02  0.1201948E+00
          1   -1    0    0  502    0 -0.00000000000E+00  0.00000000000E+00  0.53509752454E+03  0.53509752454E+03  0.00000000000E+00 0. -1.
         21   -1    0    0  501  502  0.00000000000E+00 -0.00000000000E+00 -0.24585295389E+03  0.24585295389E+03  0.00000000000E+00 0. -1.
         23    2    1    2    0    0  0.10376105496E+03 -0.37655374740E+02  0.28457643650E+03  0.31928799236E+03  0.93684524223E+02 0.  0.
         23    2    1    2    0    0 -0.10617204203E+03  0.75184141175E+02  0.20520092511E+03  0.25763400419E+03  0.85689572627E+02 0.  0.
        -13    1    4    4    0    0 -0.64094408170E+02 -0.59300020738E+01  0.87496331142E+02  0.10862258534E+03  0.00000000000E+00 0.  1.
         13    1    4    4    0    0 -0.42077633859E+02  0.81114143249E+02  0.11770459397E+03  0.14901141885E+03  0.00000000000E+00 0. -1.
        -13    1    3    3    0    0  0.96855479758E+02 -0.14557882648E+02  0.27732647915E+03  0.29411373981E+03  0.00000000000E+00 0. -1.
         13    1    3    3    0    0  0.69055752040E+01 -0.23097492092E+02  0.72499573511E+01  0.25174252550E+02  0.00000000000E+00 0.  1.
          1    1    1    2  501    0  0.24109870664E+01 -0.37528766435E+02 -0.20053279096E+03  0.20402848189E+03  0.00000000000E+00 0. -1.
<scales pt_clust_5="13000.00000" pt_clust_6="13000.00000" pt_clust_7="13000.00000" pt_clust_8="13000.00000" pt_clust_9="37.60613"></scales>
<clustering>
<clus scale="   37.606">  2  9  1 -1</clus>
<clus scale="   85.690">  5  6 -1 -1</clus>
<clus scale="   93.685">  7  8 -1 -1</clus>
<clus scale="  145.177">  2  5  1 -1</clus>
<clus scale="   37.606">  2  5  1 -1</clus>
</clustering>
</event>
<event>
 9    1  0.1426358E-005  0.1227001E+03  0.7546771E-02  0.1238826E+00
          1   -1    0    0  502    0 -0.00000000000E+00  0.00000000000E+00  0.31214919458E+03  0.31214919458E+03  0.00000000000E+00 0. -1.
         21   -1    0    0  501  502  0.00000000000E+00 -0.00000000000E+00 -0.59628878801E+02  0.59628878801E+02  0.00000000000E+00 0.  1.
         23    2    1    2    0    0 -0.39286889764E+02 -0.86390719375E+02  0.13618027037E+03  0.18930012710E+03  0.91009098346E+02 0.  0.
         23    2    1    2    0    0  0.34531133309E+02  0.60585262531E+02  0.95071095492E+02  0.14870063062E+03  0.90611208717E+02 0.  0.
        -11    1    3    3    0    0 -0.30489148700E+02 -0.10493176446E+03  0.10227599691E+03  0.14966844332E+03  0.00000000000E+00 0.  1.
         11    1    3    3    0    0 -0.87977410642E+01  0.18541045087E+02  0.33904273458E+02  0.39631683783E+02  0.00000000000E+00 0. -1.
        -11    1    4    4    0    0 -0.19864975937E+02  0.30155229573E+02  0.13369834474E+01  0.36135061427E+02  0.00000000000E+00 0.  1.
         11    1    4    4    0    0  0.54396109246E+02  0.30430032958E+02  0.93734112045E+02  0.11256556919E+03  0.00000000000E+00 0. -1.
          1    1    1    2  501    0  0.47557564557E+01  0.25805456844E+02  0.21268949914E+02  0.33777315655E+02  0.00000000000E+00 0. -1.
<scales pt_clust_5="13000.00000" pt_clust_6="13000.00000" pt_clust_7="13000.00000" pt_clust_8="13000.00000" pt_clust_9="26.24002"></scales>
<clustering>
<clus scale="   26.240">  2  9  1 -1</clus>
<clus scale="   90.611">  7  8 -1 -1</clus>
<clus scale="   91.009">  5  6 -1 -1</clus>
<clus scale="  122.405">  2  7  1 -1</clus>
<clus scale="   26.240">  2  5  1 -1</clus>
</clustering>
</event>
<event>
 9    1  0.1426358E-005  0.1100827E+03  0.7546771E-02  0.1269802E+00
          2   -1    0    0  502    0 -0.00000000000E+00  0.00000000000E+00  0.18352774410E+03  0.18352774410E+03  0.00000000000E+00 0. -1.
         21   -1    0    0  501  502  0.00000000000E+00 -0.00000000000E+00 -0.15470655115E+03  0.15470655115E+03  0.00000000000E+00 0.  1.
         23    2    1    2    0    0 -0.24660389140E+02  0.62898701351E+02  0.12600701815E+03  0.17211040347E+03  0.95811486452E+02 0.  0.
         23    2    1    2    0    0  0.16084512425E+02 -0.17649617165E+02 -0.27154593840E+02  0.82306240614E+02  0.73937302840E+02 0.  0.
        -11    1    4    4    0    0  0.42857980356E+02 -0.53728905919E+01 -0.14572864226E+01  0.43218030001E+02  0.00000000000E+00 0.  1.
         11    1    4    4    0    0 -0.26773467930E+02 -0.12276726573E+02 -0.25697307418E+02  0.39088210613E+02  0.00000000000E+00 0. -1.
        -13    1    3    3    0    0  0.24318534446E+02  0.63595439048E+02  0.77763182647E+02  0.10335803578E+03  0.00000000000E+00 0.  1.
         13    1    3    3    0    0 -0.48978923585E+02 -0.69673769694E+00  0.48243835500E+02  0.68752367688E+02  0.00000000000E+00 0. -1.
          2    1    1    2  501    0  0.85758767145E+01 -0.45249084186E+02 -0.70031231356E+02  0.83817651162E+02  0.00000000000E+00 0. -1.
<scales pt_clust_5="13000.00000" pt_clust_6="13000.00000" pt_clust_7="13000.00000" pt_clust_8="13000.00000" pt_clust_9="46.05459"></scales>
<clustering>
<clus scale="   46.055">  2  9  1 -1</clus>
<clus scale="   73.937">  5  6 -1 -1</clus>
<clus scale="   91.679">  2  5  1 -1</clus>
<clus scale="   95.811">  7  8 -1 -1</clus>
<clus scale="   46.055">  2  5  1 -1</clus>
</clustering>
</event>
<event>
 9    1  0.1426358E-005  0.2071147E+03  0.7546771E-02  0.1144998E+00
          3   -1    0    0  502    0 -0.00000000000E+00  0.00000000000E+00  0.18316669752E+03  0.18316669752E+03  0.00000000000E+00 0. -1.
         21   -1    0    0  501  502  0.00000000000E+00 -0.00000000000E+00 -0.74546323454E+03  0.74546323454E+03  0.00000000000E+00 0.  1.
         23    2    1    2    0    0  0.16193938611E+03 -0.70757602051E+02  0.48293385592E+02  0.20265157438E+03  0.86627977509E+02 0.  0.
         23    2    1    2    0    0 -0.15216682016E+03  0.14002326407E+03 -0.18456436777E+03  0.29424810815E+03  0.98775946787E+02 0.  0.
        -13    1    3    3    0    0  0.14486494200E+03 -0.35998437700E+02  0.61911304424E+02  0.16160058339E+03  0.00000000000E+00 0. -1.
         13    1    3    3    0    0  0.17074444107E+02 -0.34759164351E+02 -0.13617918832E+02  0.41050990990E+02  0.00000000000E+00 0.  1.
        -13    1    4    4    0    0 -0.10062349672E+03  0.60348264131E+02 -0.15589918605E+03  0.19511934114E+03  0.00000000000E+00 0.  1.
         13    1    4    4    0    0 -0.51543323433E+02  0.79674999941E+02 -0.28665181717E+02  0.99128767010E+02  0.00000000000E+00 0. -1.
          3    1    1    2  501    0 -0.97725659492E+01 -0.69265662020E+02 -0.42602555484E+03  0.43173024953E+03  0.00000000000E+00 0. -1.
<scales pt_clust_5="13000.00000" pt_clust_6="13000.00000" pt_clust_7="13000.00000" pt_clust_8="13000.00000" pt_clust_9="69.95166"></scales>
<clustering>
<clus scale="   69.952">  2  9  1 -1</clus>
<clus scale="   86.628">  5  6 -1 -1</clus>
<clus scale="   98.776">  7  8 -1 -1</clus>
<clus scale="  201.604">  1  5  2 -1</clus>
<clus scale="   69.952">  2  5  1 -1</clus>
</clustering>
</event>
<event>
 9    1  0.1426358E-005  0.1110898E+03  0.7546771E-02  0.1258728E+00
         21   -1    0    0  501  502  0.00000000000E+00  0.00000000000E+00  0.39191319070E+03  0.39191319070E+03  0.00000000000E+00 0.  1.
          1   -1    0    0  502    0 -0.00000000000E+00 -0.00000000000E+00 -0.35629507659E+03  0.35629507659E+03  0.00000000000E+00 0. -1.
         23    2    1    2    0    0  0.19073549057E+02 -0.62069883438E+02 -0.30955191533E+03  0.32921865135E+03  0.91356780847E+02 0.  0.
         23    2    1    2    0    0  0.60694416835E+02  0.26505507618E+02  0.30055869971E+03  0.32091860111E+03  0.90922287697E+02 0.  0.
        -11    1    3    3    0    0  0.41687787745E+02 -0.63331740842E+02 -0.28849867166E+03  0.29829559935E+03  0.00000000000E+00 0. -1.
         11    1    3    3    0    0 -0.22614238688E+02  0.12618574034E+01 -0.21053243674E+02  0.30923051996E+02  0.00000000000E+00 0.  1.
        -13    1    4    4    0    0  0.32426003152E+02  0.53477338634E+02  0.11128571535E+03  0.12765493280E+03  0.00000000000E+00 0. -1.
         13    1    4    4    0    0  0.28268413682E+02 -0.26971831016E+02  0.18927298436E+03  0.19326366831E+03  0.00000000000E+00 0.  1.
          1    1    1    2  501    0 -0.79767965892E+02  0.35564375820E+02  0.44611329728E+02  0.98071014832E+02  0.00000000000E+00 0. -1.
<scales pt_clust_5="13000.00000" pt_clust_6="13000.00000" pt_clust_7="13000.00000" pt_clust_8="13000.00000" pt_clust_9="87.33701"></scales>
<clustering>
<clus scale="   87.337">  1  9  2 -1</clus>
<clus scale="   90.922">  7  8 -1 -1</clus>
<clus scale="   91.357">  5  6 -1 -1</clus>
<clus scale="  110.733">  1  7  2 -1</clus>
<clus scale="   87.337">  1  5  2 -1</clus>
</clustering>
</event>
<event>
 9    1  0.1426358E-005  0.1453390E+03  0.7546771E-02  0.1206757E+00
          2   -1    0    0  502    0 -0.00000000000E+00  0.00000000000E+00  0.76550833921E+03  0.76550833921E+03  0.00000000000E+00 0. -1.
         21   -1    0    0  501  502  0.00000000000E+00 -0.00000000000E+00 -0.51442500297E+02  0.51442500297E+02  0.00000000000E+00 0. -1.
         23    2    1    2    0    0  0.10734462966E+03 -0.12783483560E+01  0.51063894144E+03  0.52975477906E+03  0.91452139021E+02 0.  0.
         23    2    1    2    0    0 -0.12843124752E+03 -0.18231962297E+02  0.20490963936E+03  0.25842982680E+03  0.89280598593E+02 0.  0.
        -13    1    4    4    0    0 -0.19720358888E+02 -0.12915308013E+02  0.11460428029E+03  0.11700358454E+03  0.00000000000E+00 0.  1.
         13    1    4    4    0    0 -0.10871088863E+03 -0.53166542843E+01  0.90305359078E+02  0.14142624226E+03  0.00000000000E+00 0. -1.
        -13    1    3    3    0    0  0.47025673963E+01 -0.25241281299E+02  0.40557398278E+02  0.48001447653E+02  0.00000000000E+00 0.  1.
         13    1    3    3    0    0  0.10264206226E+03  0.23962932943E+02  0.47008154316E+03  0.48175333141E+03  0.00000000000E+00 0. -1.
          2    1    1    2  501    0  0.21086617866E+02  0.19510310653E+02 -0.14827418906E+01  0.28766233649E+02  0.00000000000E+00 0. -1.
<scales pt_clust_5="13000.00000" pt_clust_6="13000.00000" pt_clust_7="13000.00000" pt_clust_8="13000.00000" pt_clust_9="28.72799"></scales>
<clustering>
<clus scale="   28.728">  2  9  1 -1</clus>
<clus scale="   89.281">  5  6 -1 -1</clus>
<clus scale="   91.452">  7  8 -1 -1</clus>
<clus scale="  143.983">  2  5  1 -1</clus>
<clus scale="   28.728">  2  5  1 -1</clus>
</clustering>
</event>
<event>
 9    1  0.1426358E-005  0.1302107E+03  0.7546771E-02  0.1227485E+00
         21   -1    0    0  501  502  0.00000000000E+00  0.00000000000E+00  0.13024699122E+03  0.13024699122E+03  0.00000000000E+00 0. -1.
          1   -1    0    0  502    0 -0.00000000000E+00 -0.00000000000E+00 -0.38275982623E+03  0.38275982623E+03  0.00000000000E+00 0. -1.
         23    2    1    2    0    0 -0.71732045076E+02  0.17935917246E+02 -0.15434285725E+03  0.19343008744E+03  0.90145980088E+02 0.  0.
         23    2    1    2    0    0  0.11778034024E+03 -0.21219897368E+02 -0.17441066693E+03  0.23044832434E+03  0.91459591404E+02 0.  0.
        -11    1    3    3    0    0 -0.22149000413E+02  0.43357294357E+02 -0.11596882405E+03  0.12577440655E+03  0.00000000000E+00 0.  1.
         11    1    3    3    0    0 -0.49583044663E+02 -0.25421377111E+02 -0.38374033203E+02  0.67655680889E+02  0.00000000000E+00 0. -1.
        -13    1    4    4    0    0  0.35301630318E+02  0.29795356872E+02 -0.25568038596E+02  0.52798607859E+02  0.00000000000E+00 0.  1.
         13    1    4    4    0    0  0.82478709921E+02 -0.51015254240E+02 -0.14884262834E+03  0.17764971648E+03  0.00000000000E+00 0. -1.
          1    1    1    2  501    0 -0.46048295162E+02  0.32839801218E+01  0.76240689170E+02  0.89128405674E+02  0.00000000000E+00 0. -1.
<scales pt_clust_5="13000.00000" pt_clust_6="13000.00000" pt_clust_7="13000.00000" pt_clust_8="13000.00000" pt_clust_9="46.16525"></scales>
<clustering>
<clus scale="   46.165">  1  9  2 -1</clus>
<clus scale="   90.146">  5  6 -1 -1</clus>
<clus scale="   91.460">  7  8 -1 -1</clus>
<clus scale="  129.291">  2  5  1 -1</clus>
<clus scale="   46.165">  1  5  2 -1</clus>
</clustering>
</event>
<event>
 9    1  0.1426358E-005  0.1375639E+03  0.7546771E-02  0.1231611E+00
         -2   -1    0    0    0  501 -0.00000000000E+00  0.00000000000E+00  0.54337732072E+03  0.54337732072E+03  0.00000000000E+00 0.  1.
         21   -1    0    0  501  502  0.00000000000E+00 -0.00000000000E+00 -0.80870403342E+02  0.80870403342E+02  0.00000000000E+00 0. -1.
         23    2    1    2    0    0 -0.26673875253E+02 -0.33248983208E+02  0.29407390203E+03  0.31083319925E+03  0.91218569350E+02 0.  0.
         23    2    1    2    0    0 -0.88082944468E+02 -0.23714736595E+02  0.44835880174E+02  0.13539698391E+03  0.89448830416E+02 0.  0.
        -11    1    4    4    0    0 -0.61717027667E+02  0.28699774523E+02  0.15530442989E+02  0.69813059102E+02  0.00000000000E+00 0. -1.
         11    1    4    4    0    0 -0.26365916801E+02 -0.52414511118E+02  0.29305437185E+02  0.65583924807E+02  0.00000000000E+00 0.  1.
        -13    1    3    3    0    0  0.31366503067E+02 -0.40817330882E+01  0.58932566290E+02  0.66884717456E+02  0.00000000000E+00 0.  1.
         13    1    3    3    0    0 -0.58040378320E+02 -0.29167250120E+02  0.23514133574E+03  0.24394848179E+03  0.00000000000E+00 0. -1.
         -2    1    1    2    0  502  0.11475681972E+03  0.56963719803E+02  0.12359713517E+03  0.17801754090E+03  0.00000000000E+00 0.  1.
<scales pt_clust_5="13000.00000" pt_clust_6="13000.00000" pt_clust_7="13000.00000" pt_clust_8="13000.00000" pt_clust_9="104.51188"></scales>
<clustering>
<clus scale="   89.449">  5  6 -1 -1</clus>
<clus scale="   91.219">  7  8 -1 -1</clus>
<clus scale="  100.687">  1  7  2 -1</clus>
<clus scale="  104.512">  2  9  1 -1</clus>
<clus scale="  104.512">  2  5  1 -1</clus>
</clustering>
</event>
<event>
 9    1  0.1426358E-005  0.1112939E+03  0.7546771E-02  0.1261454E+00
          1   -1    0    0  502    0 -0.00000000000E+00  0.00000000000E+00  0.11430628790E+03  0.11430628790E+03  0.00000000000E+00 0. -1.
         21   -1    0    0  501  502  0.00000000000E+00 -0.00000000000E+00 -0.66826984190E+03  0.66826984190E+03  0.00000000000E+00 0. -1.
         23    2    1    2    0    0  0.23559181086E+02  0.83509057123E+02  0.12707947137E+02  0.13281291126E+03  0.99744572993E+02 0.  0.
         23    2    1    2    0    0 -0.16553424596E+02 -0.90877427545E+01 -0.17471441981E+02  0.95499456756E+02  0.91968973146E+02 0.  0.
        -11    1    3    3    0    0 -0.21919407019E+02  0.57501169233E+02 -0.26875817935E+02  0.67150237952E+02  0.00000000000E+00 0.  1.
         11    1    3    3    0    0  0.45478588105E+02  0.26007887890E+02  0.39583765072E+02  0.65662673307E+02  0.00000000000E+00 0. -1.
        -13    1    4    4    0    0 -0.50654506196E+02 -0.21627074947E+02 -0.21108230180E+02  0.58984461938E+02  0.00000000000E+00 0.  1.
         13    1    4    4    0    0  0.34101081600E+02  0.12539332193E+02  0.36367881991E+01  0.36514994818E+02  0.00000000000E+00 0. -1.
          1    1    1    2  501    0 -0.70057564896E+01 -0.74421314369E+02 -0.54920005916E+03  0.55426376179E+03  0.00000000000E+00 0. -1.
<scales pt_clust_5="13000.00000" pt_clust_6="13000.00000" pt_clust_7="13000.00000" pt_clust_8="13000.00000" pt_clust_9="74.75034"></scales>
<clustering>
<clus scale="   74.750">  2  9  1 -1</clus>
<clus scale="   91.969">  7  8 -1 -1</clus>
<clus scale="   99.745">  5  6 -1 -1</clus>
<clus scale="  104.382">  2  7  1 -1</clus>
<clus scale="   74.750">  2  5  1 -1</clus>
</clustering>
</event>
<event>
 9    1  0.1426358E-005  0.1716680E+03  0.7546771E-02  0.1197193E+00
         -1   -1    0    0    0  501 -0.00000000000E+00  0.00000000000E+00  0.23158606776E+03  0.23158606776E+03  0.00000000000E+00 0.  1.
         21   -1    0    0  501  502  0.00000000000E+00 -0.00000000000E+00 -0.26662641886E+03  0.26662641886E+03  0.00000000000E+00 0.  1.
         23    2    1    2    0    0 -0.43824004683E+02 -0.37851238249E+02  0.27357244190E+02  0.11090024313E+03  0.90538309533E+02 0.  0.
         23    2    1    2    0    0  0.50165008289E+02 -0.11250008917E+03  0.85020994546E+02  0.17665144834E+03  0.93831586194E+02 0.  0.
        -13    1    4    4    0    0  0.26741955063E+02  0.10146508693E+02  0.71022902488E+01  0.29470770707E+02  0.00000000000E+00 0. -1.
         13    1    4    4    0    0  0.23423053226E+02 -0.12264659786E+03  0.77918704297E+02  0.14718067763E+03  0.00000000000E+00 0.  1.
        -13    1    3    3    0    0  0.11764160577E+02 -0.24217291491E+02  0.43743525404E+02  0.51365053256E+02  0.00000000000E+00 0.  1.
         13    1    3    3    0    0 -0.55588165260E+02 -0.13633946758E+02 -0.16386281215E+02  0.59535189873E+02  0.00000000000E+00 0. -1.
         -1    1    1    2    0  502 -0.63410036065E+01  0.15035132742E+03 -0.14741858983E+03  0.21066079514E+03  0.00000000000E+00 0.  1.
<scales pt_clust_5="13000.00000" pt_clust_6="13000.00000" pt_clust_7="13000.00000" pt_clust_8="13000.00000" pt_clust_9="143.75512"></scales>
<clustering>
<clus scale="   90.538">  7  8 -1 -1</clus>
<clus scale="   93.832">  5  6 -1 -1</clus>
<clus scale="  107.473">  1  7  2 -1</clus>
<clus scale="  143.755">  2  9  1 -1</clus>
<clus scale="  143.755">  2  5  1 -1</clus>
</clustering>
</event>
<event>
 9    1  0.1497381E-005  0.1066013E+03  0.7546771E-02  0.1268159E+00
          1   -1    0    0  502    0 -0.00000000000E+00  0.00000000000E+00  0.45753404384E+03  0.45753404384E+03  0.00000000000E+00 0. -1.
         21   -1    0    0  501  502  0.00000000000E+00 -0.00000000000E+00 -0.16969678642E+03  0.16969678642E+03  0.00000000000E+00 0. -1.
         23    2    1    2    0    0 -0.63254007436E+02  0.33490931197E+02  0.27562189071E+03  0.29977927007E+03  0.93688164630E+02 0.  0.
         23    2    1    2    0    0  0.20211081108E+02 -0.19843008856E+02  0.15264535006E+03  0.17994040972E+03  0.90970958862E+02 0.  0.
        -13    1    4    4    0    0  0.23156046830E+02  0.29963264575E+02  0.10219617091E+03  0.10898649952E+03  0.00000000000E+00 0. -1.
         13    1    4    4    0    0 -0.29449657218E+01 -0.49806273432E+02  0.50449179150E+02  0.70953910204E+02  0.00000000000E+00 0.  1.
        -13    1    3    3    0    0 -0.26447817890E+02 -0.59187747911E+01  0.10236431211E+02  0.28970735063E+02  0.00000000000E+00 0.  1.
         13    1    3    3    0    0 -0.36806189546E+02  0.39409705988E+02  0.26538545950E+03  0.27080853500E+03  0.00000000000E+00 0. -1.
          1    1    1    2  501    0  0.43042926327E+02 -0.13647922341E+02 -0.14042998335E+03  0.14751115048E+03  0.00000000000E+00 0. -1.
<scales pt_clust_5="13000.00000" pt_clust_6="13000.00000" pt_clust_7="13000.00000" pt_clust_8="13000.00000" pt_clust_9="45.15484"></scales>
<clustering>
<clus scale="   45.155">  2  9  1 -1</clus>
<clus scale="   90.971">  5  6 -1 -1</clus>
<clus scale="   93.688">  7  8 -1 -1</clus>
<clus scale="  104.221">  2  5  1 -1</clus>
<clus scale="   45.155">  2  5  1 -1</clus>
</clustering>
</event>
<event>
 9    1  0.1426358E-005  0.9549099E+02  0.7546771E-02  0.1290283E+00
          1   -1    0    0  502    0 -0.00000000000E+00  0.00000000000E+00  0.40282602190E+03  0.40282602190E+03  0.00000000000E+00 0. -1.
         21   -1    0    0  501  502  0.00000000000E+00 -0.00000000000E+00 -0.97435610180E+02  0.97435610180E+02  0.00000000000E+00 0. -1.
         23    2    1    2    0    0  0.24171789664E+02  0.18827871414E+02  0.33027511541E+03  0.34434746110E+03  0.92491934502E+02 0.  0.
         23    2    1    2    0    0  0.10114990190E+02  0.22284944196E+02  0.34102094755E+01  0.95362961322E+02  0.92106096970E+02 0.  0.
        -11    1    3    3    0    0 -0.33062494124E+02 -0.79385796983E+01  0.10407792602E+03  0.10949138893E+03  0.00000000000E+00 0.  1.
         11    1    3    3    0    0  0.57234283788E+02  0.26766451112E+02  0.22619718940E+03  0.23485607217E+03  0.00000000000E+00 0. -1.
        -11    1    4    4    0    0  0.49960457326E+02  0.23926443455E+02  0.31322667527E+01  0.55482727831E+02  0.00000000000E+00 0. -1.
         11    1    4    4    0    0 -0.39845467136E+02 -0.16414992588E+01  0.27794272275E+00  0.39880233491E+02  0.00000000000E+00 0.  1.
          1    1    1    2  501    0 -0.34286779854E+02 -0.41112815610E+02 -0.28294913167E+02  0.60551209659E+02  0.00000000000E+00 0. -1.
<scales pt_clust_5="13000.00000" pt_clust_6="13000.00000" pt_clust_7="13000.00000" pt_clust_8="13000.00000" pt_clust_9="53.53361"></scales>
<clustering>
<clus scale="   53.534">  2  9  1 -1</clus>
<clus scale="   92.106">  7  8 -1 -1</clus>
<clus scale="   92.492">  5  6 -1 -1</clus>
<clus scale="   95.117">  2  7  1 -1</clus>
<clus scale="   53.534">  2  5  1 -1</clus>
</clustering>
</event>
<event>
 9    1  0.1426358E-005  0.2083945E+03  0.7546771E-02  0.1163390E+00
         -1   -1    0    0    0  501 -0.00000000000E+00  0.00000000000E+00  0.62772994560E+03  0.62772994560E+03  0.00000000000E+00 0.  1.
         21   -1    0    0  501  502  0.00000000000E+00 -0.00000000000E+00 -0.24476720850E+03  0.24476720850E+03  0.00000000000E+00 0.  1.
         23    2    1    2    0    0 -0.13051174225E+02  0.81239316972E+02  0.90566537670E+02  0.15713654907E+03  0.98587207778E+02 0.  0.
         23    2    1    2    0    0 -0.15865891943E+03 -0.15091207669E+03  0.42549040207E+03  0.48720996074E+03  0.91566129040E+02 0.  0.
        -11    1    4    4    0    0 -0.57322866274E+02 -0.90805959610E+02  0.28069623210E+03  0.30053620084E+03  0.00000000000E+00 0.  1.
         11    1    4    4    0    0 -0.10133605316E+03 -0.60106117082E+02  0.14479416997E+03  0.18667375990E+03  0.00000000000E+00 0. -1.
        -11    1    3    3    0    0  0.95564432203E+01  0.89253137872E+02  0.34518239563E+02  0.96171498322E+02  0.00000000000E+00 0. -1.
         11    1    3    3    0    0 -0.22607617445E+02 -0.80138209003E+01  0.56048298108E+02  0.60965050748E+02  0.00000000000E+00 0.  1.
         -1    1    1    2    0  502  0.17171009366E+03  0.69672759721E+02 -0.13309420265E+03  0.22815064429E+03  0.00000000000E+00 0.  1.
<scales pt_clust_5="13000.00000" pt_clust_6="13000.00000" pt_clust_7="13000.00000" pt_clust_8="13000.00000" pt_clust_9="187.20018"></scales>
<clustering>
<clus scale="   91.566">  5  6 -1 -1</clus>
<clus scale="   98.587">  7  8 -1 -1</clus>
<clus scale="  128.412">  1  7  2 -1</clus>
<clus scale="  187.200">  2  9  1 -1</clus>
<clus scale="  187.200">  2  5  1 -1</clus>
</clustering>
</event>
<event>
 9    1  0.1426358E-005  0.1171953E+03  0.7546771E-02  0.1259658E+00
         21   -1    0    0  501  502  0.00000000000E+00  0.00000000000E+00  0.16112839806E+03  0.16112839806E+03  0.00000000000E+00 0.  1.
         -1   -1    0    0    0  501 -0.00000000000E+00 -0.00000000000E+00 -0.12945337486E+03  0.12945337486E+03  0.00000000000E+00 0.  1.
         23    2    1    2    0    0 -0.13238903194E+02 -0.51540719094E+01 -0.43448791369E+02  0.12338566363E+03  0.11460537292E+03 0.  0.
         23    2    1    2    0    0  0.29415431592E+02  0.26383184234E+02  0.11658347869E+02  0.98346848254E+02  0.89301990238E+02 0.  0.
        -11    1    3    3    0    0 -0.26068966414E+02 -0.55041149314E+02 -0.93616824071E+01  0.61617856383E+02  0.00000000000E+00 0.  1.
         11    1    3    3    0    0  0.12830063220E+02  0.49887077405E+02 -0.34087108962E+02  0.61767807243E+02  0.00000000000E+00 0. -1.
        -13    1    4    4    0    0  0.23054263123E+02 -0.78013666949E+01 -0.33465599462E+02  0.41380028006E+02  0.00000000000E+00 0.  1.
         13    1    4    4    0    0  0.63611684686E+01  0.34184550929E+02  0.45123947330E+02  0.56966820248E+02  0.00000000000E+00 0. -1.
         -1    1    1    2    0  502 -0.16176528398E+02 -0.21229112325E+02  0.63465466700E+02  0.68849261031E+02  0.00000000000E+00 0.  1.
<scales pt_clust_5="13000.00000" pt_clust_6="13000.00000" pt_clust_7="13000.00000" pt_clust_8="13000.00000" pt_clust_9="26.68998"></scales>
<clustering>
<clus scale="   26.690">  1  9  2 -1</clus>
<clus scale="   89.302">  7  8 -1 -1</clus>
<clus scale="   92.602">  1  7  2 -1</clus>
<clus scale="  114.605">  5  6 -1 -1</clus>
<clus scale="   26.690">  1  5  2 -1</clus>
</clustering>
</event>
<event>
 9    1  0.1426358E-005  0.9279548E+02  0.7546771E-02  0.1297066E+00
         21   -1    0    0  501  502  0.00000000000E+00  0.00000000000E+00  0.88381555605E+02  0.88381555605E+02  0.00000000000E+00 0.  1.
         -1   -1    0    0    0  501 -0.00000000000E+00 -0.00000000000E+00 -0.24238756969E+03  0.24238756969E+03  0.00000000000E+00 0.  1.
         23    2    1    2    0    0 -0.67330326701E+01 -0.17588406667E+02 -0.15704946660E+03  0.18321910968E+03  0.92466325847E+02 0.  0.
         23    2    1    2    0    0 -0.26051137512E+01 -0.25218893873E+02 -0.22101944314E+02  0.97033118055E+02  0.91017310612E+02 0.  0.
        -13    1    4    4    0    0  0.38058407755E+02 -0.27759474392E+02 -0.29560223311E+02  0.55613286376E+02  0.00000000000E+00 0.  1.
         13    1    4    4    0    0 -0.40663521506E+02  0.25405805189E+01  0.74582789973E+01  0.41419831678E+02  0.00000000000E+00 0. -1.
        -13    1    3    3    0    0 -0.27601629183E+02  0.26392625452E+02 -0.34930644233E+02  0.51754908157E+02  0.00000000000E+00 0. -1.
         13    1    3    3    0    0  0.20868596513E+02 -0.43981032120E+02 -0.12211882236E+03  0.13146420152E+03  0.00000000000E+00 0.  1.
         -1    1    1    2    0  502  0.93381464212E+01  0.42807300541E+02  0.25145396822E+02  0.50516897564E+02  0.00000000000E+00 0.  1.
<scales pt_clust_5="13000.00000" pt_clust_6="13000.00000" pt_clust_7="13000.00000" pt_clust_8="13000.00000" pt_clust_9="43.81399"></scales>
<clustering>
<clus scale="   43.814">  1  9  2 -1</clus>
<clus scale="   91.017">  5  6 -1 -1</clus>
<clus scale="   91.352">  1  5  2 -1</clus>
<clus scale="   92.466">  7  8 -1 -1</clus>
<clus scale="   43.814">  1  5  2 -1</clus>
</clustering>
</event>
<event>
 9    1  0.1426358E-005  0.9479009E+02  0.7546771E-02  0.1292649E+00
         21   -1    0    0  501  502  0.00000000000E+00  0.00000000000E+00  0.47021446531E+03  0.47021446531E+03  0.00000000000E+00 0. -1.
         -2   -1    0    0    0  501 -0.00000000000E+00 -0.00000000000E+00 -0.35742524896E+02  0.35742524896E+02  0.00000000000E+00 0.  1.
         23    2    1    2    0    0 -0.13706058054E+02 -0.16167791173E+02  0.57518827457E+02  0.11058683696E+03  0.92042270169E+02 0.  0.
         23    2    1    2    0    0  0.82218593034E+00  0.33896529870E+02  0.32469956107E+03  0.33870679629E+03  0.90237675989E+02 0.  0.
        -11    1    4    4    0    0 -0.43620874638E+02  0.24363927557E+02  0.14580910438E+03  0.15413201027E+03  0.00000000000E+00 0.  1.
         11    1    4    4    0    0  0.44443060568E+02  0.95326023126E+01  0.17889045669E+03  0.18457478602E+03  0.00000000000E+00 0. -1.
        -11    1    3    3    0    0  0.53782584826E+01 -0.51481497745E+02  0.44864396268E+02  0.68498790696E+02  0.00000000000E+00 0.  1.
         11    1    3    3    0    0 -0.19084316537E+02  0.35313706572E+02  0.12654431189E+02  0.42088046263E+02  0.00000000000E+00 0. -1.
         -2    1    1    2    0  502  0.12883872124E+02 -0.17728738697E+02  0.52253551887E+02  0.56663356956E+02  0.00000000000E+00 0.  1.
<scales pt_clust_5="13000.00000" pt_clust_6="13000.00000" pt_clust_7="13000.00000" pt_clust_8="13000.00000" pt_clust_9="21.91580"></scales>
<clustering>
<clus scale="   21.916">  1  9  2 -1</clus>
<clus scale="   90.238">  5  6 -1 -1</clus>
<clus scale="   92.042">  7  8 -1 -1</clus>
<clus scale="   93.039">  1  5  2 -1</clus>
<clus scale="   21.916">  1  5  2 -1</clus>
</clustering>
</event>
<event>
 9    1  0.1426358E-005  0.9459221E+02  0.7546771E-02  0.1293323E+00
         -3   -1    0    0    0  501 -0.00000000000E+00  0.00000000000E+00  0.41274813356E+03  0.41274813356E+03  0.00000000000E+00 0.  1.
         21   -1    0    0  501  502  0.00000000000E+00 -0.00000000000E+00 -0.63377619549E+02  0.63377619549E+02  0.00000000000E+00 0.  1.
         23    2    1    2    0    0  0.73256065089E+01 -0.20548977952E+01  0.28169747006E+03  0.29720759637E+03  0.94451064524E+02 0.  0.
         23    2    1    2    0    0  0.29787454248E+02 -0.25837992877E+02  0.82765276067E+02  0.13010045401E+03  0.92310036864E+02 0.  0.
        -11    1    4    4    0    0 -0.21705164124E+02 -0.10163760852E+02 -0.74067535407E+01  0.25085377859E+02  0.00000000000E+00 0.  1.
         11    1    4    4    0    0  0.51492618372E+02 -0.15674232025E+02  0.90172029608E+02  0.10501507616E+03  0.00000000000E+00 0. -1.
        -11    1    3    3    0    0 -0.36613538983E+02  0.19053806695E+01  0.53964459265E+02  0.65240666583E+02  0.00000000000E+00 0. -1.
         11    1    3    3    0    0  0.43939145492E+02 -0.39602784647E+01  0.22773301079E+03  0.23196692979E+03  0.00000000000E+00 0.  1.
         -3    1    1    2    0  502 -0.37113060757E+02  0.27892890672E+02 -0.15092232113E+02  0.48817702721E+02  0.00000000000E+00 0.  1.
<scales pt_clust_5="13000.00000" pt_clust_6="13000.00000" pt_clust_7="13000.00000" pt_clust_8="13000.00000" pt_clust_9="46.42621"></scales>
<clustering>
<clus scale="   46.426">  2  9  1 -1</clus>
<clus scale="   92.310">  5  6 -1 -1</clus>
<clus scale="   92.454">  2  5  1 -1</clus>
<clus scale="   94.451">  7  8 -1 -1</clus>
<clus scale="   46.426">  2  5  1 -1</clus>
</clustering>
</event>
<event>
 9    1  0.1426358E-005  0.1589743E+03  0.7546771E-02  0.1190333E+00
          3   -1    0    0  502    0 -0.00000000000E+00  0.00000000000E+00  0.17185500329E+04  0.17185500329E+04  0.00000000000E+00 0. -1.
         21   -1    0    0  501  502  0.00000000000E+00 -0.00000000000E+00 -0.35890209304E+02  0.35890209304E+02  0.00000000000E+00 0. -1.
         23    2    1    2    0    0  0.99411208979E+02 -0.65117310171E+02  0.76954598820E+03  0.78407670449E+03  0.91936924102E+02 0.  0.
         23    2    1    2    0    0 -0.63431472032E+02  0.14370316064E+03  0.83356506039E+03  0.85289743635E+03  0.89045926386E+02 0.  0.
        -11    1    4    4    0    0  0.15522830714E+02  0.70684402128E+02  0.30037152038E+03  0.30896649209E+03  0.00000000000E+00 0.  1.
         11    1    4    4    0    0 -0.78954302746E+02  0.73018758508E+02  0.53319354001E+03  0.54393094426E+03  0.00000000000E+00 0. -1.
        -13    1    3    3    0    0  0.11231794288E+03 -0.35832734063E+02  0.58219148921E+03  0.59400861545E+03  0.00000000000E+00 0.  1.
         13    1    3    3    0    0 -0.12906733906E+02 -0.29284576109E+02  0.18735449900E+03  0.19006808904E+03  0.00000000000E+00 0. -1.
          3    1    1    2  501    0 -0.35979736947E+02 -0.78585850465E+02  0.79548774990E+02  0.11746610135E+03  0.00000000000E+00 0. -1.
<scales pt_clust_5="13000.00000" pt_clust_6="13000.00000" pt_clust_7="13000.00000" pt_clust_8="13000.00000" pt_clust_9="86.43077"></scales>
<clustering>
<clus scale="   86.431">  2  9  1 -1</clus>
<clus scale="   89.046">  5  6 -1 -1</clus>
<clus scale="   91.937">  7  8 -1 -1</clus>
<clus scale="  157.320">  2  5  1 -1</clus>
<clus scale="   86.431">  2  5  1 -1</clus>
</clustering>
</event>
<event>
 9    1  0.1426358E-005  0.9662885E+02  0.7546771E-02  0.1288110E+00
          1   -1    0    0  502    0 -0.00000000000E+00  0.00000000000E+00  0.12493991479E+03  0.12493991479E+03  0.00000000000E+00 0. -1.
         21   -1    0    0  501  502  0.00000000000E+00 -0.00000000000E+00 -0.22868036641E+03  0.22868036641E+03  0.00000000000E+00 0. -1.
         23    2    1    2    0    0  0.37334026042E+02 -0.39698700620E+02  0.20210137241E+02  0.10785510548E+03  0.90854046684E+02 0.  0.
         23    2    1    2    0    0  0.56626091762E+02  0.21982354535E+02 -0.29088888844E+02  0.11107622003E+03  0.88329072356E+02 0.  0.
        -13    1    4    4    0    0  0.26022224471E+02 -0.33434861501E+01 -0.56850768366E+02  0.62612657904E+02  0.00000000000E+00 0.  1.
         13    1    4    4    0    0  0.30603867292E+02  0.25325840685E+02  0.27761879521E+02  0.48463562129E+02  0.00000000000E+00 0. -1.
        -13    1    3    3    0    0  0.23737408009E+02 -0.66219543833E+01 -0.34558027602E+02  0.42444930093E+02  0.00000000000E+00 0.  1.
         13    1    3    3    0    0  0.13596618033E+02 -0.33076746236E+02  0.54768164843E+02  0.65410175384E+02  0.00000000000E+00 0. -1.
          1    1    1    2  501    0 -0.93960117804E+02  0.17716346085E+02 -0.94861700015E+02  0.13468895569E+03  0.00000000000E+00 0. -1.
<scales pt_clust_5="13000.00000" pt_clust_6="13000.00000" pt_clust_7="13000.00000" pt_clust_8="13000.00000" pt_clust_9="95.61576"></scales>
<clustering>
<clus scale="   88.329">  5  6 -1 -1</clus>
<clus scale="   90.854">  7  8 -1 -1</clus>
<clus scale="   95.616">  2  9  1 -1</clus>
<clus scale="   95.616">  2  5  1 -1</clus>
<clus scale="   95.616">  2  5  1 -1</clus>
</clustering>
</event>
<event>
 9    1  0.1426358E-005  0.1075782E+03  0.7546771E-02  0.1269897E+00
         21   -1    0    0  501  502  0.00000000000E+00  0.00000000000E+00  0.17300417898E+03  0.17300417898E+03  0.00000000000E+00 0.  1.
         -1   -1    0    0    0  501 -0.00000000000E+00 -0.00000000000E+00 -0.19849529137E+03  0.19849529137E+03  0.00000000000E+00 0.  1.
         23    2    1    2    0    0 -0.32325077011E+02 -0.12936608846E+02 -0.87660790266E+02  0.12880078850E+03  0.87709534922E+02 0.  0.
         23    2    1    2    0    0  0.61302544018E+02  0.67356782238E+01 -0.50268604093E+02  0.12642094371E+03  0.98244344302E+02 0.  0.
        -11    1    3    3    0    0  0.63568515366E+01  0.33380251021E+02 -0.29741836746E+02  0.45157807439E+02  0.00000000000E+00 0. -1.
         11    1    3    3    0    0 -0.38681928548E+02 -0.46316859867E+02 -0.57918953520E+02  0.83642981062E+02  0.00000000000E+00 0.  1.
        -11    1    4    4    0    0  0.33630564251E+02  0.18970683404E+02  0.24522850390E+02  0.45741358440E+02  0.00000000000E+00 0. -1.
         11    1    4    4    0    0  0.27671979767E+02 -0.12235005181E+02 -0.74791454483E+02  0.80679585272E+02  0.00000000000E+00 0.  1.
         -1    1    1    2    0  502 -0.28977467006E+02  0.62009306224E+01  0.11243828197E+03  0.11627773814E+03  0.00000000000E+00 0.  1.
<scales pt_clust_5="13000.00000" pt_clust_6="13000.00000" pt_clust_7="13000.00000" pt_clust_8="13000.00000" pt_clust_9="29.63351"></scales>
<clustering>
<clus scale="   29.634">  1  9  2 -1</clus>
<clus scale="   87.710">  5  6 -1 -1</clus>
<clus scale="   98.051">  2  5  1 -1</clus>
<clus scale="   98.244">  7  8 -1 -1</clus>
<clus scale="   29.634">  1  5  2 -1</clus>
</clustering>
</event>
<event>
 9    1  0.1426358E-005  0.1399191E+03  0.7546771E-02  0.1219943E+00
          3   -1    0    0  502    0 -0.00000000000E+00  0.00000000000E+00  0.19409239631E+03  0.19409239631E+03  0.00000000000E+00 0. -1.
         21   -1    0    0  501  502  0.00000000000E+00 -0.00000000000E+00 -0.17870775702E+03  0.17870775702E+03  0.00000000000E+00 0. -1.
         23    2    1    2    0    0  0.93188658372E+01 -0.85866313621E+02  0.82432713896E+02  0.15040271472E+03  0.91465617585E+02 0.  0.
         23    2    1    2    0    0  0.55621931567E+02  0.63606089708E+02 -0.56368044882E+02  0.15292163152E+03  0.11431594370E+03 0.  0.
        -11    1    4    4    0    0 -0.94225704029E+01  0.56147455123E+02  0.12083525167E+02  0.58200800082E+02  0.00000000000E+00 0.  1.
         11    1    4    4    0    0  0.65044501969E+02  0.74586345852E+01 -0.68451570049E+02  0.94720831439E+02  0.00000000000E+00 0. -1.
        -13    1    3    3    0    0 -0.38768583015E+02 -0.21845181816E+02  0.39745925655E+02  0.59665346758E+02  0.00000000000E+00 0.  1.
         13    1    3    3    0    0  0.48087448852E+02 -0.64021131805E+02  0.42686788240E+02  0.90737367964E+02  0.00000000000E+00 0. -1.
          3    1    1    2  501    0 -0.64940797404E+02  0.22260223913E+02 -0.10680029719E+02  0.69475807091E+02  0.00000000000E+00 0. -1.
<scales pt_clust_5="13000.00000" pt_clust_6="13000.00000" pt_clust_7="13000.00000" pt_clust_8="13000.00000" pt_clust_9="68.65002"></scales>
<clustering>
<clus scale="   68.650">  2  9  1 -1</clus>
<clus scale="   91.466">  7  8 -1 -1</clus>
<clus scale="  114.316">  5  6 -1 -1</clus>
<clus scale="  121.964">  1  7  2 -1</clus>
<clus scale="   68.650">  2  5  1 -1</clus>
</clustering>
</event>
<event>
 9    1  0.1426358E-005  0.1112969E+03  0.7546771E-02  0.1261203E+00
         21   -1    0    0  501  502  0.00000000000E+00  0.00000000000E+00  0.13697591727E+03  0.13697591727E+03  0.00000000000E+00 0.  1.
          1   -1    0    0  502    0 -0.00000000000E+00 -0.00000000000E+00 -0.24876103411E+03  0.24876103411E+03  0.00000000000E+00 0. -1.
         23    2    1    2    0    0  0.34850710682E+02  0.37563290039E+02 -0.14802755685E+03  0.18432132917E+03  0.97142277143E+02 0.  0.
         23    2    1    2    0    0 -0.59792905735E+02 -0.24420810778E+02 -0.41986941304E+02  0.11826110366E+03  0.89728578636E+02 0.  0.
        -13    1    4    4    0    0 -0.77266144664E+02 -0.94761941095E+01 -0.51542398011E+02  0.93362059525E+02  0.00000000000E+00 0. -1.
         13    1    4    4    0    0  0.17473238928E+02 -0.14944616669E+02  0.95554567079E+01  0.24899044137E+02  0.00000000000E+00 0.  1.
        -13    1    3    3    0    0 -0.30919894119E+02  0.26655550943E+02 -0.38592624963E+02  0.56177833262E+02  0.00000000000E+00 0. -1.
         13    1    3    3    0    0  0.65770604801E+02  0.10907739096E+02 -0.10943493189E+03  0.12814349591E+03  0.00000000000E+00 0.  1.
          1    1    1    2  501    0  0.24942195053E+02 -0.13142479261E+02  0.78229381310E+02  0.83154518550E+02  0.00000000000E+00 0. -1.
<scales pt_clust_5="13000.00000" pt_clust_6="13000.00000" pt_clust_7="13000.00000" pt_clust_8="13000.00000" pt_clust_9="28.19287"></scales>
<clustering>
<clus scale="   28.193">  1  9  2 -1</clus>
<clus scale="   89.729">  5  6 -1 -1</clus>
<clus scale="   97.142">  7  8 -1 -1</clus>
<clus scale="  104.889">  1  5  2 -1</clus>
<clus scale="   28.193">  1  5  2 -1</clus>
</clustering>
</event>
<event>
 9    1  0.1426358E-005  0.2744686E+03  0.7546771E-02  0.1098886E+00
         -1   -1    0    0    0  501 -0.00000000000E+00  0.00000000000E+00  0.40441010834E+03  0.40441010834E+03  0.00000000000E+00 0.  1.
         21   -1    0    0  501  502  0.00000000000E+00 -0.00000000000E+00 -0.28361723136E+03  0.28361723136E+03  0.00000000000E+00 0.  1.
         23    2    1    2    0    0 -0.21781412702E+03  0.38859679367E+02  0.67190472591E+02  0.24802046221E+03  0.89702404976E+02 0.  0.
         23    2    1    2    0    0  0.31412741488E+03 -0.46541547345E+01  0.73984322327E+02  0.33578744593E+03  0.92638193831E+02 0.  0.
        -11    1    3    3    0    0 -0.15994546023E+03  0.66887882667E+02  0.38399415742E+02  0.17756985731E+03  0.00000000000E+00 0.  1.
         11    1    3    3    0    0 -0.57868666783E+02 -0.28028203301E+02  0.28791056849E+02  0.70450604894E+02  0.00000000000E+00 0. -1.
        -13    1    4    4    0    0  0.21060310049E+03  0.21367788312E+02  0.11272177487E+02  0.21198422182E+03  0.00000000000E+00 0.  1.
         13    1    4    4    0    0  0.10352431439E+03 -0.26021943047E+02  0.62712144840E+02  0.12380322411E+03  0.00000000000E+00 0. -1.
         -1    1    1    2    0  502 -0.96313287868E+02 -0.34205524632E+02 -0.20381917935E+02  0.10421943156E+03  0.00000000000E+00 0.  1.
<scales pt_clust_5="13000.00000" pt_clust_6="13000.00000" pt_clust_7="13000.00000" pt_clust_8="13000.00000" pt_clust_9="102.20698"></scales>
<clustering>
<clus scale="   89.702">  5  6 -1 -1</clus>
<clus scale="   92.638">  7  8 -1 -1</clus>
<clus scale="  102.207">  2  9  1 -1</clus>
<clus scale="  273.492">  1  5  2 -1</clus>
<clus scale="  102.207">  2  5  1 -1</clus>
</clustering>
</event>
<event>
 9    1  0.1426358E-005  0.1021994E+03  0.7546771E-02  0.1276080E+00
          2   -1    0    0  502    0 -0.00000000000E+00  0.00000000000E+00  0.26589335748E+03  0.26589335748E+03  0.00000000000E+00 0. -1.
         21   -1    0    0  501  502  0.00000000000E+00 -0.00000000000E+00 -0.12353913467E+03  0.12353913467E+03  0.00000000000E+00 0. -1.
         23    2    1    2    0    0  0.19936271259E+02  0.50733213655E+02  0.17769041566E+03  0.20726893268E+03  0.91734468745E+02 0.  0.
         23    2    1    2    0    0 -0.78472115313E+01 -0.23643687525E+02  0.39034558755E+02  0.10209486092E+03  0.90989346417E+02 0.  0.
        -11    1    4    4    0    0 -0.39417615590E+02 -0.29087501710E+02  0.48249760259E+02  0.68759512358E+02  0.00000000000E+00 0.  1.
         11    1    4    4    0    0  0.31570404059E+02  0.54438141847E+01 -0.92152015045E+01  0.33335348567E+02  0.00000000000E+00 0. -1.
        -13    1    3    3    0    0 -0.34005389872E+02  0.36242105635E+02  0.98961208250E+02  0.11073923198E+03  0.00000000000E+00 0.  1.
         13    1    3    3    0    0  0.53941661131E+02  0.14491108021E+02  0.78729207412E+02  0.96529700699E+02  0.00000000000E+00 0. -1.
          2    1    1    2  501    0 -0.12089059727E+02 -0.27089526130E+02 -0.74370751610E+02  0.80068698541E+02  0.00000000000E+00 0. -1.
<scales pt_clust_5="13000.00000" pt_clust_6="13000.00000" pt_clust_7="13000.00000" pt_clust_8="13000.00000" pt_clust_9="29.66459"></scales>
<clustering>
<clus scale="   29.665">  2  9  1 -1</clus>
<clus scale="   90.989">  5  6 -1 -1</clus>
<clus scale="   91.734">  7  8 -1 -1</clus>
<clus scale="  101.531">  2  5  1 -1</clus>
<clus scale="   29.665">  2  5  1 -1</clus>
</clustering>
</event>
<event>
 9    1  0.1426358E-005  0.1155983E+03  0.7546771E-02  0.1251818E+00
         -1   -1    0    0    0  501 -0.00000000000E+00  0.00000000000E+00  0.14425836003E+03  0.14425836003E+03  0.00000000000E+00 0.  1.
         21   -1    0    0  501  502  0.00000000000E+00 -0.00000000000E+00 -0.16544739743E+03  0.16544739743E+03  0.00000000000E+00 0. -1.
         23    2    1    2    0    0 -0.10604775877E+02  0.75028470504E+02  0.50764096693E+02  0.12884449423E+03  0.91006469678E+02 0.  0.
         23    2    1    2    0    0  0.29716074398E+02 -0.59801524596E+02 -0.54753187585E+01  0.11003470362E+03  0.87283385955E+02 0.  0.
        -11    1    3    3    0    0  0.32250464678E+02  0.53759740791E+02  0.54157394309E+01  0.62924815736E+02  0.00000000000E+00 0.  1.
         11    1    3    3    0    0 -0.42855240554E+02  0.21268729713E+02  0.45348357262E+02  0.65919678496E+02  0.00000000000E+00 0. -1.
        -13    1    4    4    0    0  0.35110179294E+02 -0.36754674437E+02  0.35995785507E+02  0.62284246462E+02  0.00000000000E+00 0.  1.
         13    1    4    4    0    0 -0.53941048959E+01 -0.23046850159E+02 -0.41471104266E+02  0.47750457159E+02  0.00000000000E+00 0. -1.
         -1    1    1    2    0  502 -0.19111298521E+02 -0.15226945909E+02 -0.66477815339E+02  0.70826559602E+02  0.00000000000E+00 0.  1.
<scales pt_clust_5="13000.00000" pt_clust_6="13000.00000" pt_clust_7="13000.00000" pt_clust_8="13000.00000" pt_clust_9="24.43566"></scales>
<clustering>
<clus scale="   24.436">  2  9  1 -1</clus>
<clus scale="   87.283">  7  8 -1 -1</clus>
<clus scale="   91.006">  5  6 -1 -1</clus>
<clus scale="  112.691">  2  7  1 -1</clus>
<clus scale="   24.436">  2  5  1 -1</clus>
</clustering>
</event>
<event>
 9    1  0.1426358E-005  0.1644214E+03  0.7546771E-02  0.1183795E+00
          2   -1    0    0  502    0 -0.00000000000E+00  0.00000000000E+00  0.31977078178E+03  0.31977078178E+03  0.00000000000E+00 0. -1.
         21   -1    0    0  501  502  0.00000000000E+00 -0.00000000000E+00 -0.99500317655E+02  0.99500317655E+02  0.00000000000E+00 0. -1.
         23    2    1    2    0    0 -0.10913929310E+03  0.86089747900E+02  0.13196573397E+03  0.21250154138E+03  0.91755763614E+02 0.  0.
         23    2    1    2    0    0  0.11802119608E+03 -0.64147518392E+02  0.82468366124E+02  0.18238897600E+03  0.91764918754E+02 0.  0.
        -11    1    4    4    0    0  0.70709661169E+02 -0.44183599869E+02  0.98066632478E+02  0.12872105922E+03  0.00000000000E+00 0.  1.
         11    1    4    4    0    0  0.47311534909E+02 -0.19963918523E+02 -0.15598266354E+02  0.53667916780E+02  0.00000000000E+00 0. -1.
        -11    1    3    3    0    0 -0.22516191302E+02  0.14988123793E+02 -0.12390228957E+02  0.29751310882E+02  0.00000000000E+00 0.  1.
         11    1    3    3    0    0 -0.86623101794E+02  0.71101624107E+02  0.14435596293E+03  0.18275023050E+03  0.00000000000E+00 0. -1.
          2    1    1    2  501    0 -0.88819029827E+01 -0.21942229509E+02  0.58363640313E+01  0.24380582058E+02  0.00000000000E+00 0. -1.
<scales pt_clust_5="13000.00000" pt_clust_6="13000.00000" pt_clust_7="13000.00000" pt_clust_8="13000.00000" pt_clust_9="23.67171"></scales>
<clustering>
<clus scale="   23.672">  2  9  1 -1</clus>
<clus scale="   91.756">  7  8 -1 -1</clus>
<clus scale="   91.765">  5  6 -1 -1</clus>
<clus scale="  164.416">  1  7  2 -1</clus>
<clus scale="   23.672">  2  5  1 -1</clus>
</clustering>
</event>
<event>
 9    1  0.1426358E-005  0.1037847E+03  0.7546771E-02  0.1276394E+00
         21   -1    0    0  501  502  0.00000000000E+00  0.00000000000E+00  0.20510456496E+03  0.20510456496E+03  0.00000000000E+00 0. -1.
         -4   -1    0    0    0  501 -0.00000000000E+00 -0.00000000000E+00 -0.72009806121E+02  0.72009806121E+02  0.00000000000E+00 0.  1.
         23    2    1    2    0    0 -0.80739759686E+01  0.18994360322E+02  0.52494488309E+01  0.95954453960E+02  0.93561347306E+02 0.  0.
         23    2    1    2    0    0  0.29308520282E+02 -0.16864911142E+02  0.11114627243E+03  0.15406197842E+03  0.10118391537E+03 0.  0.
        -11    1    4    4    0    0 -0.37981605215E+02 -0.73300788193E+01  0.42350401968E+02  0.57357553444E+02  0.00000000000E+00 0. -1.
         11    1    4    4    0    0  0.67290125496E+02 -0.95348323230E+01  0.68795870465E+02  0.96704424975E+02  0.00000000000E+00 0.  1.
        -13    1    3    3    0    0  0.23453442770E+02  0.12684491257E+02  0.40343341425E+02  0.48358510043E+02  0.00000000000E+00 0. -1.
         13    1    3    3    0    0 -0.31527418738E+02  0.63098690656E+01 -0.35093892594E+02  0.47595943917E+02  0.00000000000E+00 0.  1.
         -4    1    1    2    0  502 -0.21234544313E+02 -0.21294491799E+01  0.16699037576E+02  0.27097938703E+02  0.00000000000E+00 0.  1.
<scales pt_clust_5="13000.00000" pt_clust_6="13000.00000" pt_clust_7="13000.00000" pt_clust_8="13000.00000" pt_clust_9="21.34105"></scales>
<clustering>
<clus scale="   21.341">  1  9  2 -1</clus>
<clus scale="   93.561">  7  8 -1 -1</clus>
<clus scale="   96.368">  2  7  1 -1</clus>
<clus scale="  101.184">  5  6 -1 -1</clus>
<clus scale="   21.341">  1  5  2 -1</clus>
</clustering>
</event>
<event>
 9    1  0.1426358E-005  0.1032227E+03  0.7546771E-02  0.1279696E+00
         21   -1    0    0  501  502  0.00000000000E+00  0.00000000000E+00  0.95580221106E+02  0.95580221106E+02  0.00000000000E+00 0.  1.
         -1   -1    0    0    0  501 -0.00000000000E+00 -0.00000000000E+00 -0.45231869959E+03  0.45231869959E+03  0.00000000000E+00 0.  1.
         23    2    1    2    0    0  0.44172634591E+02  0.18505120051E+02 -0.22087030073E+03  0.24382416460E+03  0.91503400931E+02 0.  0.
         23    2    1    2    0    0 -0.46164762422E+02  0.63438995151E+02 -0.17960917348E+03  0.21116576138E+03  0.78586463130E+02 0.  0.
        -11    1    4    4    0    0  0.20034736252E+02  0.23530461955E+02 -0.74819425894E+02  0.80950724442E+02  0.00000000000E+00 0.  1.
         11    1    4    4    0    0 -0.66199498675E+02  0.39908533195E+02 -0.10478974759E+03  0.13021503694E+03  0.00000000000E+00 0. -1.
        -13    1    3    3    0    0  0.67204340715E+02  0.33609968588E+02 -0.14943311499E+03  0.16726120068E+03  0.00000000000E+00 0.  1.
         13    1    3    3    0    0 -0.23031706124E+02 -0.15104848537E+02 -0.71437185748E+02  0.76562963918E+02  0.00000000000E+00 0. -1.
         -1    1    1    2    0  502  0.19921278314E+01 -0.81944115201E+02  0.43740995735E+02  0.92908994706E+02  0.00000000000E+00 0.  1.
<scales pt_clust_5="13000.00000" pt_clust_6="13000.00000" pt_clust_7="13000.00000" pt_clust_8="13000.00000" pt_clust_9="81.96833"></scales>
<clustering>
<clus scale="   78.586">  5  6 -1 -1</clus>
<clus scale="   81.968">  1  9  2 -1</clus>
<clus scale="   91.503">  7  8 -1 -1</clus>
<clus scale="   91.967">  1  5  2 -1</clus>
<clus scale="   81.968">  1  5  2 -1</clus>
</clustering>
</event>
<event>
 9    1  0.1426358E-005  0.1102831E+03  0.7546771E-02  0.1260821E+00
          1   -1    0    0  502    0 -0.00000000000E+00  0.00000000000E+00  0.61560347169E+03  0.61560347169E+03  0.00000000000E+00 0. -1.
         21   -1    0    0  501  502  0.00000000000E+00 -0.00000000000E+00 -0.24471025215E+02  0.24471025215E+02  0.00000000000E+00 0.  1.
         23    2    1    2    0    0 -0.62447609729E+02  0.11470018917E+02  0.29340610948E+03  0.31318685130E+03  0.89261377154E+02 0.  0.
         23    2    1    2    0    0  0.54125786846E+02 -0.29964994399E+02  0.27576196333E+03  0.29699198431E+03  0.91280209414E+02 0.  0.
        -11    1    4    4    0    0  0.27579899742E+02  0.14448690083E+02  0.22287543743E+02  0.38290339787E+02  0.00000000000E+00 0.  1.
         11    1    4    4    0    0  0.26545887104E+02 -0.44413684481E+02  0.25347441959E+03  0.25870164452E+03  0.00000000000E+00 0. -1.
        -11    1    3    3    0    0 -0.80215227361E+02  0.24595776837E+02  0.19416775323E+03  0.21151962399E+03  0.00000000000E+00 0.  1.
         11    1    3    3    0    0  0.17767617632E+02 -0.13125757920E+02  0.99238356244E+02  0.10166722730E+03  0.00000000000E+00 0. -1.
          1    1    1    2  501    0  0.83218228825E+01  0.18494975482E+02  0.21964373664E+02  0.29895661301E+02  0.00000000000E+00 0. -1.
<scales pt_clust_5="13000.00000" pt_clust_6="13000.00000" pt_clust_7="13000.00000" pt_clust_8="13000.00000" pt_clust_9="20.28095"></scales>
<clustering>
<clus scale="   20.281">  2  9  1 -1</clus>
<clus scale="   89.261">  7  8 -1 -1</clus>
<clus scale="   91.280">  5  6 -1 -1</clus>
<clus scale="  108.618">  1  7  2 -1</clus>
<clus scale="   20.281">  2  5  1 -1</clus>
</clustering>
</event>
<event>
 9    1  0.1426358E-005  0.1187632E+03  0.7546771E-02  0.1245445E+00
         21   -1    0    0  501  502  0.00000000000E+00  0.00000000000E+00  0.51729562366E+02  0.51729562366E+02  0.00000000000E+00 0.  1.
         -1   -1    0    0    0  501 -0.00000000000E+00 -0.00000000000E+00 -0.42990138804E+03  0.42990138804E+03  0.00000000000E+00 0.  1.
         23    2    1    2    0    0  0.76814656438E+02 -0.31741823221E+02 -0.28155493121E+03  0.30742043623E+03  0.91247523486E+02 0.  0.
         23    2    1    2    0    0 -0.54922479064E+02  0.15116463020E+02 -0.45324621024E+02  0.11601629326E+03  0.90335335673E+02 0.  0.
        -11    1    3    3    0    0  0.85932989231E+02  0.28070554871E+01 -0.22062055382E+03  0.23678215086E+03  0.00000000000E+00 0.  1.
         11    1    3    3    0    0 -0.91183327929E+01 -0.34548878708E+02 -0.60934377386E+02  0.70638285372E+02  0.00000000000E+00 0. -1.
        -13    1    4    4    0    0 -0.43194437077E+02 -0.30270520319E+02 -0.29543240162E+01  0.52827945494E+02  0.00000000000E+00 0. -1.
         13    1    4    4    0    0 -0.11728041988E+02  0.45386983338E+02 -0.42370297008E+02  0.63188347771E+02  0.00000000000E+00 0.  1.
         -1    1    1    2    0  502 -0.21892177373E+02  0.16625360201E+02 -0.51292273441E+02  0.58194220904E+02  0.00000000000E+00 0.  1.
<scales pt_clust_5="13000.00000" pt_clust_6="13000.00000" pt_clust_7="13000.00000" pt_clust_8="13000.00000" pt_clust_9="27.48947"></scales>
<clustering>
<clus scale="   27.489">  1  9  2 -1</clus>
<clus scale="   90.335">  7  8 -1 -1</clus>
<clus scale="   91.248">  5  6 -1 -1</clus>
<clus scale="  118.064">  1  7  2 -1</clus>
<clus scale="   27.489">  1  5  2 -1</clus>
</clustering>
</event>
<event>
 9    1  0.1426358E-005  0.1488539E+03  0.7546771E-02  0.1203522E+00
         21   -1    0    0  501  502  0.00000000000E+00  0.00000000000E+00  0.32890070405E+03  0.32890070405E+03  0.00000000000E+00 0. -1.
          3   -1    0    0  502    0 -0.00000000000E+00 -0.00000000000E+00 -0.10735714396E+03  0.10735714396E+03  0.00000000000E+00 0. -1.
         23    2    1    2    0    0 -0.53273827503E+02  0.10010290072E+03  0.20398886104E+02  0.14308582933E+03  0.84845439306E+02 0.  0.
         23    2    1    2    0    0  0.73530828877E+02 -0.10046886468E+03  0.21729702174E+03  0.26726104857E+03  0.93325756685E+02 0.  0.
        -11    1    4    4    0    0  0.87145056334E+02 -0.46232263664E+02  0.12353769346E+03  0.15809251960E+03  0.00000000000E+00 0. -1.
         11    1    4    4    0    0 -0.13614227457E+02 -0.54236601013E+02  0.93759328277E+02  0.10916852897E+03  0.00000000000E+00 0.  1.
        -11    1    3    3    0    0  0.13349376488E+02  0.63532523179E+02  0.23019373123E+01  0.64960651702E+02  0.00000000000E+00 0. -1.
         11    1    3    3    0    0 -0.66623203992E+02  0.36570377540E+02  0.18096948792E+02  0.78125177626E+02  0.00000000000E+00 0.  1.
          3    1    1    2  501    0 -0.20257001373E+02  0.36596395747E+00 -0.16152347752E+02  0.25910970112E+02  0.00000000000E+00 0. -1.
<scales pt_clust_5="13000.00000" pt_clust_6="13000.00000" pt_clust_7="13000.00000" pt_clust_8="13000.00000" pt_clust_9="20.26032"></scales>
<clustering>
<clus scale="   20.260">  1  9  2 -1</clus>
<clus scale="   84.845">  7  8 -1 -1</clus>
<clus scale="   93.326">  5  6 -1 -1</clus>
<clus scale="  143.689">  2  7  1 -1</clus>
<clus scale="   20.260">  1  5  2 -1</clus>
</clustering>
</event>
<event>
 9    1  0.1426358E-005  0.9230696E+02  0.7546771E-02  0.1297828E+00
         21   -1    0    0  501  502  0.00000000000E+00  0.00000000000E+00  0.63007634060E+02  0.63007634060E+02  0.00000000000E+00 0. -1.
         -3   -1    0    0    0  501 -0.00000000000E+00 -0.00000000000E+00 -0.29750002996E+03  0.29750002996E+03  0.00000000000E+00 0.  1.
         23    2    1    2    0    0  0.17613283452E+01  0.72777062018E+01 -0.17697436233E+03  0.19916777435E+03  0.91059376965E+02 0.  0.
         23    2    1    2    0    0 -0.28122817756E+02  0.32850955862E+02 -0.48368114964E+02  0.11246291499E+03  0.91860516674E+02 0.  0.
        -11    1    3    3    0    0  0.35352282409E+02  0.72484299535E+01 -0.15472195080E+03  0.15887481131E+03  0.00000000000E+00 0.  1.
         11    1    3    3    0    0 -0.33590954064E+02  0.29276248263E-01 -0.22252411527E+02  0.40292963043E+02  0.00000000000E+00 0. -1.
        -13    1    4    4    0    0 -0.50160980205E+02  0.40188618241E+02 -0.65250255747E+01  0.64605146312E+02  0.00000000000E+00 0. -1.
         13    1    4    4    0    0  0.22038162449E+02 -0.73376623788E+01 -0.41843089390E+02  0.47857768680E+02  0.00000000000E+00 0.  1.
         -3    1    1    2    0  502  0.26361489411E+02 -0.40128662064E+02 -0.91499186054E+01  0.48876974676E+02  0.00000000000E+00 0.  1.
<scales pt_clust_5="13000.00000" pt_clust_6="13000.00000" pt_clust_7="13000.00000" pt_clust_8="13000.00000" pt_clust_9="48.01289"></scales>
<clustering>
<clus scale="   48.013">  1  9  2 -1</clus>
<clus scale="   91.059">  5  6 -1 -1</clus>
<clus scale="   91.510">  2  5  1 -1</clus>
<clus scale="   91.861">  7  8 -1 -1</clus>
<clus scale="   48.013">  1  5  2 -1</clus>
</clustering>
</event>
<event>
 9    1  0.1426358E-005  0.1393994E+03  0.7546771E-02  0.1215533E+00
         21   -1    0    0  501  502  0.00000000000E+00  0.00000000000E+00  0.96689103220E+02  0.96689103220E+02  0.00000000000E+00 0.  1.
          1   -1    0    0  502    0 -0.00000000000E+00 -0.00000000000E+00 -0.32673300940E+03  0.32673300940E+03  0.00000000000E+00 0. -1.
         23    2    1    2    0    0 -0.20691259315E+02  0.13249409676E+03 -0.16790125650E+03  0.23303224154E+03  0.90168618559E+02 0.  0.
         23    2    1    2    0    0  0.42448386570E-01 -0.78568191877E+02 -0.66100103057E+02  0.13251035788E+03  0.83766393888E+02 0.  0.
        -11    1    4    4    0    0  0.33455576670E+02 -0.33897206957E+02 -0.21877474378E+01  0.47676854852E+02  0.00000000000E+00 0.  1.
         11    1    4    4    0    0 -0.33413128283E+02 -0.44670984920E+02 -0.63912355619E+02  0.84833503029E+02  0.00000000000E+00 0. -1.
        -13    1    3    3    0    0  0.20916366194E+02  0.93124653833E+02 -0.65694211072E+02  0.11586813580E+03  0.00000000000E+00 0.  1.
         13    1    3    3    0    0 -0.41607625509E+02  0.39369442928E+02 -0.10220704543E+03  0.11716410574E+03  0.00000000000E+00 0. -1.
          1    1    1    2  501    0  0.20648810928E+02 -0.53925904885E+02  0.39574533842E+01  0.57879513195E+02  0.00000000000E+00 0. -1.
<scales pt_clust_5="13000.00000" pt_clust_6="13000.00000" pt_clust_7="13000.00000" pt_clust_8="13000.00000" pt_clust_9="57.74406"></scales>
<clustering>
<clus scale="   57.744">  1  9  2 -1</clus>
<clus scale="   83.766">  5  6 -1 -1</clus>
<clus scale="   90.169">  7  8 -1 -1</clus>
<clus scale="  135.346">  1  5  2 -1</clus>
<clus scale="   57.744">  1  5  2 -1</clus>
</clustering>
</event>
<event>
 9    1  0.1426358E-005  0.1042015E+03  0.7546771E-02  0.1272083E+00
         21   -1    0    0  501  502  0.00000000000E+00  0.00000000000E+00  0.67798748696E+03  0.67798748696E+03  0.00000000000E+00 0. -1.
         -1   -1    0    0    0  501 -0.00000000000E+00 -0.00000000000E+00 -0.75392884904E+02  0.75392884904E+02  0.00000000000E+00 0.  1.
         23    2    1    2    0    0  0.50623519949E+02  0.38452008297E+02  0.11280270220E+01  0.11079905553E+03  0.90740622365E+02 0.  0.
         23    2    1    2    0    0  0.32484489971E+02 -0.49762010258E+02  0.15788467358E+03  0.19113944770E+03  0.89862219884E+02 0.  0.
        -13    1    4    4    0    0  0.49861779612E+02 -0.37208972464E+02  0.15788661909E+03  0.16970235469E+03  0.00000000000E+00 0. -1.
         13    1    4    4    0    0 -0.17377289641E+02 -0.12553037794E+02 -0.19455121999E-02  0.21437093015E+02  0.00000000000E+00 0.  1.
        -13    1    3    3    0    0  0.14644833554E+02 -0.29903629019E+02  0.37558525114E+01  0.33508276685E+02  0.00000000000E+00 0. -1.
         13    1    3    3    0    0  0.35978686395E+02  0.68355637316E+02 -0.26278254894E+01  0.77290778844E+02  0.00000000000E+00 0.  1.
         -1    1    1    2    0  502 -0.83108009920E+02  0.11310001961E+02  0.44358190146E+03  0.45144186863E+03  0.00000000000E+00 0.  1.
<scales pt_clust_5="13000.00000" pt_clust_6="13000.00000" pt_clust_7="13000.00000" pt_clust_8="13000.00000" pt_clust_9="83.87406"></scales>
<clustering>
<clus scale="   83.874">  1  9  2 -1</clus>
<clus scale="   89.862">  5  6 -1 -1</clus>
<clus scale="   90.741">  7  8 -1 -1</clus>
<clus scale="  103.438">  1  5  2 -1</clus>
<clus scale="   83.874">  1  5  2 -1</clus>
</clustering>
</event>
<event>
 9    1  0.1426358E-005  0.1345107E+03  0.7546771E-02  0.1221161E+00
         21   -1    0    0  501  502  0.00000000000E+00  0.00000000000E+00  0.52555937580E+03  0.52555937580E+03  0.00000000000E+00 0. -1.
          1   -1    0    0  502    0 -0.00000000000E+00 -0.00000000000E+00 -0.16494503747E+03  0.16494503747E+03  0.00000000000E+00 0. -1.
         23    2    1    2    0    0 -0.54802310908E+02  0.10040359738E+03 -0.93141158815E+02  0.17311567763E+03  0.90606769761E+02 0.  0.
         23    2    1    2    0    0 -0.48070700203E+02 -0.60191460474E+02  0.13703663686E+03  0.18196257562E+03  0.91638064974E+02 0.  0.
        -13    1    4    4    0    0 -0.61461519938E+02 -0.18278918649E+02  0.40419254074E+02  0.75798109475E+02  0.00000000000E+00 0. -1.
         13    1    4    4    0    0  0.13390819735E+02 -0.41912541824E+02  0.96617382785E+02  0.10616446614E+03  0.00000000000E+00 0.  1.
        -13    1    3    3    0    0  0.23194843856E+02  0.14470070684E+02 -0.59995905902E+01  0.27988905201E+02  0.00000000000E+00 0.  1.
         13    1    3    3    0    0 -0.77997154764E+02  0.85933526698E+02 -0.87141568225E+02  0.14512677243E+03  0.00000000000E+00 0. -1.
          1    1    1    2  501    0  0.10287301111E+03 -0.40212136908E+02  0.31671886029E+03  0.33542616003E+03  0.00000000000E+00 0. -1.
<scales pt_clust_5="13000.00000" pt_clust_6="13000.00000" pt_clust_7="13000.00000" pt_clust_8="13000.00000" pt_clust_9="110.45303"></scales>
<clustering>
<clus scale="   90.607">  7  8 -1 -1</clus>
<clus scale="   91.638">  5  6 -1 -1</clus>
<clus scale="  110.453">  1  9  2 -1</clus>
<clus scale="  133.810">  2  7  1 -1</clus>
<clus scale="  110.453">  1  5  2 -1</clus>
</clustering>
</event>
<event>
 9    1  0.1426358E-005  0.1045859E+03  0.7546771E-02  0.1271947E+00
          1   -1    0    0  502    0 -0.00000000000E+00  0.00000000000E+00  0.58054869633E+03  0.58054869633E+03  0.00000000000E+00 0. -1.
         21   -1    0    0  501  502  0.00000000000E+00 -0.00000000000E+00 -0.56265271660E+02  0.56265271660E+02  0.00000000000E+00 0. -1.
         23    2    1    2    0    0 -0.49737641361E+02 -0.47031821978E+01  0.44939152757E+03  0.46153787912E+03  0.92566278525E+02 0.  0.
         23    2    1    2    0    0  0.40634126464E+02  0.26436698807E+02  0.98345091696E+02  0.14203045660E+03  0.90282125941E+02 0.  0.
        -13    1    3    3    0    0 -0.72182246258E+02 -0.18735282469E+02  0.38043918148E+03  0.38767932404E+03  0.00000000000E+00 0. -1.
         13    1    3    3    0    0  0.22444604897E+02  0.14032100271E+02  0.68952346098E+02  0.73858555086E+02  0.00000000000E+00 0.  1.
        -13    1    4    4    0    0 -0.14809008817E+02 -0.21457784212E+02  0.11743154717E+02  0.28594491220E+02  0.00000000000E+00 0.  1.
         13    1    4    4    0    0  0.55443135281E+02  0.47894483019E+02  0.86601936979E+02  0.11343596538E+03  0.00000000000E+00 0. -1.
          1    1    1    2  501    0  0.91035148967E+01 -0.21733516609E+02 -0.23453194601E+02  0.33245632265E+02  0.00000000000E+00 0. -1.
<scales pt_clust_5="13000.00000" pt_clust_6="13000.00000" pt_clust_7="13000.00000" pt_clust_8="13000.00000" pt_clust_9="23.56310"></scales>
<clustering>
<clus scale="   23.563">  2  9  1 -1</clus>
<clus scale="   90.282">  7  8 -1 -1</clus>
<clus scale="   92.566">  5  6 -1 -1</clus>
<clus scale="  102.570">  2  7  1 -1</clus>
<clus scale="   23.563">  2  5  1 -1</clus>
</clustering>
</event>
<event>
 9    1  0.1426358E-005  0.9373463E+02  0.7546771E-02  0.1295244E+00
         21   -1    0    0  501  502  0.00000000000E+00  0.00000000000E+00  0.22254419065E+03  0.22254419065E+03  0.00000000000E+00 0.  1.
         -3   -1    0    0    0  501 -0.00000000000E+00 -0.00000000000E+00 -0.13568450702E+03  0.13568450702E+03  0.00000000000E+00 0.  1.
         23    2    1    2    0    0 -0.70380819872E+01  0.18023315972E+02 -0.77597132449E+02  0.12183043397E+03  0.91907372718E+02 0.  0.
         23    2    1    2    0    0  0.53044225571E+02  0.23039075269E+02  0.89676428852E+02  0.13947153088E+03  0.89810674086E+02 0.  0.
        -11    1    4    4    0    0 -0.21156459394E+02 -0.60416283285E+01  0.38271029308E+01  0.22332571813E+02  0.00000000000E+00 0. -1.
         11    1    4    4    0    0  0.74200684965E+02  0.29080703597E+02  0.85849325921E+02  0.11713895907E+03  0.00000000000E+00 0.  1.
        -11    1    3    3    0    0  0.24372203961E+02  0.40617431976E+02 -0.66374117919E+02  0.81543262357E+02  0.00000000000E+00 0. -1.
         11    1    3    3    0    0 -0.31410285948E+02 -0.22594116004E+02 -0.11223014530E+02  0.40287171612E+02  0.00000000000E+00 0.  1.
         -3    1    1    2    0  502 -0.46006143584E+02 -0.41062391241E+02  0.74780387229E+02  0.96926732824E+02  0.00000000000E+00 0.  1.
<scales pt_clust_5="13000.00000" pt_clust_6="13000.00000" pt_clust_7="13000.00000" pt_clust_8="13000.00000" pt_clust_9="61.66592"></scales>
<clustering>
<clus scale="   61.666">  1  9  2 -1</clus>
<clus scale="   89.811">  5  6 -1 -1</clus>
<clus scale="   91.680">  1  5  2 -1</clus>
<clus scale="   91.907">  7  8 -1 -1</clus>
<clus scale="   61.666">  1  5  2 -1</clus>
</clustering>
</event>
<event>
 9    1  0.1426358E-005  0.2184082E+03  0.7546771E-02  0.1135209E+00
          2   -1    0    0  502    0 -0.00000000000E+00  0.00000000000E+00  0.20180162200E+04  0.20180162200E+04  0.00000000000E+00 0. -1.
         21   -1    0    0  501  502  0.00000000000E+00 -0.00000000000E+00 -0.38217047860E+02  0.38217047860E+02  0.00000000000E+00 0. -1.
         23    2    1    2    0    0 -0.17487930715E+03 -0.99057176980E+02  0.12611277576E+04  0.12801839492E+04  0.89624921665E+02 0.  0.
         23    2    1    2    0    0  0.19445213490E+03  0.43297955919E+02  0.64727633235E+03  0.68337006483E+03  0.91332630173E+02 0.  0.
        -11    1    3    3    0    0 -0.82738239460E+02 -0.97457686961E+02  0.71733527382E+03  0.72863812148E+03  0.00000000000E+00 0.  1.
         11    1    3    3    0    0 -0.92141067687E+02 -0.15994900187E+01  0.54379248376E+03  0.55154582775E+03  0.00000000000E+00 0. -1.
        -13    1    4    4    0    0  0.11826586815E+03 -0.17862678812E+02  0.39976899011E+03  0.41727824807E+03  0.00000000000E+00 0. -1.
         13    1    4    4    0    0  0.76186266749E+02  0.61160634732E+02  0.24750734224E+03  0.26609181676E+03  0.00000000000E+00 0.  1.
          2    1    1    2  501    0 -0.19572827751E+02  0.55759221061E+02  0.71395082237E+02  0.92679253812E+02  0.00000000000E+00 0. -1.
<scales pt_clust_5="13000.00000" pt_clust_6="13000.00000" pt_clust_7="13000.00000" pt_clust_8="13000.00000" pt_clust_9="59.09472"></scales>
<clustering>
<clus scale="   59.095">  2  9  1 -1</clus>
<clus scale="   89.625">  5  6 -1 -1</clus>
<clus scale="   91.333">  7  8 -1 -1</clus>
<clus scale="  217.700">  1  5  2 -1</clus>
<clus scale="   59.095">  2  5  1 -1</clus>
</clustering>
</event>
<event>
 9    1  0.1426358E-005  0.1141261E+03  0.7546771E-02  0.1257915E+00
         -3   -1    0    0    0  501 -0.00000000000E+00  0.00000000000E+00  0.18157412052E+03  0.18157412052E+03  0.00000000000E+00 0.  1.
         21   -1    0    0  501  502  0.00000000000E+00 -0.00000000000E+00 -0.15351171347E+03  0.15351171347E+03  0.00000000000E+00 0. -1.
         23    2    1    2    0    0 -0.28699022590E+02 -0.32368475101E+02  0.10574463327E+03  0.14621358844E+03  0.91242171722E+02 0.  0.
         23    2    1    2    0    0  0.41219494836E+02  0.70945210345E+02 -0.60700679242E+02  0.14490294188E+03  0.10285922652E+03 0.  0.
        -11    1    3    3    0    0 -0.11631828529E+02  0.31038963478E+02  0.21951205722E+02  0.39756409815E+02  0.00000000000E+00 0. -1.
         11    1    3    3    0    0 -0.17067194061E+02 -0.63407438579E+02  0.83793427545E+02  0.10645717862E+03  0.00000000000E+00 0.  1.
        -13    1    4    4    0    0  0.68730753320E+02  0.73769500635E+02 -0.59813808965E+02  0.11723287687E+03  0.00000000000E+00 0.  1.
         13    1    4    4    0    0 -0.27511258484E+02 -0.28242902891E+01 -0.88687027734E+00  0.27670065014E+02  0.00000000000E+00 0. -1.
         -3    1    1    2    0  502 -0.12520472246E+02 -0.38576735244E+02 -0.16981546983E+02  0.43969303671E+02  0.00000000000E+00 0.  1.
<scales pt_clust_5="13000.00000" pt_clust_6="13000.00000" pt_clust_7="13000.00000" pt_clust_8="13000.00000" pt_clust_9="40.55770"></scales>
<clustering>
<clus scale="   40.558">  2  9  1 -1</clus>
<clus scale="   91.242">  5  6 -1 -1</clus>
<clus scale="  102.859">  7  8 -1 -1</clus>
<clus scale="  103.778">  1  5  2 -1</clus>
<clus scale="   40.558">  2  5  1 -1</clus>
</clustering>
</event>
<event>
 9    1  0.1426358E-005  0.1061002E+03  0.7546771E-02  0.1269070E+00
          2   -1    0    0  502    0 -0.00000000000E+00  0.00000000000E+00  0.65780321841E+03  0.65780321841E+03  0.00000000000E+00 0. -1.
         21   -1    0    0  501  502  0.00000000000E+00 -0.00000000000E+00 -0.54160753599E+02  0.54160753599E+02  0.00000000000E+00 0.  1.
         23    2    1    2    0    0  0.33170825300E+02  0.24976530090E+02  0.46588137268E+03  0.47706344319E+03  0.93914560738E+02 0.  0.
         23    2    1    2    0    0 -0.61006924061E+02 -0.74512752985E+02  0.10543927701E+03  0.16952939217E+03  0.91371650600E+02 0.  0.
        -13    1    4    4    0    0 -0.43224394778E+02 -0.28270403116E+02  0.10821451919E+03  0.11990807379E+03  0.00000000000E+00 0. -1.
         13    1    4    4    0    0 -0.17782529283E+02 -0.46242349869E+02 -0.27752421803E+01  0.49621318385E+02  0.00000000000E+00 0.  1.
        -13    1    3    3    0    0 -0.27789524305E+02  0.24729263909E+02  0.11329028192E+03  0.11924127697E+03  0.00000000000E+00 0.  1.
         13    1    3    3    0    0  0.60960349604E+02  0.24726618127E+00  0.35259109075E+03  0.35782216623E+03  0.00000000000E+00 0. -1.
          2    1    1    2  501    0  0.27836098761E+02  0.49536222895E+02  0.32321815128E+02  0.65371136644E+02  0.00000000000E+00 0. -1.
<scales pt_clust_5="13000.00000" pt_clust_6="13000.00000" pt_clust_7="13000.00000" pt_clust_8="13000.00000" pt_clust_9="56.82153"></scales>
<clustering>
<clus scale="   56.822">  2  9  1 -1</clus>
<clus scale="   91.372">  5  6 -1 -1</clus>
<clus scale="   93.915">  7  8 -1 -1</clus>
<clus scale="  103.856">  2  5  1 -1</clus>
<clus scale="   56.822">  2  5  1 -1</clus>
</clustering>
</event>
<event>
 9    1  0.1426358E-005  0.1045759E+03  0.7546771E-02  0.1274472E+00
         21   -1    0    0  501  502  0.00000000000E+00  0.00000000000E+00  0.11400483180E+03  0.11400483180E+03  0.00000000000E+00 0.  1.
         -1   -1    0    0    0  501 -0.00000000000E+00 -0.00000000000E+00 -0.28966135727E+03  0.28966135727E+03  0.00000000000E+00 0.  1.
         23    2    1    2    0    0  0.10097445259E+01  0.39833366105E+02 -0.21748632840E+03  0.24182267477E+03  0.97929496847E+02 0.  0.
         23    2    1    2    0    0  0.13909270220E+02 -0.26254316263E+02 -0.19476273909E+02  0.97303583627E+02  0.90586451640E+02 0.  0.
        -11    1    4    4    0    0  0.34287348165E+02 -0.32076973880E+02 -0.44376452078E+02  0.64605139087E+02  0.00000000000E+00 0.  1.
         11    1    4    4    0    0 -0.20378077945E+02  0.58226576166E+01  0.24900178169E+02  0.32698444539E+02  0.00000000000E+00 0. -1.
        -13    1    3    3    0    0  0.28779299059E+02  0.62226841302E+02 -0.16132876357E+03  0.17529232096E+03  0.00000000000E+00 0.  1.
         13    1    3    3    0    0 -0.27769554533E+02 -0.22393475197E+02 -0.56157564825E+02  0.66530353805E+02  0.00000000000E+00 0. -1.
         -1    1    1    2    0  502 -0.14919014746E+02 -0.13579049842E+02  0.61306076837E+02  0.64539930684E+02  0.00000000000E+00 0.  1.
<scales pt_clust_5="13000.00000" pt_clust_6="13000.00000" pt_clust_7="13000.00000" pt_clust_8="13000.00000" pt_clust_9="20.17344"></scales>
<clustering>
<clus scale="   20.173">  1  9  2 -1</clus>
<clus scale="   90.586">  5  6 -1 -1</clus>
<clus scale="   97.734">  1  5  2 -1</clus>
<clus scale="   97.929">  7  8 -1 -1</clus>
<clus scale="   20.173">  1  5  2 -1</clus>
</clustering>
</event>
<event>
 9    1  0.1426358E-005  0.1381694E+03  0.7546771E-02  0.1229833E+00
          2   -1    0    0  502    0 -0.00000000000E+00  0.00000000000E+00  0.35951698349E+03  0.35951698349E+03  0.00000000000E+00 0. -1.
         21   -1    0    0  501  502  0.00000000000E+00 -0.00000000000E+00 -0.53365536691E+03  0.53365536691E+03  0.00000000000E+00 0. -1.
         23    2    1    2    0    0  0.44563835833E+02 -0.29962945782E+02  0.31887993025E+03  0.33512673971E+03  0.87987545506E+02 0.  0.
         23    2    1    2    0    0  0.20708623924E+02  0.11138454752E+03 -0.20100268055E+03  0.24794385124E+03  0.90767346827E+02 0.  0.
        -11    1    3    3    0    0  0.51047380420E+02  0.18336965969E+02  0.16036044796E+03  0.16928541768E+03  0.00000000000E+00 0. -1.
         11    1    3    3    0    0 -0.64835445873E+01 -0.48299911751E+02  0.15851948229E+03  0.16584132203E+03  0.00000000000E+00 0.  1.
        -13    1    4    4    0    0  0.56347219831E+02  0.65613495180E+02 -0.10844387429E+03  0.13870909777E+03  0.00000000000E+00 0.  1.
         13    1    4    4    0    0 -0.35638595907E+02  0.45771052335E+02 -0.92558806266E+02  0.10923475348E+03  0.00000000000E+00 0. -1.
          2    1    1    2  501    0 -0.65272459756E+02 -0.81421601733E+02 -0.29201563311E+03  0.31010175945E+03  0.00000000000E+00 0. -1.
<scales pt_clust_5="13000.00000" pt_clust_6="13000.00000" pt_clust_7="13000.00000" pt_clust_8="13000.00000" pt_clust_9="104.17327"></scales>
<clustering>
<clus scale="   87.988">  5  6 -1 -1</clus>
<clus scale="   90.767">  7  8 -1 -1</clus>
<clus scale="  103.080">  1  5  2 -1</clus>
<clus scale="  104.173">  2  9  1 -1</clus>
<clus scale="  104.173">  2  5  1 -1</clus>
</clustering>
</event>
<event>
 9    1  0.1426358E-005  0.1115036E+03  0.7546771E-02  0.1258067E+00
          1   -1    0    0  502    0 -0.00000000000E+00  0.00000000000E+00  0.15856021980E+03  0.15856021980E+03  0.00000000000E+00 0. -1.
         21   -1    0    0  501  502  0.00000000000E+00 -0.00000000000E+00 -0.20217007607E+03  0.20217007607E+03  0.00000000000E+00 0.  1.
         23    2    1    2    0    0 -0.40965603562E+02  0.20741637311E+01  0.26217430533E+02  0.10288963584E+03  0.90644584340E+02 0.  0.
         23    2    1    2    0    0  0.12234496321E+03  0.38011001157E+02 -0.39911060001E+02  0.16231892822E+03  0.91331350131E+02 0.  0.
        -13    1    4    4    0    0  0.96971697309E+02  0.26194388601E+02 -0.69067841744E+02  0.12190169333E+03  0.00000000000E+00 0.  1.
         13    1    4    4    0    0  0.25373265900E+02  0.11816612556E+02  0.29156781743E+02  0.40417234893E+02  0.00000000000E+00 0. -1.
        -13    1    3    3    0    0 -0.46868985841E+02 -0.36238493513E+02  0.24429046770E+02  0.64083606109E+02  0.00000000000E+00 0. -1.
         13    1    3    3    0    0  0.59033822790E+01  0.38312657244E+02  0.17883837630E+01  0.38806029736E+02  0.00000000000E+00 0.  1.
          1    1    1    2  501    0 -0.81379359647E+02 -0.40085164888E+02 -0.29916226810E+02  0.95521731806E+02  0.00000000000E+00 0. -1.
<scales pt_clust_5="13000.00000" pt_clust_6="13000.00000" pt_clust_7="13000.00000" pt_clust_8="13000.00000" pt_clust_9="90.71615"></scales>
<clustering>
<clus scale="   90.645">  7  8 -1 -1</clus>
<clus scale="   90.716">  2  9  1 -1</clus>
<clus scale="   91.331">  5  6 -1 -1</clus>
<clus scale="  110.942">  1  7  2 -1</clus>
<clus scale="   90.716">  2  5  1 -1</clus>
</clustering>
</event>
<event>
 9    1  0.1426358E-005  0.9712282E+02  0.7546771E-02  0.1287553E+00
         -3   -1    0    0    0  501 -0.00000000000E+00  0.00000000000E+00  0.27341185788E+03  0.27341185788E+03  0.00000000000E+00 0.  1.
         21   -1    0    0  501  502  0.00000000000E+00 -0.00000000000E+00 -0.12855288573E+03  0.12855288573E+03  0.00000000000E+00 0. -1.
         23    2    1    2    0    0 -0.44244859100E+02  0.67182650201E+01  0.18544078576E+03  0.21206287503E+03  0.92626320778E+02 0.  0.
         23    2    1    2    0    0 -0.78529512626E+01  0.15879021572E+02  0.32069154998E+02  0.97690250855E+02  0.90560158128E+02 0.  0.
        -11    1    3    3    0    0 -0.69011545648E+02  0.14828615830E+02  0.16316615549E+03  0.17777985144E+03  0.00000000000E+00 0.  1.
         11    1    3    3    0    0  0.24766686548E+02 -0.81103508098E+01  0.22274630267E+02  0.34283023588E+02  0.00000000000E+00 0. -1.
        -13    1    4    4    0    0  0.34917058234E+01 -0.29612330450E+02  0.40256068994E+02  0.50096239531E+02  0.00000000000E+00 0.  1.
         13    1    4    4    0    0 -0.11344657086E+02  0.45491352022E+02 -0.81869139961E+01  0.47594011324E+02  0.00000000000E+00 0. -1.
         -3    1    1    2    0  502  0.52097810362E+02 -0.22597286592E+02 -0.72650968599E+02  0.92211617729E+02  0.00000000000E+00 0.  1.
<scales pt_clust_5="13000.00000" pt_clust_6="13000.00000" pt_clust_7="13000.00000" pt_clust_8="13000.00000" pt_clust_9="56.78749"></scales>
<clustering>
<clus scale="   56.787">  2  9  1 -1</clus>
<clus scale="   90.560">  7  8 -1 -1</clus>
<clus scale="   92.626">  5  6 -1 -1</clus>
<clus scale="   95.154">  2  7  1 -1</clus>
<clus scale="   56.787">  2  5  1 -1</clus>
</clustering>
</event>
<event>
 9    1  0.1426358E-005  0.1381271E+03  0.7546771E-02  0.1215977E+00
         21   -1    0    0  501  502  0.00000000000E+00  0.00000000000E+00  0.11270463574E+03  0.11270463574E+03  0.00000000000E+00 0. -1.
          1   -1    0    0  502    0 -0.00000000000E+00 -0.00000000000E+00 -0.40091931392E+03  0.40091931392E+03  0.00000000000E+00 0. -1.
         23    2    1    2    0    0  0.98870952294E+02 -0.32737075831E+02 -0.24527609283E+03  0.28169768037E+03  0.91356664058E+02 0.  0.
         23    2    1    2    0    0 -0.72921276409E+02  0.88470757356E+02 -0.72981164297E+02  0.16349977234E+03  0.90891901469E+02 0.  0.
        -11    1    4    4    0    0 -0.51463814757E+02  0.10519957070E+03 -0.69201217561E+02  0.13603044665E+03  0.00000000000E+00 0. -1.
         11    1    4    4    0    0 -0.21457461652E+02 -0.16728813343E+02 -0.37799467364E+01  0.27469325688E+02  0.00000000000E+00 0.  1.
        -13    1    3    3    0    0  0.65786609470E+02  0.14467546857E+02 -0.69822441858E+02  0.97017324662E+02  0.00000000000E+00 0. -1.
         13    1    3    3    0    0  0.33084342825E+02 -0.47204622689E+02 -0.17545365097E+03  0.18468035570E+03  0.00000000000E+00 0.  1.
          1    1    1    2  501    0 -0.25949675885E+02 -0.55733681524E+02  0.30042578945E+02  0.68426496947E+02  0.00000000000E+00 0. -1.
<scales pt_clust_5="13000.00000" pt_clust_6="13000.00000" pt_clust_7="13000.00000" pt_clust_8="13000.00000" pt_clust_9="61.47869"></scales>
<clustering>
<clus scale="   61.479">  1  9  2 -1</clus>
<clus scale="   90.892">  5  6 -1 -1</clus>
<clus scale="   91.357">  7  8 -1 -1</clus>
<clus scale="  137.820">  1  5  2 -1</clus>
<clus scale="   61.479">  1  5  2 -1</clus>
</clustering>
</event>
<event>
 9    1  0.1426358E-005  0.1147172E+03  0.7546771E-02  0.1252304E+00
         21   -1    0    0  501  502  0.00000000000E+00  0.00000000000E+00  0.18322757858E+03  0.18322757858E+03  0.00000000000E+00 0. -1.
          1   -1    0    0  502    0 -0.00000000000E+00 -0.00000000000E+00 -0.10267857310E+03  0.10267857310E+03  0.00000000000E+00 0. -1.
         23    2    1    2    0    0  0.28668820033E+02 -0.75007032008E+02  0.21924941844E+01  0.12119620868E+03  0.90751076441E+02 0.  0.
         23    2    1    2    0    0 -0.24591443851E+02  0.51027116510E+02  0.31724632319E+02  0.11211532845E+03  0.91405081080E+02 0.  0.
        -11    1    3    3    0    0  0.22308278506E+02  0.13646813725E+02  0.16856023384E+02  0.31113025232E+02  0.00000000000E+00 0.  1.
         11    1    3    3    0    0  0.63605415268E+01 -0.88653845733E+02 -0.14663529200E+02  0.90083183449E+02  0.00000000000E+00 0. -1.
        -11    1    4    4    0    0  0.25717522192E+02  0.24165468868E+02  0.41259424608E+02  0.54292733882E+02  0.00000000000E+00 0.  1.
         11    1    4    4    0    0 -0.50308966043E+02  0.26861647642E+02 -0.95347922894E+01  0.57822594566E+02  0.00000000000E+00 0. -1.
          1    1    1    2  501    0 -0.40773761817E+01  0.23979915498E+02  0.46631878977E+02  0.52594614560E+02  0.00000000000E+00 0. -1.
<scales pt_clust_5="13000.00000" pt_clust_6="13000.00000" pt_clust_7="13000.00000" pt_clust_8="13000.00000" pt_clust_9="24.32409"></scales>
<clustering>
<clus scale="   24.324">  1  9  2 -1</clus>
<clus scale="   90.751">  5  6 -1 -1</clus>
<clus scale="   91.405">  7  8 -1 -1</clus>
<clus scale="  114.197">  2  5  1 -1</clus>
<clus scale="   24.324">  1  5  2 -1</clus>
</clustering>
</event>
<event>
 9    1  0.1426358E-005  0.1064775E+03  0.7546771E-02  0.1267492E+00
          1   -1    0    0  502    0 -0.00000000000E+00  0.00000000000E+00  0.77014332029E+03  0.77014332029E+03  0.00000000000E+00 0. -1.
         21   -1    0    0  501  502  0.00000000000E+00 -0.00000000000E+00 -0.11112040396E+03  0.11112040396E+03  0.00000000000E+00 0. -1.
         23    2    1    2    0    0 -0.13971358138E+02 -0.57143279544E+02  0.59290205981E+03  0.60265100625E+03  0.90525297913E+02 0.  0.
         23    2    1    2    0    0  0.25996061711E+02  0.37569732000E+02  0.15571361069E+03  0.18612175163E+03  0.91144379370E+02 0.  0.
        -11    1    3    3    0    0  0.50432894377E+01  0.23437392442E+02  0.99267848912E+02  0.10212175067E+03  0.00000000000E+00 0.  1.
         11    1    3    3    0    0 -0.19014647575E+02 -0.80580671986E+02  0.49363421090E+03  0.50052925558E+03  0.00000000000E+00 0. -1.
        -11    1    4    4    0    0  0.88810535483E+01  0.62400333666E+02  0.65062624761E+02  0.90585980673E+02  0.00000000000E+00 0.  1.
         11    1    4    4    0    0  0.17115008163E+02 -0.24830601666E+02  0.90650985925E+02  0.95535770959E+02  0.00000000000E+00 0. -1.
          1    1    1    2  501    0 -0.12024703573E+02  0.19573547544E+02 -0.89592754168E+02  0.92490966364E+02  0.00000000000E+00 0. -1.
<scales pt_clust_5="13000.00000" pt_clust_6="13000.00000" pt_clust_7="13000.00000" pt_clust_8="13000.00000" pt_clust_9="22.97210"></scales>
<clustering>
<clus scale="   22.972">  2  9  1 -1</clus>
<clus scale="   90.525">  5  6 -1 -1</clus>
<clus scale="   91.144">  7  8 -1 -1</clus>
<clus scale="  105.948">  1  5  2 -1</clus>
<clus scale="   22.972">  2  5  1 -1</clus>
</clustering>
</event>
<event>
 9    1  0.1426358E-005  0.1926455E+03  0.7546771E-02  0.1164521E+00
         21   -1    0    0  501  502  0.00000000000E+00  0.00000000000E+00  0.38399343252E+03  0.38399343252E+03  0.00000000000E+00 0. -1.
          2   -1    0    0  502    0 -0.00000000000E+00 -0.00000000000E+00 -0.63073793145E+03  0.63073793145E+03  0.00000000000E+00 0. -1.
         23    2    1    2    0    0 -0.82192298490E+02  0.98185133375E+02 -0.28221581759E+03  0.32360847838E+03  0.93170731625E+02 0.  0.
         23    2    1    2    0    0 -0.45766337527E+02 -0.20532765452E+03 -0.26238659291E+03  0.34969607373E+03  0.95846838694E+02 0.  0.
        -11    1    3    3    0    0 -0.64002883202E+02  0.11476908726E+03 -0.21443811830E+03  0.25149954081E+03  0.00000000000E+00 0. -1.
         11    1    3    3    0    0 -0.18189415289E+02 -0.16583953889E+02 -0.67777699296E+02  0.72108937566E+02  0.00000000000E+00 0.  1.
        -11    1    4    4    0    0 -0.74498486910E+02 -0.12118488350E+03 -0.16018139860E+03  0.21422857186E+03  0.00000000000E+00 0. -1.
         11    1    4    4    0    0  0.28732149383E+02 -0.84142771012E+02 -0.10220519431E+03  0.13546750188E+03  0.00000000000E+00 0.  1.
          2    1    1    2  501    0  0.12795863602E+03  0.10714252114E+03  0.29785791157E+03  0.34142681185E+03  0.00000000000E+00 0. -1.
<scales pt_clust_5="13000.00000" pt_clust_6="13000.00000" pt_clust_7="13000.00000" pt_clust_8="13000.00000" pt_clust_9="167.10978"></scales>
<clustering>
<clus scale="   93.171">  5  6 -1 -1</clus>
<clus scale="   95.847">  7  8 -1 -1</clus>
<clus scale="  158.356">  2  5  1 -1</clus>
<clus scale="  167.110">  1  9  2 -1</clus>
<clus scale="  167.110">  1  5  2 -1</clus>
</clustering>
</event>
<event>
 9    1  0.1426358E-005  0.1397797E+03  0.7546771E-02  0.1227763E+00
         -3   -1    0    0    0  501 -0.00000000000E+00  0.00000000000E+00  0.14456282826E+03  0.14456282826E+03  0.00000000000E+00 0.  1.
         21   -1    0    0  501  502  0.00000000000E+00 -0.00000000000E+00 -0.27754002442E+03  0.27754002442E+03  0.00000000000E+00 0.  1.
         23    2    1    2    0    0 -0.43304115305E+02 -0.28911112380E+02  0.42404293780E+02  0.11223298602E+03  0.89927861083E+02 0.  0.
         23    2    1    2    0    0 -0.84697390480E+02 -0.61150227661E+01 -0.65625329346E+02  0.13765595777E+03  0.86205785188E+02 0.  0.
        -13    1    3    3    0    0 -0.12715211259E+01  0.19971392920E+02  0.43361917010E+02  0.47756980096E+02  0.00000000000E+00 0. -1.
         13    1    3    3    0    0 -0.42032594179E+02 -0.48882505300E+02 -0.95762322974E+00  0.64476005925E+02  0.00000000000E+00 0.  1.
        -13    1    4    4    0    0 -0.42336500221E+02  0.39080900277E+02 -0.21055535690E+02  0.61343553863E+02  0.00000000000E+00 0.  1.
         13    1    4    4    0    0 -0.42360890259E+02 -0.45195923043E+02 -0.44569793656E+02  0.76312403905E+02  0.00000000000E+00 0. -1.
         -3    1    1    2    0  502  0.12800150579E+03  0.35026135146E+02 -0.10975616059E+03  0.17221390889E+03  0.00000000000E+00 0.  1.
<scales pt_clust_5="13000.00000" pt_clust_6="13000.00000" pt_clust_7="13000.00000" pt_clust_8="13000.00000" pt_clust_9="110.03155"></scales>
<clustering>
<clus scale="   86.206">  7  8 -1 -1</clus>
<clus scale="   89.928">  5  6 -1 -1</clus>
<clus scale="  103.914">  1  5  2 -1</clus>
<clus scale="  110.032">  2  9  1 -1</clus>
<clus scale="  110.032">  2  5  1 -1</clus>
</clustering>
</event>
<event>
 9    1  0.1426358E-005  0.1572834E+03  0.7546771E-02  0.1195264E+00
         21   -1    0    0  501  502  0.00000000000E+00  0.00000000000E+00  0.45249830503E+02  0.45249830503E+02  0.00000000000E+00 0.  1.
          2   -1    0    0  502    0 -0.00000000000E+00 -0.00000000000E+00 -0.61586742911E+03  0.61586742911E+03  0.00000000000E+00 0. -1.
         23    2    1    2    0    0 -0.11185303155E+02 -0.12210277342E+03 -0.34812600592E+03  0.38021054831E+03  0.91291548167E+02 0.  0.
         23    2    1    2    0    0  0.43264116807E+01  0.99205644935E+02 -0.18524979427E+03  0.23665431663E+03  0.10875339753E+03 0.  0.
        -11    1    4    4    0    0  0.14395318362E+02  0.20529965999E+02 -0.14603587809E+03  0.14817281257E+03  0.00000000000E+00 0. -1.
         11    1    4    4    0    0 -0.10068906681E+02  0.78675678937E+02 -0.39213916182E+02  0.88481504057E+02  0.00000000000E+00 0.  1.
        -13    1    3    3    0    0  0.19897700286E+02  0.52106615052E+01 -0.32546967998E+02  0.38501618093E+02  0.00000000000E+00 0.  1.
         13    1    3    3    0    0 -0.31083003440E+02 -0.12731343493E+03 -0.31557903792E+03  0.34170893022E+03  0.00000000000E+00 0. -1.
          2    1    1    2  501    0  0.68588914739E+01  0.22897128489E+02 -0.37241798420E+02  0.44252394679E+02  0.00000000000E+00 0. -1.
<scales pt_clust_5="13000.00000" pt_clust_6="13000.00000" pt_clust_7="13000.00000" pt_clust_8="13000.00000" pt_clust_9="23.90236"></scales>
<clustering>
<clus scale="   23.902">  1  9  2 -1</clus>
<clus scale="   91.292">  7  8 -1 -1</clus>
<clus scale="  108.753">  5  6 -1 -1</clus>
<clus scale="  145.756">  2  7  1 -1</clus>
<clus scale="   23.902">  1  5  2 -1</clus>
</clustering>
</event>
<event>
 9    1  0.1426358E-005  0.1095302E+03  0.7546771E-02  0.1261891E+00
         -2   -1    0    0    0  501 -0.00000000000E+00  0.00000000000E+00  0.68779658196E+03  0.68779658196E+03  0.00000000000E+00 0.  1.
         21   -1    0    0  501  502  0.00000000000E+00 -0.00000000000E+00 -0.65878263718E+02  0.65878263718E+02  0.00000000000E+00 0.  1.
         23    2    1    2    0    0 -0.65729926286E+02  0.18027844373E+02  0.48349886908E+03  0.49663655234E+03  0.90726414802E+02 0.  0.
         23    2    1    2    0    0 -0.24548282693E+01 -0.82840011256E+02  0.86642791143E+02  0.14965766172E+03  0.89565332619E+02 0.  0.
        -13    1    4    4    0    0 -0.22841497064E+02 -0.42642739272E+01  0.59802664787E+02  0.64158216433E+02  0.00000000000E+00 0. -1.
         13    1    4    4    0    0  0.20386668795E+02 -0.78575737329E+02  0.26840126357E+02  0.85499445286E+02  0.00000000000E+00 0.  1.
        -13    1    3    3    0    0  0.62031040024E+01  0.34289172972E+02  0.94752858833E+02  0.10095707077E+03  0.00000000000E+00 0. -1.
         13    1    3    3    0    0 -0.71933030289E+02 -0.16261328599E+02  0.38874601024E+03  0.39567948157E+03  0.00000000000E+00 0.  1.
         -2    1    1    2    0  502  0.68184754556E+02  0.64812166883E+02  0.51776658020E+02  0.10738063161E+03  0.00000000000E+00 0.  1.
<scales pt_clust_5="13000.00000" pt_clust_6="13000.00000" pt_clust_7="13000.00000" pt_clust_8="13000.00000" pt_clust_9="94.07326"></scales>
<clustering>
<clus scale="   89.565">  5  6 -1 -1</clus>
<clus scale="   90.726">  7  8 -1 -1</clus>
<clus scale="   94.073">  2  9  1 -1</clus>
<clus scale="  108.570">  2  5  1 -1</clus>
<clus scale="   94.073">  2  5  1 -1</clus>
</clustering>
</event>
<event>
 9    1  0.1426358E-005  0.1064540E+03  0.7546771E-02  0.1267389E+00
         21   -1    0    0  501  502  0.00000000000E+00  0.00000000000E+00  0.32920817669E+03  0.32920817669E+03  0.00000000000E+00 0. -1.
         -4   -1    0    0    0  501 -0.00000000000E+00 -0.00000000000E+00 -0.74597163606E+02  0.74597163606E+02  0.00000000000E+00 0.  1.
         23    2    1    2    0    0  0.58721099702E+02  0.42380536363E+01 -0.62470062869E+01  0.10960080346E+03  0.92234388289E+02 0.  0.
         23    2    1    2    0    0 -0.31548603987E+02 -0.15132394769E+02  0.15089640037E+03  0.18041267049E+03  0.92491644189E+02 0.  0.
        -13    1    3    3    0    0 -0.54041990077E+01 -0.33759303040E+02  0.37567465052E+01  0.34394898647E+02  0.00000000000E+00 0. -1.
         13    1    3    3    0    0  0.64125298710E+02  0.37997356676E+02 -0.10003752792E+02  0.75205904814E+02  0.00000000000E+00 0.  1.
        -13    1    4    4    0    0 -0.24864657405E+02 -0.53064632460E+02  0.73856237396E+02  0.94280699023E+02  0.00000000000E+00 0.  1.
         13    1    4    4    0    0 -0.66839465813E+01  0.37932237691E+02  0.77040162975E+02  0.86131971471E+02  0.00000000000E+00 0. -1.
         -4    1    1    2    0  502 -0.27172495715E+02  0.10894341133E+02  0.10996161900E+03  0.11379186634E+03  0.00000000000E+00 0.  1.
<scales pt_clust_5="13000.00000" pt_clust_6="13000.00000" pt_clust_7="13000.00000" pt_clust_8="13000.00000" pt_clust_9="29.27510"></scales>
<clustering>
<clus scale="   29.275">  1  9  2 -1</clus>
<clus scale="   92.234">  5  6 -1 -1</clus>
<clus scale="   92.492">  7  8 -1 -1</clus>
<clus scale="  106.231">  2  5  1 -1</clus>
<clus scale="   29.275">  1  5  2 -1</clus>
</clustering>
</event>
<event>
 9    1  0.1426358E-005  0.1189227E+03  0.7546771E-02  0.1245539E+00
         21   -1    0    0  501  502  0.00000000000E+00  0.00000000000E+00  0.11712070905E+03  0.11712070905E+03  0.00000000000E+00 0. -1.
          1   -1    0    0  502    0 -0.00000000000E+00 -0.00000000000E+00 -0.22387127203E+03  0.22387127203E+03  0.00000000000E+00 0. -1.
         23    2    1    2    0    0 -0.66544660896E+02 -0.59668405154E+02 -0.96098710620E+02  0.15862783878E+03  0.89102853963E+02 0.  0.
         23    2    1    2    0    0  0.10229001865E+02  0.68552699579E+02 -0.35915732717E+02  0.12000511899E+03  0.91143752544E+02 0.  0.
        -13    1    4    4    0    0 -0.22062034862E+02  0.26229288010E+02 -0.53848413956E+02  0.63830718446E+02  0.00000000000E+00 0.  1.
         13    1    4    4    0    0  0.32291036727E+02  0.42323411569E+02  0.17932681239E+02  0.56174400541E+02  0.00000000000E+00 0. -1.
        -13    1    3    3    0    0 -0.26187962047E+02  0.11663950290E+02  0.43393646335E+01  0.28994606015E+02  0.00000000000E+00 0.  1.
         13    1    3    3    0    0 -0.40356698849E+02 -0.71332355444E+02 -0.10043807525E+03  0.12963323276E+03  0.00000000000E+00 0. -1.
          1    1    1    2  501    0  0.56315659032E+02 -0.88842944249E+01  0.25263880356E+02  0.62359023327E+02  0.00000000000E+00 0. -1.
<scales pt_clust_5="13000.00000" pt_clust_6="13000.00000" pt_clust_7="13000.00000" pt_clust_8="13000.00000" pt_clust_9="57.01214"></scales>
<clustering>
<clus scale="   57.012">  1  9  2 -1</clus>
<clus scale="   89.103">  7  8 -1 -1</clus>
<clus scale="   91.144">  5  6 -1 -1</clus>
<clus scale="  117.366">  2  7  1 -1</clus>
<clus scale="   57.012">  1  5  2 -1</clus>
</clustering>
</event>
<event>
 9    1  0.1426358E-005  0.1157212E+03  0.7546771E-02  0.1256475E+00
         21   -1    0    0  501  502  0.00000000000E+00  0.00000000000E+00  0.18060909466E+03  0.18060909466E+03  0.00000000000E+00 0. -1.
         -2   -1    0    0    0  501 -0.00000000000E+00 -0.00000000000E+00 -0.18927992263E+03  0.18927992263E+03  0.00000000000E+00 0.  1.
         23    2    1    2    0    0  0.30457825379E+02 -0.28466053920E+02 -0.11241775153E+03  0.15074910213E+03  0.91375847918E+02 0.  0.
         23    2    1    2    0    0 -0.67490424101E+02  0.46159746527E+02  0.11505937705E+03  0.17656701615E+03  0.10607342457E+03 0.  0.
        -11    1    3    3    0    0 -0.26697608343E+02 -0.33482712806E+02 -0.53216177584E+02  0.68306777883E+02  0.00000000000E+00 0. -1.
         11    1    3    3    0    0  0.57155433722E+02  0.50166588862E+01 -0.59201573944E+02  0.82442324250E+02  0.00000000000E+00 0.  1.
        -11    1    4    4    0    0 -0.26089762229E+02  0.76733504286E+02  0.57613314821E+02  0.99438425259E+02  0.00000000000E+00 0.  1.
         11    1    4    4    0    0 -0.41400661872E+02 -0.30573757759E+02  0.57446062227E+02  0.77128590887E+02  0.00000000000E+00 0. -1.
         -2    1    1    2    0  502  0.37032598721E+02 -0.17693692607E+02 -0.11312453484E+02  0.42572899008E+02  0.00000000000E+00 0.  1.
<scales pt_clust_5="13000.00000" pt_clust_6="13000.00000" pt_clust_7="13000.00000" pt_clust_8="13000.00000" pt_clust_9="41.04244"></scales>
<clustering>
<clus scale="   41.042">  1  9  2 -1</clus>
<clus scale="   91.376">  5  6 -1 -1</clus>
<clus scale="  102.418">  2  5  1 -1</clus>
<clus scale="  106.073">  7  8 -1 -1</clus>
<clus scale="   41.042">  1  5  2 -1</clus>
</clustering>
</event>
<event>
 9    1  0.1426358E-005  0.9778286E+02  0.7546771E-02  0.1286269E+00
         21   -1    0    0  501  502  0.00000000000E+00  0.00000000000E+00  0.55389095112E+02  0.55389095112E+02  0.00000000000E+00 0. -1.
          2   -1    0    0  502    0 -0.00000000000E+00 -0.00000000000E+00 -0.44501682053E+03  0.44501682053E+03  0.00000000000E+00 0. -1.
         23    2    1    2    0    0 -0.23419446678E+02  0.13151668355E+02 -0.22567444022E+03  0.24498624844E+03  0.91476073883E+02 0.  0.
         23    2    1    2    0    0  0.19792817121E+02 -0.44757895169E+02 -0.18922914976E+03  0.21478747129E+03  0.89055948217E+02 0.  0.
        -11    1    4    4    0    0  0.31995876683E+02 -0.98827728535E+01 -0.15017191436E+02  0.36700427281E+02  0.00000000000E+00 0.  1.
         11    1    4    4    0    0 -0.12203059561E+02 -0.34875122315E+02 -0.17421195833E+03  0.17808704401E+03  0.00000000000E+00 0. -1.
        -11    1    3    3    0    0 -0.52733948401E+02  0.23000705560E+02 -0.18593231450E+03  0.19462971856E+03  0.00000000000E+00 0. -1.
         11    1    3    3    0    0  0.29314501723E+02 -0.98490372048E+01 -0.39742125717E+02  0.50356529881E+02  0.00000000000E+00 0.  1.
          2    1    1    2  501    0  0.36266295569E+01  0.31606226813E+02  0.25275864564E+02  0.40632195914E+02  0.00000000000E+00 0. -1.
<scales pt_clust_5="13000.00000" pt_clust_6="13000.00000" pt_clust_7="13000.00000" pt_clust_8="13000.00000" pt_clust_9="31.81361"></scales>
<clustering>
<clus scale="   31.814">  1  9  2 -1</clus>
<clus scale="   89.056">  5  6 -1 -1</clus>
<clus scale="   91.476">  7  8 -1 -1</clus>
<clus scale="   95.523">  1  5  2 -1</clus>
<clus scale="   31.814">  1  5  2 -1</clus>
</clustering>
</event>
<event>
 9    1  0.1426358E-005  0.9679843E+02  0.7546771E-02  0.1290706E+00
         21   -1    0    0  501  502  0.00000000000E+00  0.00000000000E+00  0.43688984752E+02  0.43688984752E+02  0.00000000000E+00 0. -1.
         -2   -1    0    0    0  501 -0.00000000000E+00 -0.00000000000E+00 -0.42436591566E+03  0.42436591566E+03  0.00000000000E+00 0.  1.
         23    2    1    2    0    0  0.22295285457E+02 -0.76149888956E+01 -0.22588642688E+03  0.24650467419E+03  0.95837407818E+02 0.  0.
         23    2    1    2    0    0  0.30477669633E+02  0.21381772758E+02 -0.65915546591E+02  0.11727526669E+03  0.89568746457E+02 0.  0.
        -13    1    3    3    0    0 -0.14585535520E+02  0.29871893473E+02 -0.15334672118E+03  0.15690852355E+03  0.00000000000E+00 0.  1.
         13    1    3    3    0    0  0.36880820977E+02 -0.37486882369E+02 -0.72539705702E+02  0.89596150637E+02  0.00000000000E+00 0. -1.
        -13    1    4    4    0    0 -0.20959674580E+02 -0.45280647344E+01 -0.54491415684E+02  0.58558737281E+02  0.00000000000E+00 0.  1.
         13    1    4    4    0    0  0.51437344214E+02  0.25909837493E+02 -0.11424130907E+02  0.58716529407E+02  0.00000000000E+00 0. -1.
         -2    1    1    2    0  502 -0.52772955091E+02 -0.13766783862E+02 -0.88874957429E+02  0.10427495953E+03  0.00000000000E+00 0.  1.
<scales pt_clust_5="13000.00000" pt_clust_6="13000.00000" pt_clust_7="13000.00000" pt_clust_8="13000.00000" pt_clust_9="54.53909"></scales>
<clustering>
<clus scale="   54.539">  1  9  2 -1</clus>
<clus scale="   89.569">  7  8 -1 -1</clus>
<clus scale="   90.596">  1  7  2 -1</clus>
<clus scale="   95.837">  5  6 -1 -1</clus>
<clus scale="   54.539">  1  5  2 -1</clus>
</clustering>
</event>
<event>
 9    1  0.1426358E-005  0.1005843E+03  0.7546771E-02  0.1279768E+00
         21   -1    0    0  501  502  0.00000000000E+00  0.00000000000E+00  0.24515644951E+03  0.24515644951E+03  0.00000000000E+00 0. -1.
         -1   -1    0    0    0  501 -0.00000000000E+00 -0.00000000000E+00 -0.16982851194E+03  0.16982851194E+03  0.00000000000E+00 0.  1.
         23    2    1    2    0    0  0.43101718327E+02 -0.23438113998E+02 -0.12105133369E+03  0.15852738439E+03  0.89835421214E+02 0.  0.
         23    2    1    2    0    0 -0.15191733609E+02 -0.33902471069E+02  0.96398424225E+02  0.13786972053E+03  0.91297520954E+02 0.  0.
        -13    1    3    3    0    0 -0.25724516292E+02  0.71491827534E+01 -0.37582713618E+02  0.46101213817E+02  0.00000000000E+00 0. -1.
         13    1    3    3    0    0  0.68826234618E+02 -0.30587296752E+02 -0.83468620069E+02  0.11242617058E+03  0.00000000000E+00 0.  1.
        -13    1    4    4    0    0 -0.40635673228E+02 -0.49683900286E+02  0.83374268365E+02  0.10521889807E+03  0.00000000000E+00 0. -1.
         13    1    4    4    0    0  0.25443939619E+02  0.15781429217E+02  0.13024155860E+02  0.32650822460E+02  0.00000000000E+00 0.  1.
         -1    1    1    2    0  502 -0.27909984717E+02  0.57340585067E+02  0.99980847024E+02  0.11858785652E+03  0.00000000000E+00 0.  1.
<scales pt_clust_5="13000.00000" pt_clust_6="13000.00000" pt_clust_7="13000.00000" pt_clust_8="13000.00000" pt_clust_9="63.77233"></scales>
<clustering>
<clus scale="   63.772">  1  9  2 -1</clus>
<clus scale="   89.835">  5  6 -1 -1</clus>
<clus scale="   91.298">  7  8 -1 -1</clus>
<clus scale="   99.259">  2  5  1 -1</clus>
<clus scale="   63.772">  1  5  2 -1</clus>
</clustering>
</event>
<event>
 9    1  0.1426358E-005  0.1126095E+03  0.7546771E-02  0.1257204E+00
          1   -1    0    0  502    0 -0.00000000000E+00  0.00000000000E+00  0.53830623521E+03  0.53830623521E+03  0.00000000000E+00 0. -1.
         21   -1    0    0  501  502  0.00000000000E+00 -0.00000000000E+00 -0.98789359865E+02  0.98789359865E+02  0.00000000000E+00 0.  1.
         23    2    1    2    0    0 -0.48198412543E+02 -0.36393658784E+02  0.42082052010E+03  0.43546776580E+03  0.94311608732E+02 0.  0.
         23    2    1    2    0    0  0.64578432860E+02  0.23157713723E+02  0.78551244283E+02  0.13817624893E+03  0.90640631583E+02 0.  0.
        -11    1    3    3    0    0 -0.16747627479E+02 -0.62237783553E+02  0.32548909046E+03  0.33180894011E+03  0.00000000000E+00 0. -1.
         11    1    3    3    0    0 -0.31450785064E+02  0.25844124769E+02  0.95331429635E+02  0.10365882569E+03  0.00000000000E+00 0.  1.
        -13    1    4    4    0    0 -0.22843549939E+02  0.90514688461E+01  0.11654296861E+02  0.27195210928E+02  0.00000000000E+00 0. -1.
         13    1    4    4    0    0  0.87421982799E+02  0.14106244876E+02  0.66896947423E+02  0.11098103800E+03  0.00000000000E+00 0.  1.
          1    1    1    2  501    0 -0.16380020317E+02  0.13235945061E+02 -0.59854889037E+02  0.63451580350E+02  0.00000000000E+00 0. -1.
<scales pt_clust_5="13000.00000" pt_clust_6="13000.00000" pt_clust_7="13000.00000" pt_clust_8="13000.00000" pt_clust_9="21.05933"></scales>
<clustering>
<clus scale="   21.059">  2  9  1 -1</clus>
<clus scale="   90.641">  7  8 -1 -1</clus>
<clus scale="   94.312">  5  6 -1 -1</clus>
<clus scale="  109.553">  2  7  1 -1</clus>
<clus scale="   21.059">  2  5  1 -1</clus>
</clustering>
</event>
<event>
 9    1  0.1426358E-005  0.1114779E+03  0.7546771E-02  0.1260047E+00
         21   -1    0    0  501  502  0.00000000000E+00  0.00000000000E+00  0.18517028775E+03  0.18517028775E+03  0.00000000000E+00 0.  1.
          2   -1    0    0  502    0 -0.00000000000E+00 -0.00000000000E+00 -0.30086331344E+03  0.30086331344E+03  0.00000000000E+00 0. -1.
         23    2    1    2    0    0  0.28833106495E+02 -0.49432667426E+02 -0.25789062778E+03  0.27943935351E+03  0.91125406755E+02 0.  0.
         23    2    1    2    0    0 -0.35693228239E+02  0.27545732948E+02  0.62298585732E+02  0.12346812673E+03  0.96594464584E+02 0.  0.
        -11    1    4    4    0    0 -0.66333783832E+02  0.48584554784E+01  0.50654329348E+02  0.83604046247E+02  0.00000000000E+00 0.  1.
         11    1    4    4    0    0  0.30640555593E+02  0.22687277470E+02  0.11644256384E+02  0.39864080483E+02  0.00000000000E+00 0. -1.
        -13    1    3    3    0    0  0.18660121937E+02  0.13221709843E+02 -0.12686377994E+02  0.26152589709E+02  0.00000000000E+00 0.  1.
         13    1    3    3    0    0  0.10172984558E+02 -0.62654377269E+02 -0.24520424978E+03  0.25328676380E+03  0.00000000000E+00 0. -1.
          2    1    1    2  501    0  0.68601217440E+01  0.21886934478E+02  0.79899016349E+02  0.83126120953E+02  0.00000000000E+00 0. -1.
<scales pt_clust_5="13000.00000" pt_clust_6="13000.00000" pt_clust_7="13000.00000" pt_clust_8="13000.00000" pt_clust_9="22.93685"></scales>
<clustering>
<clus scale="   22.937">  1  9  2 -1</clus>
<clus scale="   91.125">  7  8 -1 -1</clus>
<clus scale="   96.594">  5  6 -1 -1</clus>
<clus scale="  106.774">  2  7  1 -1</clus>
<clus scale="   22.937">  1  5  2 -1</clus>
</clustering>
</event>
<event>
 9    1  0.1426358E-005  0.1428333E+03  0.7546771E-02  0.1211555E+00
         -4   -1    0    0    0  501 -0.00000000000E+00  0.00000000000E+00  0.65064283323E+03  0.65064283323E+03  0.00000000000E+00 0.  1.
         21   -1    0    0  501  502  0.00000000000E+00 -0.00000000000E+00 -0.69387508924E+02  0.69387508924E+02  0.00000000000E+00 0. -1.
         23    2    1    2    0    0  0.46131581292E+02 -0.89121797484E+02  0.48479556895E+03  0.50380036454E+03  0.93366193330E+02 0.  0.
         23    2    1    2    0    0 -0.45438318475E+01  0.10718263588E+03  0.69143803190E+02  0.16329703862E+03  0.10186409310E+03 0.  0.
        -11    1    3    3    0    0  0.55759752682E+02 -0.16955117586E+02  0.14463628442E+03  0.15593678464E+03  0.00000000000E+00 0. -1.
         11    1    3    3    0    0 -0.96281713897E+01 -0.72166679898E+02  0.34015928453E+03  0.34786357990E+03  0.00000000000E+00 0.  1.
        -13    1    4    4    0    0  0.11531865157E+02  0.81640128301E+02 -0.56497843120E+01  0.82643901928E+02  0.00000000000E+00 0. -1.
         13    1    4    4    0    0 -0.16075697005E+02  0.25542507575E+02  0.74793587502E+02  0.80653136696E+02  0.00000000000E+00 0.  1.
         -4    1    1    2    0  502 -0.41587749445E+02 -0.18060838393E+02  0.27315952161E+02  0.52932938987E+02  0.00000000000E+00 0.  1.
<scales pt_clust_5="13000.00000" pt_clust_6="13000.00000" pt_clust_7="13000.00000" pt_clust_8="13000.00000" pt_clust_9="45.34021"></scales>
<clustering>
<clus scale="   45.340">  2  9  1 -1</clus>
<clus scale="   93.366">  5  6 -1 -1</clus>
<clus scale="  101.864">  7  8 -1 -1</clus>
<clus scale="  136.902">  1  5  2 -1</clus>
<clus scale="   45.340">  2  5  1 -1</clus>
</clustering>
</event>
<event>
 9    1  0.1426358E-005  0.1161634E+03  0.7546771E-02  0.1251114E+00
         21   -1    0    0  501  502  0.00000000000E+00  0.00000000000E+00  0.85279648834E+02  0.85279648834E+02  0.00000000000E+00 0.  1.
          4   -1    0    0  502    0 -0.00000000000E+00 -0.00000000000E+00 -0.36523592191E+03  0.36523592191E+03  0.00000000000E+00 0. -1.
         23    2    1    2    0    0  0.71393163290E+02  0.26800571412E+00 -0.26530144514E+03  0.28916353562E+03  0.90186683857E+02 0.  0.
         23    2    1    2    0    0 -0.44981159358E+02 -0.26438886838E+02  0.20778703909E+02  0.10999014118E+03  0.94571439594E+02 0.  0.
        -11    1    3    3    0    0  0.83430463459E+02  0.24334150473E+02 -0.18327530984E+03  0.20283646691E+03  0.00000000000E+00 0. -1.
         11    1    3    3    0    0 -0.12037300168E+02 -0.24066144759E+02 -0.82026135303E+02  0.86327068707E+02  0.00000000000E+00 0.  1.
        -13    1    4    4    0    0 -0.61271537084E+02 -0.49254012230E+02  0.75019037279E+01  0.78971118372E+02  0.00000000000E+00 0. -1.
         13    1    4    4    0    0  0.16290377726E+02  0.22815125392E+02  0.13276800181E+02  0.31019022811E+02  0.00000000000E+00 0.  1.
          4    1    1    2  501    0 -0.26412003933E+02  0.26170881124E+02 -0.35433531841E+02  0.51361893942E+02  0.00000000000E+00 0. -1.
<scales pt_clust_5="13000.00000" pt_clust_6="13000.00000" pt_clust_7="13000.00000" pt_clust_8="13000.00000" pt_clust_9="37.18212"></scales>
<clustering>
<clus scale="   37.182">  1  9  2 -1</clus>
<clus scale="   90.187">  5  6 -1 -1</clus>
<clus scale="   94.571">  7  8 -1 -1</clus>
<clus scale="  112.622">  2  5  1 -1</clus>
<clus scale="   37.182">  1  5  2 -1</clus>
</clustering>
</event>
<event>
 9    1  0.1426358E-005  0.9966780E+02  0.7546771E-02  0.1286018E+00
         21   -1    0    0  501  502  0.00000000000E+00  0.00000000000E+00  0.38771660791E+03  0.38771660791E+03  0.00000000000E+00 0. -1.
          1   -1    0    0  502    0 -0.00000000000E+00 -0.00000000000E+00 -0.12386412805E+03  0.12386412805E+03  0.00000000000E+00 0. -1.
         23    2    1    2    0    0  0.20987025425E+01 -0.37595635288E+02 -0.30421310180E+02  0.92484557351E+02  0.78804193355E+02 0.  0.
         23    2    1    2    0    0 -0.47213019298E+02  0.44848429062E+02 -0.10592046909E+02  0.11082505908E+03  0.89048029078E+02 0.  0.
        -13    1    4    4    0    0 -0.51244836586E+02 -0.11667268984E+02 -0.12908929165E+02  0.54118378528E+02  0.00000000000E+00 0.  1.
         13    1    4    4    0    0  0.40318172878E+01  0.56515698047E+02  0.23168822562E+01  0.56706680557E+02  0.00000000000E+00 0. -1.
        -13    1    3    3    0    0 -0.19789115481E+02 -0.54898296979E+02 -0.27247115240E+02  0.64403706350E+02  0.00000000000E+00 0.  1.
         13    1    3    3    0    0  0.21887818023E+02  0.17302661691E+02 -0.31741949396E+01  0.28080851001E+02  0.00000000000E+00 0. -1.
          1    1    1    2  501    0  0.45114316756E+02 -0.72527937741E+01  0.30486583695E+03  0.30827111952E+03  0.00000000000E+00 0. -1.
<scales pt_clust_5="13000.00000" pt_clust_6="13000.00000" pt_clust_7="13000.00000" pt_clust_8="13000.00000" pt_clust_9="45.69359"></scales>
<clustering>
<clus scale="   45.694">  1  9  2 -1</clus>
<clus scale="   78.804">  7  8 -1 -1</clus>
<clus scale="   89.048">  5  6 -1 -1</clus>
<clus scale="   90.632">  2  7  1 -1</clus>
<clus scale="   45.694">  1  5  2 -1</clus>
</clustering>
</event>
<event>
 9    1  0.1426358E-005  0.1255595E+03  0.7546771E-02  0.1234423E+00
          1   -1    0    0  502    0 -0.00000000000E+00  0.00000000000E+00  0.82207284946E+03  0.82207284946E+03  0.00000000000E+00 0. -1.
         21   -1    0    0  501  502  0.00000000000E+00 -0.00000000000E+00 -0.40175127563E+02  0.40175127563E+02  0.00000000000E+00 0.  1.
         23    2    1    2    0    0 -0.79973904193E+02 -0.29612640759E+02  0.65178865492E+03  0.66382260068E+03  0.92516272364E+02 0.  0.
         23    2    1    2    0    0  0.68982794943E+02  0.51024349287E+02  0.10593506134E+03  0.16431308687E+03  0.91730273496E+02 0.  0.
        -11    1    3    3    0    0  0.15978828280E+02 -0.25094512216E+02  0.14963312046E+03  0.15256188329E+03  0.00000000000E+00 0. -1.
         11    1    3    3    0    0 -0.95952732472E+02 -0.45181285428E+01  0.50215553446E+03  0.51126071739E+03  0.00000000000E+00 0.  1.
        -13    1    4    4    0    0  0.79867239421E+02  0.17952449911E+02  0.99601900712E+02  0.12892480373E+03  0.00000000000E+00 0. -1.
         13    1    4    4    0    0 -0.10884444477E+02  0.33071899377E+02  0.63331606287E+01  0.35388283139E+02  0.00000000000E+00 0.  1.
          1    1    1    2  501    0  0.10991109250E+02 -0.21411708529E+02  0.24174005638E+02  0.34112289475E+02  0.00000000000E+00 0. -1.
<scales pt_clust_5="13000.00000" pt_clust_6="13000.00000" pt_clust_7="13000.00000" pt_clust_8="13000.00000" pt_clust_9="24.06794"></scales>
<clustering>
<clus scale="   24.068">  2  9  1 -1</clus>
<clus scale="   91.730">  7  8 -1 -1</clus>
<clus scale="   92.516">  5  6 -1 -1</clus>
<clus scale="  124.981">  2  7  1 -1</clus>
<clus scale="   24.068">  2  5  1 -1</clus>
</clustering>
</event>
<event>
 9    1  0.1426358E-005  0.9882674E+02  0.7546771E-02  0.1283560E+00
         -1   -1    0    0    0  501 -0.00000000000E+00  0.00000000000E+00  0.42726362001E+03  0.42726362001E+03  0.00000000000E+00 0.  1.
         21   -1    0    0  501  502  0.00000000000E+00 -0.00000000000E+00 -0.41806467289E+02  0.41806467289E+02  0.00000000000E+00 0.  1.
         23    2    1    2    0    0  0.36027658616E+02 -0.11191781535E+02  0.23958373868E+03  0.25944684003E+03  0.92136023375E+02 0.  0.
         23    2    1    2    0    0 -0.34493904147E+02 -0.33257264348E+02  0.12136250329E+03  0.15884082089E+03  0.90585176057E+02 0.  0.
        -11    1    4    4    0    0 -0.42192743119E+02  0.70628342949E+01  0.10719508787E+03  0.11541619498E+03  0.00000000000E+00 0. -1.
         11    1    4    4    0    0  0.76988389716E+01 -0.40320098643E+02  0.14167415426E+02  0.43424625916E+02  0.00000000000E+00 0.  1.
        -11    1    3    3    0    0  0.10045150940E+02 -0.49990450063E+02  0.14990095456E+03  0.15833586559E+03  0.00000000000E+00 0. -1.
         11    1    3    3    0    0  0.25982507676E+02  0.38798668527E+02  0.89682784122E+02  0.10111097444E+03  0.00000000000E+00 0.  1.
         -1    1    1    2    0  502 -0.15337544684E+01  0.44449045883E+02  0.24510910746E+02  0.50782426373E+02  0.00000000000E+00 0.  1.
<scales pt_clust_5="13000.00000" pt_clust_6="13000.00000" pt_clust_7="13000.00000" pt_clust_8="13000.00000" pt_clust_9="44.47550"></scales>
<clustering>
<clus scale="   44.475">  2  9  1 -1</clus>
<clus scale="   90.585">  5  6 -1 -1</clus>
<clus scale="   92.136">  7  8 -1 -1</clus>
<clus scale="   97.383">  2  5  1 -1</clus>
<clus scale="   44.475">  2  5  1 -1</clus>
</clustering>
</event>
<event>
 9    1  0.1426358E-005  0.1203534E+03  0.7546771E-02  0.1247150E+00
         21   -1    0    0  501  502  0.00000000000E+00  0.00000000000E+00  0.56972926094E+03  0.56972926094E+03  0.00000000000E+00 0. -1.
          2   -1    0    0  502    0 -0.00000000000E+00 -0.00000000000E+00 -0.43394723612E+02  0.43394723612E+02  0.00000000000E+00 0. -1.
         23    2    1    2    0    0  0.25562095391E+02  0.43977258315E+02  0.11675295275E+03  0.16573136509E+03  0.10605759486E+03 0.  0.
         23    2    1    2    0    0 -0.63832901721E+02 -0.45024240582E+02  0.37973123360E+03  0.39884579421E+03  0.93703448195E+02 0.  0.
        -11    1    4    4    0    0  0.14587365054E+02 -0.33651795070E+02  0.68680888455E+02  0.77860766561E+02  0.00000000000E+00 0.  1.
         11    1    4    4    0    0 -0.78420266775E+02 -0.11372445512E+02  0.31105034514E+03  0.32098502764E+03  0.00000000000E+00 0. -1.
        -13    1    3    3    0    0 -0.30892240524E+02  0.11272619166E+02  0.88907790066E+02  0.94794501960E+02  0.00000000000E+00 0.  1.
         13    1    3    3    0    0  0.56454335915E+02  0.32704639148E+02  0.27845162683E+02  0.70936863126E+02  0.00000000000E+00 0. -1.
          2    1    1    2  501    0  0.38270806330E+02  0.10469822674E+01  0.29850350979E+02  0.48546825257E+02  0.00000000000E+00 0. -1.
<scales pt_clust_5="13000.00000" pt_clust_6="13000.00000" pt_clust_7="13000.00000" pt_clust_8="13000.00000" pt_clust_9="38.28514"></scales>
<clustering>
<clus scale="   38.285">  1  9  2 -1</clus>
<clus scale="   93.703">  5  6 -1 -1</clus>
<clus scale="  106.058">  7  8 -1 -1</clus>
<clus scale="  109.622">  1  5  2 -1</clus>
<clus scale="   38.285">  1  5  2 -1</clus>
</clustering>
</event>
<event>
 9    1  0.1426358E-005  0.1055455E+03  0.7546771E-02  0.1272494E+00
         21   -1    0    0  501  502  0.00000000000E+00  0.00000000000E+00  0.37184795855E+02  0.37184795855E+02  0.00000000000E+00 0.  1.
          1   -1    0    0  502    0 -0.00000000000E+00 -0.00000000000E+00 -0.37177416495E+03  0.37177416495E+03  0.00000000000E+00 0. -1.
         23    2    1    2    0    0 -0.34104030950E+02  0.29541448078E+02 -0.15155030455E+03  0.17907491498E+03  0.84050867235E+02 0.  0.
         23    2    1    2    0    0  0.59888628949E+02 -0.21108742728E+02 -0.14203438351E+03  0.18071759507E+03  0.91939415767E+02 0.  0.
        -13    1    4    4    0    0  0.15578840378E+02 -0.41181505645E+02 -0.18147890180E+02  0.47623130858E+02  0.00000000000E+00 0.  1.
         13    1    4    4    0    0  0.44309788572E+02  0.20072762917E+02 -0.12388649333E+03  0.13309446421E+03  0.00000000000E+00 0. -1.
        -13    1    3    3    0    0 -0.37506186085E+02  0.54884987604E+02 -0.85883171339E+02  0.10860476499E+03  0.00000000000E+00 0. -1.
         13    1    3    3    0    0  0.34021551344E+01 -0.25343539525E+02 -0.65667133210E+02  0.70470149987E+02  0.00000000000E+00 0.  1.
          1    1    1    2  501    0 -0.25784597999E+02 -0.84327053500E+01 -0.41004681039E+02  0.49166450763E+02  0.00000000000E+00 0. -1.
<scales pt_clust_5="13000.00000" pt_clust_6="13000.00000" pt_clust_7="13000.00000" pt_clust_8="13000.00000" pt_clust_9="27.12852"></scales>
<clustering>
<clus scale="   27.129">  1  9  2 -1</clus>
<clus scale="   84.051">  7  8 -1 -1</clus>
<clus scale="   91.939">  5  6 -1 -1</clus>
<clus scale="   98.750">  2  7  1 -1</clus>
<clus scale="   27.129">  1  5  2 -1</clus>
</clustering>
</event>
<event>
 9    1  0.1426358E-005  0.1303518E+03  0.7546771E-02  0.1227563E+00
         21   -1    0    0  501  502  0.00000000000E+00  0.00000000000E+00  0.54030830694E+03  0.54030830694E+03  0.00000000000E+00 0. -1.
          2   -1    0    0  502    0 -0.00000000000E+00 -0.00000000000E+00 -0.21113595462E+03  0.21113595462E+03  0.00000000000E+00 0. -1.
         23    2    1    2    0    0 -0.74075700364E+01  0.74114483899E+02 -0.63880160381E+02  0.13531790258E+03  0.93179563476E+02 0.  0.
         23    2    1    2    0    0 -0.53667759236E+02 -0.11371950903E+03 -0.53200770445E+02  0.16397511594E+03  0.90802871959E+02 0.  0.
        -11    1    3    3    0    0 -0.31556206382E+02  0.88945150610E-01  0.42668577743E+01  0.31843494590E+02  0.00000000000E+00 0. -1.
         11    1    3    3    0    0  0.24148636345E+02  0.74025538748E+02 -0.68147018156E+02  0.10347440798E+03  0.00000000000E+00 0.  1.
        -11    1    4    4    0    0  0.57612744007E+01 -0.57360126304E+02  0.12485431723E+02  0.58985272549E+02  0.00000000000E+00 0.  1.
         11    1    4    4    0    0 -0.59429033637E+02 -0.56359382730E+02 -0.65686202167E+02  0.10498984339E+03  0.00000000000E+00 0. -1.
          2    1    1    2  501    0  0.61075329272E+02  0.39605025135E+02  0.44625328315E+03  0.45215124304E+03  0.00000000000E+00 0. -1.
<scales pt_clust_5="13000.00000" pt_clust_6="13000.00000" pt_clust_7="13000.00000" pt_clust_8="13000.00000" pt_clust_9="72.79254"></scales>
<clustering>
<clus scale="   72.793">  1  9  2 -1</clus>
<clus scale="   90.803">  7  8 -1 -1</clus>
<clus scale="   93.180">  5  6 -1 -1</clus>
<clus scale="  128.664">  1  7  2 -1</clus>
<clus scale="   72.793">  1  5  2 -1</clus>
</clustering>
</event>
<event>
 9    1  0.1426358E-005  0.2527724E+03  0.7546771E-02  0.1111607E+00
         21   -1    0    0  501  502  0.00000000000E+00  0.00000000000E+00  0.24585385647E+03  0.24585385647E+03  0.00000000000E+00 0.  1.
          1   -1    0    0  502    0 -0.00000000000E+00 -0.00000000000E+00 -0.91294163042E+03  0.91294163042E+03  0.00000000000E+00 0. -1.
         23    2    1    2    0    0 -0.17119352924E+03 -0.14820293312E+03 -0.68952191532E+03  0.73152756460E+03  0.91764765672E+02 0.  0.
         23    2    1    2    0    0  0.24555916727E+03  0.15300475314E+03 -0.66796029669E+02  0.31101247503E+03  0.92505626459E+02 0.  0.
        -13    1    3    3    0    0 -0.39084558194E+02  0.24908551487E+01 -0.67722201143E+02  0.78231090854E+02  0.00000000000E+00 0.  1.
         13    1    3    3    0    0 -0.13210897105E+03 -0.15069378827E+03 -0.62179971418E+03  0.65329647374E+03  0.00000000000E+00 0. -1.
        -13    1    4    4    0    0  0.15570406252E+03  0.14171289027E+03 -0.65321464956E+02  0.22043863577E+03  0.00000000000E+00 0.  1.
         13    1    4    4    0    0  0.89855104752E+02  0.11291862871E+02 -0.14745647123E+01  0.90573839259E+02  0.00000000000E+00 0. -1.
          1    1    1    2  501    0 -0.74365638030E+02 -0.48018200275E+01  0.89230171040E+02  0.11625544727E+03  0.00000000000E+00 0. -1.
<scales pt_clust_5="13000.00000" pt_clust_6="13000.00000" pt_clust_7="13000.00000" pt_clust_8="13000.00000" pt_clust_9="74.52050"></scales>
<clustering>
<clus scale="   74.521">  1  9  2 -1</clus>
<clus scale="   91.765">  5  6 -1 -1</clus>
<clus scale="   92.506">  7  8 -1 -1</clus>
<clus scale="  252.502">  2  5  1 -1</clus>
<clus scale="   74.521">  1  5  2 -1</clus>
</clustering>
</event>
<event>
 9    1  0.1426358E-005  0.1085942E+03  0.7546771E-02  0.1264249E+00
         -2   -1    0    0    0  501 -0.00000000000E+00  0.00000000000E+00  0.72060927266E+02  0.72060927266E+02  0.00000000000E+00 0.  1.
         21   -1    0    0  501  502  0.00000000000E+00 -0.00000000000E+00 -0.21351222853E+03  0.21351222853E+03  0.00000000000E+00 0. -1.
         23    2    1    2    0    0  0.22356021380E+01  0.68563294590E+02 -0.54072926722E+02  0.12663481775E+03  0.91687362161E+02 0.  0.
         23    2    1    2    0    0 -0.61371207967E+01 -0.37971013260E+02 -0.70017101762E+02  0.12354733188E+03  0.94244822547E+02 0.  0.
        -11    1    4    4    0    0 -0.23577399725E+02  0.12638765141E+02 -0.64385086089E+02  0.69721384616E+02  0.00000000000E+00 0.  1.
         11    1    4    4    0    0  0.17440278928E+02 -0.50609778400E+02 -0.56320156733E+01  0.53825947268E+02  0.00000000000E+00 0. -1.
        -13    1    3    3    0    0 -0.33692287600E+02  0.43099170428E+00 -0.21907678604E+01  0.33766188139E+02  0.00000000000E+00 0.  1.
         13    1    3    3    0    0  0.35927889738E+02  0.68132302886E+02 -0.51882158861E+02  0.92868629611E+02  0.00000000000E+00 0. -1.
         -2    1    1    2    0  502  0.39015186588E+01 -0.30592281331E+02 -0.17361272785E+02  0.35391006168E+02  0.00000000000E+00 0.  1.
<scales pt_clust_5="13000.00000" pt_clust_6="13000.00000" pt_clust_7="13000.00000" pt_clust_8="13000.00000" pt_clust_9="30.84008"></scales>
<clustering>
<clus scale="   30.840">  2  9  1 -1</clus>
<clus scale="   91.687">  7  8 -1 -1</clus>
<clus scale="   94.245">  5  6 -1 -1</clus>
<clus scale="  106.382">  1  7  2 -1</clus>
<clus scale="   30.840">  2  5  1 -1</clus>
</clustering>
</event>
<event>
 9    1  0.1426358E-005  0.2480857E+03  0.7546771E-02  0.1114969E+00
          3   -1    0    0  502    0 -0.00000000000E+00  0.00000000000E+00  0.74117582816E+03  0.74117582816E+03  0.00000000000E+00 0. -1.
         21   -1    0    0  501  502  0.00000000000E+00 -0.00000000000E+00 -0.18515290085E+03  0.18515290085E+03  0.00000000000E+00 0. -1.
         23    2    1    2    0    0 -0.16773307528E+03 -0.16458680932E+03  0.55301725139E+03  0.60765270608E+03  0.90501538754E+02 0.  0.
         23    2    1    2    0    0  0.13648070753E+03  0.17186251894E+03  0.69742725636E+02  0.24462549798E+03  0.82546214581E+02 0.  0.
        -11    1    4    4    0    0  0.88295281264E+02  0.16311851728E+03  0.53930622772E+02  0.19316371152E+03  0.00000000000E+00 0. -1.
         11    1    4    4    0    0  0.48185426267E+02  0.87440016522E+01  0.15812102864E+02  0.51461786467E+02  0.00000000000E+00 0.  1.
        -11    1    3    3    0    0 -0.43187853996E+02  0.23870000513E+01  0.10588920331E+03  0.11438274292E+03  0.00000000000E+00 0.  1.
         11    1    3    3    0    0 -0.12454522129E+03 -0.16697380937E+03  0.44712804809E+03  0.49326996315E+03  0.00000000000E+00 0. -1.
          3    1    1    2  501    0  0.31252367751E+02 -0.72757096126E+01 -0.66737049713E+02  0.74050524947E+02  0.00000000000E+00 0. -1.
<scales pt_clust_5="13000.00000" pt_clust_6="13000.00000" pt_clust_7="13000.00000" pt_clust_8="13000.00000" pt_clust_9="32.08810"></scales>
<clustering>
<clus scale="   32.088">  2  9  1 -1</clus>
<clus scale="   82.546">  5  6 -1 -1</clus>
<clus scale="   90.502">  7  8 -1 -1</clus>
<clus scale="  245.295">  2  5  1 -1</clus>
<clus scale="   32.088">  2  5  1 -1</clus>
</clustering>
</event>
<event>
 9    1  0.1426358E-005  0.9302969E+02  0.7546771E-02  0.1296297E+00
         21   -1    0    0  501  502  0.00000000000E+00  0.00000000000E+00  0.14319167932E+03  0.14319167932E+03  0.00000000000E+00 0.  1.
         -2   -1    0    0    0  501 -0.00000000000E+00 -0.00000000000E+00 -0.12839871846E+03  0.12839871846E+03  0.00000000000E+00 0.  1.
         23    2    1    2    0    0 -0.19792310393E+02  0.84386816121E+01 -0.66403344555E+02  0.11453265702E+03  0.90804066310E+02 0.  0.
         23    2    1    2    0    0  0.56986203272E+01 -0.23274998413E+02  0.23421316228E+02  0.95765834502E+02  0.89712525209E+02 0.  0.
        -11    1    4    4    0    0  0.43783831747E+02 -0.29532196262E+02  0.51484747991E+01  0.53062993991E+02  0.00000000000E+00 0. -1.
         11    1    4    4    0    0 -0.38085211420E+02  0.62571978488E+01  0.18272841429E+02  0.42702840511E+02  0.00000000000E+00 0.  1.
        -13    1    3    3    0    0  0.32544591749E+02 -0.10515679373E+02 -0.40869772852E+02  0.53292291167E+02  0.00000000000E+00 0. -1.
         13    1    3    3    0    0 -0.52336902143E+02  0.18954360985E+02 -0.25533571703E+02  0.61240365856E+02  0.00000000000E+00 0.  1.
         -2    1    1    2    0  502  0.14093690066E+02  0.14836316801E+02  0.57774989192E+02  0.61291906252E+02  0.00000000000E+00 0.  1.
<scales pt_clust_5="13000.00000" pt_clust_6="13000.00000" pt_clust_7="13000.00000" pt_clust_8="13000.00000" pt_clust_9="20.46334"></scales>
<clustering>
<clus scale="   20.463">  1  9  2 -1</clus>
<clus scale="   89.713">  5  6 -1 -1</clus>
<clus scale="   90.804">  7  8 -1 -1</clus>
<clus scale="   91.965">  1  5  2 -1</clus>
<clus scale="   20.463">  1  5  2 -1</clus>
</clustering>
</event>
<event>
 9    1  0.1426358E-005  0.1190540E+03  0.7546771E-02  0.1245953E+00
         21   -1    0    0  501  502  0.00000000000E+00  0.00000000000E+00  0.57751800888E+02  0.57751800888E+02  0.00000000000E+00 0.  1.
          2   -1    0    0  502    0 -0.00000000000E+00 -0.00000000000E+00 -0.42500114429E+03  0.42500114429E+03  0.00000000000E+00 0. -1.
         23    2    1    2    0    0  0.33937637147E+02 -0.82189268038E+02 -0.27508297082E+03  0.30354829601E+03  0.92542358842E+02 0.  0.
         23    2    1    2    0    0 -0.30478392588E+02  0.43900500304E+02 -0.95258672935E+02  0.14063577015E+03  0.88589044096E+02 0.  0.
        -11    1    3    3    0    0  0.68260176171E+00 -0.40492769241E+02 -0.24457083883E+02  0.47310456117E+02  0.00000000000E+00 0.  1.
         11    1    3    3    0    0  0.33255035386E+02 -0.41696498798E+02 -0.25062588694E+03  0.25623783989E+03  0.00000000000E+00 0. -1.
        -13    1    4    4    0    0  0.21487654588E+02  0.46705659413E+02 -0.48211835937E+02  0.70480628866E+02  0.00000000000E+00 0. -1.
         13    1    4    4    0    0 -0.51966047176E+02 -0.28051591089E+01 -0.47046836998E+02  0.70155141281E+02  0.00000000000E+00 0.  1.
          2    1    1    2  501    0 -0.34592445595E+01  0.38288767734E+02  0.30923003513E+01  0.38568879022E+02  0.00000000000E+00 0. -1.
<scales pt_clust_5="13000.00000" pt_clust_6="13000.00000" pt_clust_7="13000.00000" pt_clust_8="13000.00000" pt_clust_9="38.44471"></scales>
<clustering>
<clus scale="   38.445">  1  9  2 -1</clus>
<clus scale="   88.589">  7  8 -1 -1</clus>
<clus scale="   92.542">  5  6 -1 -1</clus>
<clus scale="  116.008">  1  7  2 -1</clus>
<clus scale="   38.445">  1  5  2 -1</clus>
</clustering>
</event>
<event>
 9    1  0.1426358E-005  0.1036786E+03  0.7546771E-02  0.1273450E+00
          1   -1    0    0  502    0 -0.00000000000E+00  0.00000000000E+00  0.36315576246E+03  0.36315576246E+03  0.00000000000E+00 0. -1.
         21   -1    0    0  501  502  0.00000000000E+00 -0.00000000000E+00 -0.10851792063E+03  0.10851792063E+03  0.00000000000E+00 0.  1.
         23    2    1    2    0    0 -0.51385405457E+02 -0.75509278074E+01  0.26024656478E+03  0.28064667562E+03  0.91306109591E+02 0.  0.
         23    2    1    2    0    0  0.42734078985E+02 -0.20284621241E+02  0.60975288124E+02  0.11834211379E+03  0.89717349316E+02 0.  0.
        -11    1    4    4    0    0  0.13432712170E+02  0.16001598947E+02 -0.17366781806E+02  0.27167886105E+02  0.00000000000E+00 0.  1.
         11    1    4    4    0    0  0.29301366814E+02 -0.36286220187E+02  0.78342069929E+02  0.91174227682E+02  0.00000000000E+00 0. -1.
        -11    1    3    3    0    0  0.91481937767E+01  0.18488991943E+02  0.12134376561E+02  0.23932725858E+02  0.00000000000E+00 0.  1.
         11    1    3    3    0    0 -0.60533599233E+02 -0.26039919751E+02  0.24811218822E+03  0.25671394976E+03  0.00000000000E+00 0. -1.
          1    1    1    2  501    0  0.86513264721E+01  0.27835549048E+02 -0.66584011073E+02  0.72684893693E+02  0.00000000000E+00 0. -1.
<scales pt_clust_5="13000.00000" pt_clust_6="13000.00000" pt_clust_7="13000.00000" pt_clust_8="13000.00000" pt_clust_9="29.14898"></scales>
<clustering>
<clus scale="   29.149">  2  9  1 -1</clus>
<clus scale="   89.717">  5  6 -1 -1</clus>
<clus scale="   91.306">  7  8 -1 -1</clus>
<clus scale="  102.282">  2  5  1 -1</clus>
<clus scale="   29.149">  2  5  1 -1</clus>
</clustering>
</event>
<event>
 9    1  0.1426358E-005  0.1085031E+03  0.7546771E-02  0.1263579E+00
         -1   -1    0    0    0  501 -0.00000000000E+00  0.00000000000E+00  0.98776903713E+02  0.98776903713E+02  0.00000000000E+00 0.  1.
         21   -1    0    0  501  502  0.00000000000E+00 -0.00000000000E+00 -0.58329219107E+03  0.58329219107E+03  0.00000000000E+00 0.  1.
         23    2    1    2    0    0 -0.55286259719E+02  0.94521917396E+01  0.13621142961E+01  0.10721693490E+03  0.91365755797E+02 0.  0.
         23    2    1    2    0    0  0.71814563401E+02 -0.57711981976E+02 -0.50428800751E+03  0.52061985784E+03  0.90833019794E+02 0.  0.
        -11    1    3    3    0    0 -0.16598912215E+02  0.45807221310E+02 -0.16127306626E+02  0.51321685766E+02  0.00000000000E+00 0.  1.
         11    1    3    3    0    0 -0.38687347503E+02 -0.36355029571E+02  0.17489420922E+02  0.55895249137E+02  0.00000000000E+00 0. -1.
        -11    1    4    4    0    0  0.82677995314E+02 -0.13412986182E+02 -0.32914536462E+03  0.33963543713E+03  0.00000000000E+00 0.  1.
         11    1    4    4    0    0 -0.10863431913E+02 -0.44298995794E+02 -0.17514264289E+03  0.18098442071E+03  0.00000000000E+00 0. -1.
         -1    1    1    2    0  502 -0.16528303682E+02  0.48259790236E+02  0.18410605854E+02  0.54232302036E+02  0.00000000000E+00 0.  1.
<scales pt_clust_5="13000.00000" pt_clust_6="13000.00000" pt_clust_7="13000.00000" pt_clust_8="13000.00000" pt_clust_9="51.01171"></scales>
<clustering>
<clus scale="   51.012">  2  9  1 -1</clus>
<clus scale="   90.833">  7  8 -1 -1</clus>
<clus scale="   91.366">  5  6 -1 -1</clus>
<clus scale="  108.055">  2  7  1 -1</clus>
<clus scale="   51.012">  2  5  1 -1</clus>
</clustering>
</event>
<event>
 9    1  0.1426358E-005  0.1228502E+03  0.7546771E-02  0.1238731E+00
          3   -1    0    0  502    0 -0.00000000000E+00  0.00000000000E+00  0.12995150119E+03  0.12995150119E+03  0.00000000000E+00 0. -1.
         21   -1    0    0  501  502  0.00000000000E+00 -0.00000000000E+00 -0.25007451053E+03  0.25007451053E+03  0.00000000000E+00 0.  1.
         23    2    1    2    0    0  0.17005399728E+02  0.71830017686E+02  0.24153450983E+02  0.11923058416E+03  0.90464401526E+02 0.  0.
         23    2    1    2    0    0 -0.25957350953E+02 -0.91952440976E+02 -0.18939443870E+02  0.13353814077E+03  0.91349313277E+02 0.  0.
        -11    1    4    4    0    0 -0.41755128269E+02 -0.50653621173E+02 -0.47385727291E+02  0.80961022879E+02  0.00000000000E+00 0.  1.
         11    1    4    4    0    0  0.15797777316E+02 -0.41298819803E+02  0.28446283420E+02  0.52577117890E+02  0.00000000000E+00 0. -1.
        -13    1    3    3    0    0 -0.21166979003E+02 -0.41776120739E+01 -0.14303440184E+02  0.25885939115E+02  0.00000000000E+00 0.  1.
         13    1    3    3    0    0  0.38172378732E+02  0.76007629760E+02  0.38456891167E+02  0.93344645042E+02  0.00000000000E+00 0. -1.
          3    1    1    2  501    0  0.89519512248E+01  0.20122423290E+02 -0.12533701645E+03  0.12725728680E+03  0.00000000000E+00 0. -1.
<scales pt_clust_5="13000.00000" pt_clust_6="13000.00000" pt_clust_7="13000.00000" pt_clust_8="13000.00000" pt_clust_9="22.02384"></scales>
<clustering>
<clus scale="   22.024">  2  9  1 -1</clus>
<clus scale="   90.464">  7  8 -1 -1</clus>
<clus scale="   91.349">  5  6 -1 -1</clus>
<clus scale="  122.194">  1  7  2 -1</clus>
<clus scale="   22.024">  2  5  1 -1</clus>
</clustering>
</event>
<event>
 9    1  0.1426358E-005  0.1899869E+03  0.7546771E-02  0.1163234E+00
         21   -1    0    0  501  502  0.00000000000E+00  0.00000000000E+00  0.26189406327E+03  0.26189406327E+03  0.00000000000E+00 0. -1.
          1   -1    0    0  502    0 -0.00000000000E+00 -0.00000000000E+00 -0.57444126099E+03  0.57444126099E+03  0.00000000000E+00 0. -1.
         23    2    1    2    0    0  0.56771561750E+02  0.18893248432E+03 -0.38547380255E+03  0.44229234937E+03  0.90077611043E+02 0.  0.
         23    2    1    2    0    0 -0.36364530295E+02 -0.66631501437E+02 -0.10364640385E+03  0.17828383895E+03  0.12361397232E+03 0.  0.
        -13    1    3    3    0    0  0.67727265211E+02  0.82865635047E+02 -0.15513209191E+03  0.18846660676E+03  0.00000000000E+00 0.  1.
         13    1    3    3    0    0 -0.10955703461E+02  0.10606684927E+03 -0.23034171064E+03  0.25382574261E+03  0.00000000000E+00 0. -1.
        -13    1    4    4    0    0 -0.23794180241E+02 -0.10339838622E+03 -0.72849179399E+02  0.12870272812E+03  0.00000000000E+00 0.  1.
         13    1    4    4    0    0 -0.12570350054E+02  0.36766884783E+02 -0.30797224455E+02  0.49581110832E+02  0.00000000000E+00 0. -1.
          1    1    1    2  501    0 -0.20407031455E+02 -0.12230098288E+03  0.17657300868E+03  0.21575913594E+03  0.00000000000E+00 0. -1.
<scales pt_clust_5="13000.00000" pt_clust_6="13000.00000" pt_clust_7="13000.00000" pt_clust_8="13000.00000" pt_clust_9="123.99184"></scales>
<clustering>
<clus scale="   90.078">  5  6 -1 -1</clus>
<clus scale="  123.614">  7  8 -1 -1</clus>
<clus scale="  123.992">  1  9  2 -1</clus>
<clus scale="  170.084">  2  5  1 -1</clus>
<clus scale="  123.992">  1  5  2 -1</clus>
</clustering>
</event>
<event>
 9    1  0.1426358E-005  0.9733160E+02  0.7546771E-02  0.1291621E+00
         21   -1    0    0  501  502  0.00000000000E+00  0.00000000000E+00  0.13235023276E+03  0.13235023276E+03  0.00000000000E+00 0. -1.
          1   -1    0    0  502    0 -0.00000000000E+00 -0.00000000000E+00 -0.20386584873E+03  0.20386584873E+03  0.00000000000E+00 0. -1.
         23    2    1    2    0    0 -0.16516920232E+02 -0.25837937087E+02 -0.12611599429E+03  0.15312559798E+03  0.81251443640E+02 0.  0.
         23    2    1    2    0    0 -0.18577581504E+02  0.52414357531E+02 -0.69347625687E+01  0.10743003321E+03  0.91655494624E+02 0.  0.
        -13    1    3    3    0    0 -0.65482707260E+01 -0.52794063995E+02 -0.55469346123E+02  0.76856628874E+02  0.00000000000E+00 0.  1.
         13    1    3    3    0    0 -0.99686495064E+01  0.26956126909E+02 -0.70646648166E+02  0.76268969103E+02  0.00000000000E+00 0. -1.
        -13    1    4    4    0    0 -0.37154024198E+02  0.13994775041E+02 -0.37756172786E+02  0.54788719879E+02  0.00000000000E+00 0. -1.
         13    1    4    4    0    0  0.18576442695E+02  0.38419582491E+02  0.30821410217E+02  0.52641313336E+02  0.00000000000E+00 0.  1.
          1    1    1    2  501    0  0.35094501736E+02 -0.26576420445E+02  0.61535140889E+02  0.75660450303E+02  0.00000000000E+00 0. -1.
<scales pt_clust_5="13000.00000" pt_clust_6="13000.00000" pt_clust_7="13000.00000" pt_clust_8="13000.00000" pt_clust_9="44.02193"></scales>
<clustering>
<clus scale="   44.022">  1  9  2 -1</clus>
<clus scale="   81.251">  5  6 -1 -1</clus>
<clus scale="   87.604">  2  5  1 -1</clus>
<clus scale="   91.655">  7  8 -1 -1</clus>
<clus scale="   44.022">  1  5  2 -1</clus>
</clustering>
</event>
<event>
 9    1  0.1426358E-005  0.9967723E+02  0.7546771E-02  0.1282198E+00
         21   -1    0    0  501  502  0.00000000000E+00  0.00000000000E+00  0.32853219291E+02  0.32853219291E+02  0.00000000000E+00 0.  1.
          1   -1    0    0  502    0 -0.00000000000E+00 -0.00000000000E+00 -0.42761057947E+03  0.42761057947E+03  0.00000000000E+00 0. -1.
         23    2    1    2    0    0  0.24641990477E+02  0.34864293565E+02 -0.20969858459E+03  0.23188005060E+03  0.89286700162E+02 0.  0.
         23    2    1    2    0    0 -0.33888404247E+02 -0.15833662774E+02 -0.18196285843E+03  0.20720044207E+03  0.91773702821E+02 0.  0.
        -11    1    3    3    0    0 -0.17205152030E+02 -0.21999256992E+02 -0.69679680407E+02  0.75068251786E+02  0.00000000000E+00 0.  1.
         11    1    3    3    0    0  0.41847142508E+02  0.56863550557E+02 -0.14001890419E+03  0.15681179882E+03  0.00000000000E+00 0. -1.
        -11    1    4    4    0    0 -0.67607369009E+01 -0.32322077858E+02 -0.13338321635E+02  0.35613692656E+02  0.00000000000E+00 0.  1.
         11    1    4    4    0    0 -0.27127667346E+02  0.16488415084E+02 -0.16862453679E+03  0.17158674942E+03  0.00000000000E+00 0. -1.
          1    1    1    2  501    0  0.92464137695E+01 -0.19030630791E+02 -0.30959171525E+01  0.21383306080E+02  0.00000000000E+00 0. -1.
<scales pt_clust_5="13000.00000" pt_clust_6="13000.00000" pt_clust_7="13000.00000" pt_clust_8="13000.00000" pt_clust_9="21.15800"></scales>
<clustering>
<clus scale="   21.158">  1  9  2 -1</clus>
<clus scale="   89.287">  5  6 -1 -1</clus>
<clus scale="   91.774">  7  8 -1 -1</clus>
<clus scale="   97.392">  2  5  1 -1</clus>
<clus scale="   21.158">  1  5  2 -1</clus>
</clustering>
</event>
<event>
 9    1  0.1426358E-005  0.1309221E+03  0.7546771E-02  0.1227291E+00
         21   -1    0    0  501  502  0.00000000000E+00  0.00000000000E+00  0.45420830513E+02  0.45420830513E+02  0.00000000000E+00 0.  1.
          2   -1    0    0  502    0 -0.00000000000E+00 -0.00000000000E+00 -0.70100548786E+03  0.70100548786E+03  0.00000000000E+00 0. -1.
         23    2    1    2    0    0 -0.98652672720E+02 -0.45806275501E+02 -0.50953148681E+03  0.52941535323E+03  0.93955922999E+02 0.  0.
         23    2    1    2    0    0  0.46005747389E+02  0.25459955852E+02 -0.10113786150E+03  0.14487875004E+03  0.89421736961E+02 0.  0.
        -11    1    3    3    0    0 -0.68510462067E+02  0.10919417811E+02 -0.16573458289E+03  0.17966877599E+03  0.00000000000E+00 0.  1.
         11    1    3    3    0    0 -0.30142210653E+02 -0.56725693312E+02 -0.34379690392E+03  0.34974657724E+03  0.00000000000E+00 0. -1.
        -13    1    4    4    0    0 -0.25785572464E+02 -0.42835591242E+00 -0.37494611340E+02  0.45507418248E+02  0.00000000000E+00 0.  1.
         13    1    4    4    0    0  0.71791319853E+02  0.25888311765E+02 -0.63643250158E+02  0.99371331796E+02  0.00000000000E+00 0. -1.
          2    1    1    2  501    0  0.52646925331E+02  0.20346319648E+02 -0.44915309038E+02  0.72132215105E+02  0.00000000000E+00 0. -1.
<scales pt_clust_5="13000.00000" pt_clust_6="13000.00000" pt_clust_7="13000.00000" pt_clust_8="13000.00000" pt_clust_9="56.44175"></scales>
<clustering>
<clus scale="   56.442">  1  9  2 -1</clus>
<clus scale="   89.422">  7  8 -1 -1</clus>
<clus scale="   93.956">  5  6 -1 -1</clus>
<clus scale="  127.707">  1  7  2 -1</clus>
<clus scale="   56.442">  1  5  2 -1</clus>
</clustering>
</event>
<event>
 9    1  0.1426358E-005  0.1547558E+03  0.7546771E-02  0.1195042E+00
          2   -1    0    0  502    0 -0.00000000000E+00  0.00000000000E+00  0.11629841535E+04  0.11629841535E+04  0.00000000000E+00 0. -1.
         21   -1    0    0  501  502  0.00000000000E+00 -0.00000000000E+00 -0.56592616179E+02  0.56592616179E+02  0.00000000000E+00 0. -1.
         23    2    1    2    0    0  0.15776395421E+03 -0.31291002389E+02  0.80679108657E+03  0.82751330576E+03  0.89430541538E+02 0.  0.
         23    2    1    2    0    0 -0.81684671974E+02 -0.17169912153E+02  0.27032016863E+03  0.29722754060E+03  0.91126427600E+02 0.  0.
        -11    1    3    3    0    0  0.23077842268E+02  0.10609990621E+02  0.36834057449E+02  0.44742669711E+02  0.00000000000E+00 0.  1.
         11    1    3    3    0    0  0.13468611195E+03 -0.41900993010E+02  0.76995702912E+03  0.78277063605E+03  0.00000000000E+00 0. -1.
        -13    1    4    4    0    0 -0.92414311955E+02  0.11304633255E+02  0.20712445857E+03  0.22708751865E+03  0.00000000000E+00 0. -1.
         13    1    4    4    0    0  0.10729639981E+02 -0.28474545408E+02  0.63195710053E+02  0.70140021952E+02  0.00000000000E+00 0.  1.
          2    1    1    2  501    0 -0.76079282241E+02  0.48460914542E+02  0.29280282080E+02  0.94835923274E+02  0.00000000000E+00 0. -1.
<scales pt_clust_5="13000.00000" pt_clust_6="13000.00000" pt_clust_7="13000.00000" pt_clust_8="13000.00000" pt_clust_9="90.20265"></scales>
<clustering>
<clus scale="   89.431">  5  6 -1 -1</clus>
<clus scale="   90.203">  2  9  1 -1</clus>
<clus scale="   91.126">  7  8 -1 -1</clus>
<clus scale="  153.763">  1  5  2 -1</clus>
<clus scale="   90.203">  2  5  1 -1</clus>
</clustering>
</event>
<event>
 9    1  0.1426358E-005  0.1308051E+03  0.7546771E-02  0.1233968E+00
         21   -1    0    0  501  502  0.00000000000E+00  0.00000000000E+00  0.79125303340E+02  0.79125303340E+02  0.00000000000E+00 0. -1.
          2   -1    0    0  502    0 -0.00000000000E+00 -0.00000000000E+00 -0.27095792516E+03  0.27095792516E+03  0.00000000000E+00 0. -1.
         23    2    1    2    0    0 -0.15422972984E+02 -0.58838823937E+02 -0.15150301701E+03  0.18922158366E+03  0.95664874752E+02 0.  0.
         23    2    1    2    0    0  0.29333279682E+02  0.40589643702E+02 -0.18307286445E+02  0.12905737283E+03  0.11752739371E+03 0.  0.
        -11    1    3    3    0    0 -0.38145476609E+02  0.11173098457E+02 -0.54328031209E+02  0.67316049274E+02  0.00000000000E+00 0.  1.
         11    1    3    3    0    0  0.22722503625E+02 -0.70011922394E+02 -0.97174985801E+02  0.12190553438E+03  0.00000000000E+00 0. -1.
        -11    1    4    4    0    0 -0.25970804021E+02  0.56924667955E+02  0.12308017605E+02  0.63768234887E+02  0.00000000000E+00 0.  1.
         11    1    4    4    0    0  0.55304083703E+02 -0.16335024253E+02 -0.30615304050E+02  0.65289137945E+02  0.00000000000E+00 0. -1.
          2    1    1    2  501    0 -0.13910306698E+02  0.18249180235E+02 -0.22022318360E+02  0.31804272003E+02  0.00000000000E+00 0. -1.
<scales pt_clust_5="13000.00000" pt_clust_6="13000.00000" pt_clust_7="13000.00000" pt_clust_8="13000.00000" pt_clust_9="22.94624"></scales>
<clustering>
<clus scale="   22.946">  1  9  2 -1</clus>
<clus scale="   95.665">  5  6 -1 -1</clus>
<clus scale="  111.575">  2  5  1 -1</clus>
<clus scale="  117.527">  7  8 -1 -1</clus>
<clus scale="   22.946">  1  5  2 -1</clus>
</clustering>
</event>
<event>
 9    1  0.1426358E-005  0.9712961E+02  0.7546771E-02  0.1286869E+00
         -2   -1    0    0    0  501 -0.00000000000E+00  0.00000000000E+00  0.40190979361E+02  0.40190979361E+02  0.00000000000E+00 0.  1.
         21   -1    0    0  501  502  0.00000000000E+00 -0.00000000000E+00 -0.43909756179E+03  0.43909756179E+03  0.00000000000E+00 0.  1.
         23    2    1    2    0    0  0.14596741614E+02 -0.61169428647E+02 -0.14419775722E+03  0.18147940090E+03  0.90482130267E+02 0.  0.
         23    2    1    2    0    0 -0.68409181617E+01  0.86015710751E+00 -0.18215605008E+03  0.20314517556E+03  0.89663803966E+02 0.  0.
        -11    1    3    3    0    0 -0.71315940496E+01 -0.80049018287E+02 -0.11651628234E+03  0.14154415923E+03  0.00000000000E+00 0.  1.
         11    1    3    3    0    0  0.21728335664E+02  0.18879589640E+02 -0.27681474879E+02  0.39935241669E+02  0.00000000000E+00 0. -1.
        -11    1    4    4    0    0  0.28956330772E+02  0.25914179130E+02 -0.12681078172E+03  0.13263102251E+03  0.00000000000E+00 0.  1.
         11    1    4    4    0    0 -0.35797248933E+02 -0.25054022022E+02 -0.55345268360E+02  0.70514153051E+02  0.00000000000E+00 0. -1.
         -2    1    1    2    0  502 -0.77558234527E+01  0.60309271540E+02 -0.72552775125E+02  0.94663964683E+02  0.00000000000E+00 0.  1.
<scales pt_clust_5="13000.00000" pt_clust_6="13000.00000" pt_clust_7="13000.00000" pt_clust_8="13000.00000" pt_clust_9="60.80596"></scales>
<clustering>
<clus scale="   60.806">  2  9  1 -1</clus>
<clus scale="   89.664">  7  8 -1 -1</clus>
<clus scale="   90.482">  5  6 -1 -1</clus>
<clus scale="   96.368">  2  7  1 -1</clus>
<clus scale="   60.806">  2  5  1 -1</clus>
</clustering>
</event>
<event>
 9    1  0.1426358E-005  0.9488044E+02  0.7546771E-02  0.1291892E+00
         21   -1    0    0  501  502  0.00000000000E+00  0.00000000000E+00  0.53955869047E+03  0.53955869047E+03  0.00000000000E+00 0. -1.
          1   -1    0    0  502    0 -0.00000000000E+00 -0.00000000000E+00 -0.58853502502E+02  0.58853502502E+02  0.00000000000E+00 0. -1.
         23    2    1    2    0    0  0.32755492838E+01 -0.24021364181E+02  0.84251307364E+01  0.95838202531E+02  0.92337549654E+02 0.  0.
         23    2    1    2    0    0  0.13289891426E+02 -0.28492849905E+02  0.39887938611E+03  0.41081444038E+03  0.93141161946E+02 0.  0.
        -13    1    4    4    0    0  0.50488573021E+02 -0.55221839407E+01  0.26960679371E+03  0.27434907278E+03  0.00000000000E+00 0. -1.
         13    1    4    4    0    0 -0.37198681595E+02 -0.22970665964E+02  0.12927259241E+03  0.13646536760E+03  0.00000000000E+00 0.  1.
        -13    1    3    3    0    0 -0.29532210019E+01  0.23103529484E+02  0.34496366000E+02  0.41623236973E+02  0.00000000000E+00 0.  1.
         13    1    3    3    0    0  0.62287702858E+01 -0.47124893665E+02 -0.26071235264E+02  0.54214965557E+02  0.00000000000E+00 0. -1.
          1    1    1    2  501    0 -0.16565440710E+02  0.52514214086E+02  0.73400671116E+02  0.91759550060E+02  0.00000000000E+00 0. -1.
<scales pt_clust_5="13000.00000" pt_clust_6="13000.00000" pt_clust_7="13000.00000" pt_clust_8="13000.00000" pt_clust_9="55.06505"></scales>
<clustering>
<clus scale="   55.065">  1  9  2 -1</clus>
<clus scale="   92.338">  7  8 -1 -1</clus>
<clus scale="   93.141">  5  6 -1 -1</clus>
<clus scale="   94.092">  2  7  1 -1</clus>
<clus scale="   55.065">  1  5  2 -1</clus>
</clustering>
</event>
<event>
 9    1  0.1426358E-005  0.1359344E+03  0.7546771E-02  0.1220311E+00
          1   -1    0    0  502    0 -0.00000000000E+00  0.00000000000E+00  0.40452693455E+03  0.40452693455E+03  0.00000000000E+00 0. -1.
         21   -1    0    0  501  502  0.00000000000E+00 -0.00000000000E+00 -0.72082814039E+02  0.72082814039E+02  0.00000000000E+00 0.  1.
         23    2    1    2    0    0 -0.84780760724E+02  0.38738532700E+02  0.26793033236E+03  0.29753865155E+03  0.89744831977E+02 0.  0.
         23    2    1    2    0    0  0.93797770061E+02 -0.57200702697E+02  0.49909136251E+02  0.15386288338E+03  0.95461630746E+02 0.  0.
        -13    1    4    4    0    0  0.39569614709E+02 -0.68149152930E+02  0.58141909838E+02  0.97931318447E+02  0.00000000000E+00 0. -1.
         13    1    4    4    0    0  0.54228155352E+02  0.10948450233E+02 -0.82327735872E+01  0.55931564937E+02  0.00000000000E+00 0.  1.
        -13    1    3    3    0    0 -0.74030919710E+02  0.34584422548E+01  0.24026153956E+03  0.25143218825E+03  0.00000000000E+00 0. -1.
         13    1    3    3    0    0 -0.10749841014E+02  0.35280090445E+02  0.27668792799E+02  0.46106463306E+02  0.00000000000E+00 0.  1.
          1    1    1    2  501    0 -0.90170093377E+01  0.18462169997E+02  0.14604651910E+02  0.25208213658E+02  0.00000000000E+00 0. -1.
<scales pt_clust_5="13000.00000" pt_clust_6="13000.00000" pt_clust_7="13000.00000" pt_clust_8="13000.00000" pt_clust_9="20.54649"></scales>
<clustering>
<clus scale="   20.546">  2  9  1 -1</clus>
<clus scale="   89.745">  7  8 -1 -1</clus>
<clus scale="   95.462">  5  6 -1 -1</clus>
<clus scale="  131.982">  1  7  2 -1</clus>
<clus scale="   20.546">  2  5  1 -1</clus>
</clustering>
</event>
<event>
 9    1  0.1426358E-005  0.1027552E+03  0.7546771E-02  0.1275457E+00
         -3   -1    0    0    0  501 -0.00000000000E+00  0.00000000000E+00  0.12313641538E+03  0.12313641538E+03  0.00000000000E+00 0.  1.
         21   -1    0    0  501  502  0.00000000000E+00 -0.00000000000E+00 -0.15598776617E+03  0.15598776617E+03  0.00000000000E+00 0. -1.
         23    2    1    2    0    0  0.45865557513E+02  0.45074093987E+02  0.82937407599E+01  0.11076281491E+03  0.89801401531E+02 0.  0.
         23    2    1    2    0    0 -0.47090991765E+02  0.16767325285E+02 -0.30377216635E+02  0.10557753149E+03  0.87892748059E+02 0.  0.
        -13    1    4    4    0    0 -0.23064862400E+02 -0.28418552487E+02  0.12641543378E+02  0.38722223877E+02  0.00000000000E+00 0.  1.
         13    1    4    4    0    0 -0.24026129365E+02  0.45185877772E+02 -0.43018760014E+02  0.66855307608E+02  0.00000000000E+00 0. -1.
        -13    1    3    3    0    0  0.19667974980E+02 -0.20458562606E+02  0.25464420851E+02  0.38128975241E+02  0.00000000000E+00 0.  1.
         13    1    3    3    0    0  0.26197582533E+02  0.65532656593E+02 -0.17170680091E+02  0.72633839672E+02  0.00000000000E+00 0. -1.
         -3    1    1    2    0  502  0.12254342523E+01 -0.61841419271E+02 -0.10767874916E+02  0.62783835155E+02  0.00000000000E+00 0.  1.
<scales pt_clust_5="13000.00000" pt_clust_6="13000.00000" pt_clust_7="13000.00000" pt_clust_8="13000.00000" pt_clust_9="61.85356"></scales>
<clustering>
<clus scale="   61.854">  2  9  1 -1</clus>
<clus scale="   87.893">  5  6 -1 -1</clus>
<clus scale="   89.801">  7  8 -1 -1</clus>
<clus scale="  101.091">  2  5  1 -1</clus>
<clus scale="   61.854">  2  5  1 -1</clus>
</clustering>
</event>
<event>
 9    1  0.1426358E-005  0.1102661E+03  0.7546771E-02  0.1261046E+00
         21   -1    0    0  501  502  0.00000000000E+00  0.00000000000E+00  0.11678180009E+03  0.11678180009E+03  0.00000000000E+00 0. -1.
         -3   -1    0    0    0  501 -0.00000000000E+00 -0.00000000000E+00 -0.14848460280E+03  0.14848460280E+03  0.00000000000E+00 0.  1.
         23    2    1    2    0    0 -0.19366219026E+01  0.42486951878E+02 -0.25908794559E+02  0.10502432424E+03  0.92465947587E+02 0.  0.
         23    2    1    2    0    0  0.20584154920E+02 -0.71628070599E+02 -0.20966077784E+02  0.12246474438E+03  0.94888088114E+02 0.  0.
        -13    1    4    4    0    0  0.37344694980E+02 -0.26581046636E+02 -0.48776186044E+02  0.66935002864E+02  0.00000000000E+00 0.  1.
         13    1    4    4    0    0 -0.16760540060E+02 -0.45047023964E+02  0.27810108260E+02  0.55529741513E+02  0.00000000000E+00 0. -1.
        -13    1    3    3    0    0 -0.40644196471E+02  0.46035338472E+02 -0.70264859410E+01  0.61810796789E+02  0.00000000000E+00 0. -1.
         13    1    3    3    0    0  0.38707574568E+02 -0.35483865946E+01 -0.18882308618E+02  0.43213527455E+02  0.00000000000E+00 0.  1.
         -3    1    1    2    0  502 -0.18647533018E+02  0.29141118722E+02  0.15172069632E+02  0.37777334275E+02  0.00000000000E+00 0.  1.
<scales pt_clust_5="13000.00000" pt_clust_6="13000.00000" pt_clust_7="13000.00000" pt_clust_8="13000.00000" pt_clust_9="34.59675"></scales>
<clustering>
<clus scale="   34.597">  1  9  2 -1</clus>
<clus scale="   92.466">  7  8 -1 -1</clus>
<clus scale="   94.888">  5  6 -1 -1</clus>
<clus scale="  108.189">  2  7  1 -1</clus>
<clus scale="   34.597">  1  5  2 -1</clus>
</clustering>
</event>
<event>
 9    1  0.1426358E-005  0.9364853E+02  0.7546771E-02  0.1295971E+00
         21   -1    0    0  501  502  0.00000000000E+00  0.00000000000E+00  0.42542751250E+02  0.42542751250E+02  0.00000000000E+00 0.  1.
          2   -1    0    0  502    0 -0.00000000000E+00 -0.00000000000E+00 -0.28122706773E+03  0.28122706773E+03  0.00000000000E+00 0. -1.
         23    2    1    2    0    0 -0.54852272212E+01  0.18499420945E+02 -0.12323457689E+03  0.15300454903E+03  0.88607645215E+02 0.  0.
         23    2    1    2    0    0  0.21996253877E+02 -0.38805309449E+02 -0.10507674620E+03  0.14261314567E+03  0.85485083495E+02 0.  0.
        -11    1    4    4    0    0  0.30409472083E+02 -0.19030565074E+02 -0.52660171729E+00  0.35877231063E+02  0.00000000000E+00 0.  1.
         11    1    4    4    0    0 -0.84132182055E+01 -0.19774744374E+02 -0.10455014448E+03  0.10673591461E+03  0.00000000000E+00 0. -1.
        -13    1    3    3    0    0 -0.11748964036E+02 -0.32797792239E+02 -0.28175047957E+02  0.44805877505E+02  0.00000000000E+00 0.  1.
         13    1    3    3    0    0  0.62637368148E+01  0.51297213184E+02 -0.95059528935E+02  0.10819867153E+03  0.00000000000E+00 0. -1.
          2    1    1    2  501    0 -0.16511026656E+02  0.20305888504E+02 -0.10372993384E+02  0.28152124270E+02  0.00000000000E+00 0. -1.
<scales pt_clust_5="13000.00000" pt_clust_6="13000.00000" pt_clust_7="13000.00000" pt_clust_8="13000.00000" pt_clust_9="26.17142"></scales>
<clustering>
<clus scale="   26.171">  1  9  2 -1</clus>
<clus scale="   85.485">  5  6 -1 -1</clus>
<clus scale="   88.608">  7  8 -1 -1</clus>
<clus scale="   90.700">  1  5  2 -1</clus>
<clus scale="   26.171">  1  5  2 -1</clus>
</clustering>
</event>
<event>
 9    1  0.1426358E-005  0.1363699E+03  0.7546771E-02  0.1218515E+00
         21   -1    0    0  501  502  0.00000000000E+00  0.00000000000E+00  0.19688267833E+03  0.19688267833E+03  0.00000000000E+00 0. -1.
         -1   -1    0    0    0  501 -0.00000000000E+00 -0.00000000000E+00 -0.17695593308E+03  0.17695593308E+03  0.00000000000E+00 0.  1.
         23    2    1    2    0    0 -0.27200996984E+02  0.89137320254E+02 -0.58781742763E+02  0.14378336854E+03  0.92374280446E+02 0.  0.
         23    2    1    2    0    0  0.19015524086E+02 -0.12409197521E+03  0.10330359925E+03  0.18653801218E+03  0.91457027632E+02 0.  0.
        -11    1    3    3    0    0 -0.55553095614E+02  0.72115846687E+02 -0.62622734716E+02  0.11049184893E+03  0.00000000000E+00 0.  1.
         11    1    3    3    0    0  0.28352098630E+02  0.17021473567E+02  0.38409919534E+01  0.33291519616E+02  0.00000000000E+00 0. -1.
        -13    1    4    4    0    0 -0.32845145476E+02 -0.40537600285E+02  0.14789925887E+02  0.54229535549E+02  0.00000000000E+00 0.  1.
         13    1    4    4    0    0  0.51860669562E+02 -0.83554374923E+02  0.88513673366E+02  0.13230847663E+03  0.00000000000E+00 0. -1.
         -1    1    1    2    0  502  0.81854728976E+01  0.34954654953E+02 -0.24595111245E+02  0.43517230686E+02  0.00000000000E+00 0.  1.
<scales pt_clust_5="13000.00000" pt_clust_6="13000.00000" pt_clust_7="13000.00000" pt_clust_8="13000.00000" pt_clust_9="35.90029"></scales>
<clustering>
<clus scale="   35.900">  1  9  2 -1</clus>
<clus scale="   91.457">  7  8 -1 -1</clus>
<clus scale="   92.374">  5  6 -1 -1</clus>
<clus scale="  135.750">  1  7  2 -1</clus>
<clus scale="   35.900">  1  5  2 -1</clus>
</clustering>
</event>
<event>
 9    1  0.1426358E-005  0.9162545E+02  0.7546771E-02  0.1302802E+00
         21   -1    0    0  501  502  0.00000000000E+00  0.00000000000E+00  0.58023671882E+03  0.58023671882E+03  0.00000000000E+00 0. -1.
         -3   -1    0    0    0  501 -0.00000000000E+00 -0.00000000000E+00 -0.57089358716E+02  0.57089358716E+02  0.00000000000E+00 0.  1.
         23    2    1    2    0    0 -0.69233762688E+01 -0.64490352652E-01 -0.11456156753E+02  0.85876316786E+02  0.84826652410E+02 0.  0.
         23    2    1    2    0    0  0.41126769494E+02  0.66581396706E+00  0.42664069360E+03  0.43819692456E+03  0.91117554759E+02 0.  0.
        -11    1    3    3    0    0 -0.23346826503E+02  0.27334607160E+02 -0.31807719413E+02  0.47999854902E+02  0.00000000000E+00 0.  1.
         11    1    3    3    0    0  0.16423450235E+02 -0.27399097512E+02  0.20351562660E+02  0.37876461883E+02  0.00000000000E+00 0. -1.
        -13    1    4    4    0    0 -0.11975273598E+02  0.28052886955E+02  0.66862622155E+02  0.73491372865E+02  0.00000000000E+00 0.  1.
         13    1    4    4    0    0  0.53102043092E+02 -0.27387072988E+02  0.35977807144E+03  0.36470555170E+03  0.00000000000E+00 0. -1.
         -3    1    1    2    0  502 -0.34203393226E+02 -0.60132361440E+00  0.10796282326E+03  0.11325283619E+03  0.00000000000E+00 0.  1.
<scales pt_clust_5="13000.00000" pt_clust_6="13000.00000" pt_clust_7="13000.00000" pt_clust_8="13000.00000" pt_clust_9="34.20868"></scales>
<clustering>
<clus scale="   34.209">  1  9  2 -1</clus>
<clus scale="   84.827">  5  6 -1 -1</clus>
<clus scale="   85.372">  2  5  1 -1</clus>
<clus scale="   91.118">  7  8 -1 -1</clus>
<clus scale="   34.209">  1  5  2 -1</clus>
</clustering>
</event>
<event>
 9    1  0.1426358E-005  0.9646240E+02  0.7546771E-02  0.1290755E+00
         21   -1    0    0  501  502  0.00000000000E+00  0.00000000000E+00  0.31339363016E+03  0.31339363016E+03  0.00000000000E+00 0.  1.
         -3   -1    0    0    0  501 -0.00000000000E+00 -0.00000000000E+00 -0.13940569503E+03  0.13940569503E+03  0.00000000000E+00 0.  1.
         23    2    1    2    0    0  0.49190773513E+02  0.14637471789E+02 -0.40827737145E+02  0.11142361259E+03  0.90079573399E+02 0.  0.
         23    2    1    2    0    0  0.31594439934E+02  0.26879401450E+02 -0.45997571290E+01  0.10390354130E+03  0.95152915208E+02 0.  0.
        -11    1    3    3    0    0 -0.20466699215E+02 -0.15049149420E+02 -0.12101648634E-01  0.25403992235E+02  0.00000000000E+00 0. -1.
         11    1    3    3    0    0  0.69657472728E+02  0.29686621209E+02 -0.40815635497E+02  0.86019620359E+02  0.00000000000E+00 0.  1.
        -11    1    4    4    0    0  0.62637532581E+02  0.69655817098E+01  0.10789005835E+02  0.63940460299E+02  0.00000000000E+00 0.  1.
         11    1    4    4    0    0 -0.31043092647E+02  0.19913819740E+02 -0.15388762964E+02  0.39963081003E+02  0.00000000000E+00 0. -1.
         -3    1    1    2    0  502 -0.80785213447E+02 -0.41516873239E+02  0.21941542941E+03  0.23747217129E+03  0.00000000000E+00 0.  1.
<scales pt_clust_5="13000.00000" pt_clust_6="13000.00000" pt_clust_7="13000.00000" pt_clust_8="13000.00000" pt_clust_9="90.82897"></scales>
<clustering>
<clus scale="   90.080">  5  6 -1 -1</clus>
<clus scale="   90.829">  1  9  2 -1</clus>
<clus scale="   91.462">  2  5  1 -1</clus>
<clus scale="   95.153">  7  8 -1 -1</clus>
<clus scale="   90.829">  1  5  2 -1</clus>
</clustering>
</event>
<event>
 9    1  0.1426358E-005  0.2247954E+03  0.7546771E-02  0.1131285E+00
         -1   -1    0    0    0  501 -0.00000000000E+00  0.00000000000E+00  0.43197615169E+03  0.43197615169E+03  0.00000000000E+00 0.  1.
         21   -1    0    0  501  502  0.00000000000E+00 -0.00000000000E+00 -0.42101769615E+03  0.42101769615E+03  0.00000000000E+00 0. -1.
         23    2    1    2    0    0  0.18202000794E+03 -0.75410204108E+02  0.33648710463E+03  0.40300532103E+03  0.10184171553E+03 0.  0.
         23    2    1    2    0    0 -0.20911005812E+03  0.82856277857E+02 -0.18021615104E+03  0.30198502373E+03  0.90138306368E+02 0.  0.
        -11    1    4    4    0    0 -0.20398570653E+03  0.54678131482E+02 -0.17148851568E+03  0.27204444038E+03  0.00000000000E+00 0. -1.
         11    1    4    4    0    0 -0.51243515843E+01  0.28178146375E+02 -0.87276353623E+01  0.29940583349E+02  0.00000000000E+00 0.  1.
        -11    1    3    3    0    0  0.13884577382E+03 -0.62745983216E+02  0.32116516544E+03  0.35547471191E+03  0.00000000000E+00 0.  1.
         11    1    3    3    0    0  0.43174234119E+02 -0.12664220892E+02  0.15321939192E+02  0.47530609119E+02  0.00000000000E+00 0. -1.
         -1    1    1    2    0  502  0.27090050179E+02 -0.74460737487E+01 -0.14531249805E+03  0.14800350308E+03  0.00000000000E+00 0.  1.
<scales pt_clust_5="13000.00000" pt_clust_6="13000.00000" pt_clust_7="13000.00000" pt_clust_8="13000.00000" pt_clust_9="28.09475"></scales>
<clustering>
<clus scale="   28.095">  2  9  1 -1</clus>
<clus scale="   90.138">  5  6 -1 -1</clus>
<clus scale="  101.842">  7  8 -1 -1</clus>
<clus scale="  219.741">  2  5  1 -1</clus>
<clus scale="   28.095">  2  5  1 -1</clus>
</clustering>
</event>
<event>
 9    1  0.1426358E-005  0.9229598E+02  0.7546771E-02  0.1298802E+00
         21   -1    0    0  501  502  0.00000000000E+00  0.00000000000E+00  0.41782628994E+03  0.41782628994E+03  0.00000000000E+00 0. -1.
         -4   -1    0    0    0  501 -0.00000000000E+00 -0.00000000000E+00 -0.28968031494E+02  0.28968031494E+02  0.00000000000E+00 0.  1.
         23    2    1    2    0    0 -0.30324253333E+01 -0.10943475185E+02  0.12203874657E+03  0.15335840956E+03  0.92175869209E+02 0.  0.
         23    2    1    2    0    0 -0.12052183137E+02 -0.70544890502E+01  0.15940501913E+03  0.18348435263E+03  0.89786004492E+02 0.  0.
        -13    1    4    4    0    0 -0.44398982451E+02 -0.22498093043E+02  0.60853309674E+02  0.78616532177E+02  0.00000000000E+00 0.  1.
         13    1    4    4    0    0  0.32346799314E+02  0.15443603993E+02  0.98551709459E+02  0.10486782046E+03  0.00000000000E+00 0. -1.
        -13    1    3    3    0    0 -0.11836009374E+02 -0.46320580175E+02  0.99785071212E+02  0.11064695071E+03  0.00000000000E+00 0.  1.
         13    1    3    3    0    0  0.88035840407E+01  0.35377104990E+02  0.22253675360E+02  0.42711458843E+02  0.00000000000E+00 0. -1.
         -4    1    1    2    0  502  0.15084608470E+02  0.17997964235E+02  0.10741449274E+03  0.10995155924E+03  0.00000000000E+00 0.  1.
<scales pt_clust_5="13000.00000" pt_clust_6="13000.00000" pt_clust_7="13000.00000" pt_clust_8="13000.00000" pt_clust_9="23.48344"></scales>
<clustering>
<clus scale="   23.483">  1  9  2 -1</clus>
<clus scale="   89.786">  5  6 -1 -1</clus>
<clus scale="   89.909">  1  5  2 -1</clus>
<clus scale="   92.176">  7  8 -1 -1</clus>
<clus scale="   23.483">  1  5  2 -1</clus>
</clustering>
</event>
<event>
 9    1  0.1426358E-005  0.1528763E+03  0.7546771E-02  0.1197538E+00
         21   -1    0    0  501  502  0.00000000000E+00  0.00000000000E+00  0.84434207057E+02  0.84434207057E+02  0.00000000000E+00 0.  1.
         -3   -1    0    0    0  501 -0.00000000000E+00 -0.00000000000E+00 -0.44288959917E+03  0.44288959917E+03  0.00000000000E+00 0.  1.
         23    2    1    2    0    0 -0.11170011414E+03  0.31742305449E+02 -0.26613915241E+03  0.30477638139E+03  0.92596461877E+02 0.  0.
         23    2    1    2    0    0  0.11393729690E+03 -0.58428698927E+02 -0.10671753109E+03  0.19214075160E+03  0.95571002407E+02 0.  0.
        -11    1    3    3    0    0 -0.43579426322E+02  0.50190697879E+02 -0.70960049254E+02  0.97229630990E+02  0.00000000000E+00 0.  1.
         11    1    3    3    0    0 -0.68120687820E+02 -0.18448392430E+02 -0.19517910316E+03  0.20754675040E+03  0.00000000000E+00 0. -1.
        -11    1    4    4    0    0  0.94149515485E+02 -0.55182867695E+02 -0.30474341653E+02  0.11330474682E+03  0.00000000000E+00 0. -1.
         11    1    4    4    0    0  0.19787781411E+02 -0.32458312319E+01 -0.76243189441E+02  0.78836004780E+02  0.00000000000E+00 0.  1.
         -3    1    1    2    0  502 -0.22371827532E+01  0.26686393478E+02  0.14401291393E+02  0.30406673236E+02  0.00000000000E+00 0.  1.
<scales pt_clust_5="13000.00000" pt_clust_6="13000.00000" pt_clust_7="13000.00000" pt_clust_8="13000.00000" pt_clust_9="26.78000"></scales>
<clustering>
<clus scale="   26.780">  1  9  2 -1</clus>
<clus scale="   92.596">  5  6 -1 -1</clus>
<clus scale="   95.571">  7  8 -1 -1</clus>
<clus scale="  151.035">  2  5  1 -1</clus>
<clus scale="   26.780">  1  5  2 -1</clus>
</clustering>
</event>
<event>
 9    1  0.1426358E-005  0.9723148E+02  0.7546771E-02  0.1288065E+00
         -3   -1    0    0    0  501 -0.00000000000E+00  0.00000000000E+00  0.50857887222E+03  0.50857887222E+03  0.00000000000E+00 0.  1.
         21   -1    0    0  501  502  0.00000000000E+00 -0.00000000000E+00 -0.25763121098E+02  0.25763121098E+02  0.00000000000E+00 0. -1.
         23    2    1    2    0    0  0.16497223494E+02  0.23675650873E+02  0.28038391863E+03  0.29518413324E+03  0.87668899082E+02 0.  0.
         23    2    1    2    0    0 -0.38431017494E+02 -0.25829601878E+02  0.14334105416E+03  0.17609082504E+03  0.91198735825E+02 0.  0.
        -11    1    3    3    0    0 -0.19487838434E+02 -0.83288380130E+01  0.16276844825E+02  0.26722295316E+02  0.00000000000E+00 0. -1.
         11    1    3    3    0    0  0.35985061928E+02  0.32004488886E+02  0.26410707380E+03  0.26846183793E+03  0.00000000000E+00 0.  1.
        -11    1    4    4    0    0  0.26709482741E+02 -0.25121602591E+02  0.43718987169E+02  0.57059979181E+02  0.00000000000E+00 0.  1.
         11    1    4    4    0    0 -0.65140500236E+02 -0.70799928751E+00  0.99622066988E+02  0.11903084585E+03  0.00000000000E+00 0. -1.
         -3    1    1    2    0  502  0.21933794000E+02  0.21539510050E+01  0.59090778340E+02  0.63067035042E+02  0.00000000000E+00 0.  1.
<scales pt_clust_5="13000.00000" pt_clust_6="13000.00000" pt_clust_7="13000.00000" pt_clust_8="13000.00000" pt_clust_9="22.03931"></scales>
<clustering>
<clus scale="   22.039">  2  9  1 -1</clus>
<clus scale="   87.669">  5  6 -1 -1</clus>
<clus scale="   91.199">  7  8 -1 -1</clus>
<clus scale="   93.929">  1  5  2 -1</clus>
<clus scale="   22.039">  2  5  1 -1</clus>
</clustering>
</event>
<event>
 9    1  0.1426358E-005  0.1300696E+03  0.7546771E-02  0.1227543E+00
         21   -1    0    0  501  502  0.00000000000E+00  0.00000000000E+00  0.28902136254E+03  0.28902136254E+03  0.00000000000E+00 0. -1.
         -2   -1    0    0    0  501 -0.00000000000E+00 -0.00000000000E+00 -0.11198257340E+03  0.11198257340E+03  0.00000000000E+00 0. -1.
         23    2    1    2    0    0 -0.70462551791E+02 -0.78103685128E+02  0.40464726037E+02  0.14425673241E+03  0.90041401347E+02 0.  0.
         23    2    1    2    0    0 -0.53831507916E+01  0.96148199353E+02  0.53291321325E+02  0.14266744997E+03  0.90777650342E+02 0.  0.
        -11    1    3    3    0    0 -0.48785794279E+02 -0.87476195716E+02  0.57171282692E+02  0.11532863523E+03  0.00000000000E+00 0. -1.
         11    1    3    3    0    0 -0.21676757512E+02  0.93725105875E+01 -0.16706556654E+02  0.28928097175E+02  0.00000000000E+00 0.  1.
        -13    1    4    4    0    0  0.37233553522E+02  0.13992970999E+02  0.15083321743E+02  0.42539949930E+02  0.00000000000E+00 0.  1.
         13    1    4    4    0    0 -0.42616704314E+02  0.82155228355E+02  0.38207999582E+02  0.10012750004E+03  0.00000000000E+00 0. -1.
         -2    1    1    2    0  502  0.75845702582E+02 -0.18044514225E+02  0.83282741778E+02  0.11407975356E+03  0.00000000000E+00 0. -1.
<scales pt_clust_5="13000.00000" pt_clust_6="13000.00000" pt_clust_7="13000.00000" pt_clust_8="13000.00000" pt_clust_9="77.96265"></scales>
<clustering>
<clus scale="   77.963">  1  9  2 -1</clus>
<clus scale="   90.041">  5  6 -1 -1</clus>
<clus scale="   90.778">  7  8 -1 -1</clus>
<clus scale="  129.557">  2  5  1 -1</clus>
<clus scale="   77.963">  1  5  2 -1</clus>
</clustering>
</event>
<event>
 9    1  0.1426358E-005  0.1083958E+03  0.7546771E-02  0.1265105E+00
         21   -1    0    0  501  502  0.00000000000E+00  0.00000000000E+00  0.89274580901E+02  0.89274580901E+02  0.00000000000E+00 0.  1.
         -1   -1    0    0    0  501 -0.00000000000E+00 -0.00000000000E+00 -0.19805601710E+03  0.19805601710E+03  0.00000000000E+00 0.  1.
         23    2    1    2    0    0  0.41757559232E+02 -0.54344273903E+02 -0.76574222695E+02  0.13868357961E+03  0.93126418450E+02 0.  0.
         23    2    1    2    0    0 -0.21574069568E+02  0.25965276801E+02  0.74927015139E+01  0.95837701181E+02  0.89381700110E+02 0.  0.
        -11    1    3    3    0    0  0.50625089101E+02 -0.76513668649E+02 -0.61229183751E+02  0.11030074378E+03  0.00000000000E+00 0.  1.
         11    1    3    3    0    0 -0.88675298689E+01  0.22169394746E+02 -0.15345038944E+02  0.28382835827E+02  0.00000000000E+00 0. -1.
        -13    1    4    4    0    0 -0.23972040000E+02  0.57422263701E+02  0.13623921781E+02  0.63699186141E+02  0.00000000000E+00 0. -1.
         13    1    4    4    0    0  0.23979704320E+01 -0.31456986900E+02 -0.61312202669E+01  0.32138515040E+02  0.00000000000E+00 0.  1.
         -1    1    1    2    0  502 -0.20183489664E+02  0.28378997102E+02 -0.39699915015E+02  0.52809317206E+02  0.00000000000E+00 0.  1.
<scales pt_clust_5="13000.00000" pt_clust_6="13000.00000" pt_clust_7="13000.00000" pt_clust_8="13000.00000" pt_clust_9="34.82444"></scales>
<clustering>
<clus scale="   34.824">  1  9  2 -1</clus>
<clus scale="   89.382">  7  8 -1 -1</clus>
<clus scale="   93.126">  5  6 -1 -1</clus>
<clus scale="  105.196">  1  7  2 -1</clus>
<clus scale="   34.824">  1  5  2 -1</clus>
</clustering>
</event>
<event>
 9    1  0.1426358E-005  0.1731705E+03  0.7546771E-02  0.1174859E+00
         21   -1    0    0  501  502  0.00000000000E+00  0.00000000000E+00  0.42598525314E+03  0.42598525314E+03  0.00000000000E+00 0. -1.
          1   -1    0    0  502    0 -0.00000000000E+00 -0.00000000000E+00 -0.18201439209E+03  0.18201439209E+03  0.00000000000E+00 0. -1.
         23    2    1    2    0    0  0.77260902962E+02 -0.12173044084E+03 -0.94035938278E+02  0.19508809320E+03  0.91809907244E+02 0.  0.
         23    2    1    2    0    0 -0.10070757248E+03  0.12403051209E+03  0.19350123223E+03  0.26649811152E+03  0.89738138427E+02 0.  0.
        -11    1    4    4    0    0 -0.43729097074E+02  0.67403060275E+01  0.17790699217E+02  0.47688307109E+02  0.00000000000E+00 0. -1.
         11    1    4    4    0    0 -0.56978475406E+02  0.11729020606E+03  0.17571053301E+03  0.21880980441E+03  0.00000000000E+00 0.  1.
        -13    1    3    3    0    0  0.19051471004E+02 -0.36298447495E+02  0.16093555799E+02  0.44040190465E+02  0.00000000000E+00 0.  1.
         13    1    3    3    0    0  0.58209431958E+02 -0.85431993341E+02 -0.11012949408E+03  0.15104790274E+03  0.00000000000E+00 0. -1.
          1    1    1    2  501    0  0.23446669517E+02 -0.23000712556E+01  0.14450556710E+03  0.14641344051E+03  0.00000000000E+00 0. -1.
<scales pt_clust_5="13000.00000" pt_clust_6="13000.00000" pt_clust_7="13000.00000" pt_clust_8="13000.00000" pt_clust_9="23.55922"></scales>
<clustering>
<clus scale="   23.559">  1  9  2 -1</clus>
<clus scale="   89.738">  5  6 -1 -1</clus>
<clus scale="   91.810">  7  8 -1 -1</clus>
<clus scale="  172.081">  1  5  2 -1</clus>
<clus scale="   23.559">  1  5  2 -1</clus>
</clustering>
</event>
<event>
 9    1  0.1426358E-005  0.9446230E+02  0.7546771E-02  0.1294599E+00
          4   -1    0    0  502    0 -0.00000000000E+00  0.00000000000E+00  0.90743454539E+02  0.90743454539E+02  0.00000000000E+00 0. -1.
         21   -1    0    0  501  502  0.00000000000E+00 -0.00000000000E+00 -0.23984916553E+03  0.23984916553E+03  0.00000000000E+00 0. -1.
         23    2    1    2    0    0 -0.16713781533E+02 -0.20536825250E+02  0.33539627149E+02  0.98492959070E+02  0.88740321797E+02 0.  0.
         23    2    1    2    0    0 -0.94864401535E+01 -0.17493221855E+02 -0.14126310946E+03  0.17008978316E+03  0.92624310430E+02 0.  0.
        -11    1    4    4    0    0 -0.33927787826E+02 -0.23989958740E+02 -0.19812876313E+02  0.46034367324E+02  0.00000000000E+00 0. -1.
         11    1    4    4    0    0  0.24441347673E+02  0.64967368856E+01 -0.12145023315E+03  0.12405541583E+03  0.00000000000E+00 0.  1.
        -13    1    3    3    0    0  0.55689345007E+01 -0.48334772988E+02  0.39121320299E+02  0.62431890995E+02  0.00000000000E+00 0.  1.
         13    1    3    3    0    0 -0.22282716033E+02  0.27797947738E+02 -0.55816931500E+01  0.36061068075E+02  0.00000000000E+00 0. -1.
          4    1    1    2  501    0  0.26200221686E+02  0.38030047105E+02 -0.41382228676E+02  0.62009877837E+02  0.00000000000E+00 0. -1.
<scales pt_clust_5="13000.00000" pt_clust_6="13000.00000" pt_clust_7="13000.00000" pt_clust_8="13000.00000" pt_clust_9="46.18156"></scales>
<clustering>
<clus scale="   46.182">  2  9  1 -1</clus>
<clus scale="   88.740">  7  8 -1 -1</clus>
<clus scale="   90.657">  1  7  2 -1</clus>
<clus scale="   92.624">  5  6 -1 -1</clus>
<clus scale="   46.182">  2  5  1 -1</clus>
</clustering>
</event>
<event>
 9    1  0.1426358E-005  0.1875747E+03  0.7546771E-02  0.1164857E+00
         21   -1    0    0  501  502  0.00000000000E+00  0.00000000000E+00  0.92109059835E+03  0.92109059835E+03  0.00000000000E+00 0. -1.
          1   -1    0    0  502    0 -0.00000000000E+00 -0.00000000000E+00 -0.87866176536E+02  0.87866176536E+02  0.00000000000E+00 0. -1.
         23    2    1    2    0    0 -0.71881213222E+02  0.10643209808E+03  0.14199757575E+03  0.21243265493E+03  0.92030544105E+02 0.  0.
         23    2    1    2    0    0  0.12805628327E+02 -0.17337189220E+03  0.18138837632E+03  0.27892763040E+03  0.12114901079E+03 0.  0.
        -11    1    4    4    0    0  0.28626432053E+02  0.63475280357E+01  0.12764930753E+02  0.31979793329E+02  0.00000000000E+00 0.  1.
         11    1    4    4    0    0 -0.15820803726E+02 -0.17971942023E+03  0.16862344557E+03  0.24694783707E+03  0.00000000000E+00 0. -1.
        -13    1    3    3    0    0 -0.71478888233E+02  0.30367333753E+02  0.96230634431E+02  0.12365978095E+03  0.00000000000E+00 0. -1.
         13    1    3    3    0    0 -0.40232498851E+00  0.76064764325E+02  0.45766941316E+02  0.88772873980E+02  0.00000000000E+00 0.  1.
          1    1    1    2  501    0  0.59075584895E+02  0.66939794117E+02  0.50983846974E+03  0.51759648955E+03  0.00000000000E+00 0. -1.
<scales pt_clust_5="13000.00000" pt_clust_6="13000.00000" pt_clust_7="13000.00000" pt_clust_8="13000.00000" pt_clust_9="89.27968"></scales>
<clustering>
<clus scale="   89.280">  1  9  2 -1</clus>
<clus scale="   92.031">  7  8 -1 -1</clus>
<clus scale="  121.149">  5  6 -1 -1</clus>
<clus scale="  170.226">  2  7  1 -1</clus>
<clus scale="   89.280">  1  5  2 -1</clus>
</clustering>
</event>
<event>
 9    1  0.1426358E-005  0.1020023E+03  0.7546771E-02  0.1279497E+00
         21   -1    0    0  501  502  0.00000000000E+00  0.00000000000E+00  0.16616081653E+03  0.16616081653E+03  0.00000000000E+00 0. -1.
          2   -1    0    0  502    0 -0.00000000000E+00 -0.00000000000E+00 -0.13326925729E+03  0.13326925729E+03  0.00000000000E+00 0. -1.
         23    2    1    2    0    0 -0.25805479380E+02  0.10926645701E+02 -0.49259362327E+02  0.10952429597E+03  0.93721781236E+02 0.  0.
         23    2    1    2    0    0  0.57373849452E+02 -0.28632962770E+02  0.89888039861E+01  0.10827997860E+03  0.86787960060E+02 0.  0.
        -13    1    3    3    0    0 -0.20831274838E+02  0.52104607957E+02 -0.24596032584E+02  0.61268238106E+02  0.00000000000E+00 0.  1.
         13    1    3    3    0    0 -0.49742045421E+01 -0.41177962256E+02 -0.24663329743E+02  0.48256057862E+02  0.00000000000E+00 0. -1.
        -13    1    4    4    0    0 -0.50785547576E+01  0.21791743512E+02  0.16294766389E+02  0.27680159237E+02  0.00000000000E+00 0.  1.
         13    1    4    4    0    0  0.62452404210E+02 -0.50424706282E+02 -0.73059624028E+01  0.80599819366E+02  0.00000000000E+00 0. -1.
          2    1    1    2  501    0 -0.31568370072E+02  0.17706317069E+02  0.73162117586E+02  0.81625799248E+02  0.00000000000E+00 0. -1.
<scales pt_clust_5="13000.00000" pt_clust_6="13000.00000" pt_clust_7="13000.00000" pt_clust_8="13000.00000" pt_clust_9="36.19497"></scales>
<clustering>
<clus scale="   36.195">  1  9  2 -1</clus>
<clus scale="   86.788">  7  8 -1 -1</clus>
<clus scale="   93.722">  5  6 -1 -1</clus>
<clus scale="   95.670">  1  7  2 -1</clus>
<clus scale="   36.195">  1  5  2 -1</clus>
</clustering>
</event>
<event>
 9    1  0.1426358E-005  0.1020888E+03  0.7546771E-02  0.1278670E+00
         21   -1    0    0  501  502  0.00000000000E+00  0.00000000000E+00  0.41693036179E+02  0.41693036179E+02  0.00000000000E+00 0.  1.
          1   -1    0    0  502    0 -0.00000000000E+00 -0.00000000000E+00 -0.54766351655E+03  0.54766351655E+03  0.00000000000E+00 0. -1.
         23    2    1    2    0    0 -0.25142909702E+02 -0.22470844882E+02 -0.29911969471E+03  0.31439947269E+03  0.90759748187E+02 0.  0.
         23    2    1    2    0    0  0.53085560792E+02 -0.16795580159E+02 -0.73803052840E+02  0.13344968413E+03  0.96238034626E+02 0.  0.
        -11    1    3    3    0    0 -0.95549234289E+01  0.34508871418E+02 -0.83940191028E+02  0.91258503375E+02  0.00000000000E+00 0.  1.
         11    1    3    3    0    0 -0.15587986273E+02 -0.56979716300E+02 -0.21517950368E+03  0.22314096932E+03  0.00000000000E+00 0. -1.
        -11    1    4    4    0    0  0.35924206778E+02 -0.45714367891E+02 -0.68714712094E+01  0.58545445432E+02  0.00000000000E+00 0.  1.
         11    1    4    4    0    0  0.17161354014E+02  0.28918787732E+02 -0.66931581631E+02  0.74904238699E+02  0.00000000000E+00 0. -1.
          1    1    1    2  501    0 -0.27942651090E+02  0.39266425040E+02 -0.13304773282E+03  0.14150739590E+03  0.00000000000E+00 0. -1.
<scales pt_clust_5="13000.00000" pt_clust_6="13000.00000" pt_clust_7="13000.00000" pt_clust_8="13000.00000" pt_clust_9="48.19384"></scales>
<clustering>
<clus scale="   48.194">  1  9  2 -1</clus>
<clus scale="   90.760">  5  6 -1 -1</clus>
<clus scale="   96.238">  7  8 -1 -1</clus>
<clus scale="   96.942">  2  5  1 -1</clus>
<clus scale="   48.194">  1  5  2 -1</clus>
</clustering>
</event>
<event>
 9    1  0.1426358E-005  0.1725733E+03  0.7546771E-02  0.1196676E+00
         21   -1    0    0  501  502  0.00000000000E+00  0.00000000000E+00  0.27336379713E+03  0.27336379713E+03  0.00000000000E+00 0. -1.
          1   -1    0    0  502    0 -0.00000000000E+00 -0.00000000000E+00 -0.25609075824E+03  0.25609075824E+03  0.00000000000E+00 0. -1.
         23    2    1    2    0    0 -0.53870372034E+02  0.51577221913E+01  0.53509454659E+02  0.11962503868E+03  0.92294469276E+02 0.  0.
         23    2    1    2    0    0 -0.95428473626E+02  0.36168878540E+02 -0.16048583842E+03  0.21124464247E+03  0.91944620742E+02 0.  0.
        -13    1    4    4    0    0 -0.45338550933E+02 -0.18381354930E+02 -0.20841427153E+02  0.53177283642E+02  0.00000000000E+00 0.  1.
         13    1    4    4    0    0 -0.50089922694E+02  0.54550233470E+02 -0.13964441127E+03  0.15806735883E+03  0.00000000000E+00 0. -1.
        -13    1    3    3    0    0  0.23908224143E+02 -0.79741843566E+01  0.17161310019E+01  0.25261351972E+02  0.00000000000E+00 0.  1.
         13    1    3    3    0    0 -0.77778596177E+02  0.13131906548E+02  0.51793323657E+02  0.94363686704E+02  0.00000000000E+00 0. -1.
          1    1    1    2  501    0  0.14929884566E+03 -0.41326600731E+02  0.12424942266E+03  0.19858487423E+03  0.00000000000E+00 0. -1.
<scales pt_clust_5="13000.00000" pt_clust_6="13000.00000" pt_clust_7="13000.00000" pt_clust_8="13000.00000" pt_clust_9="146.04011"></scales>
<clustering>
<clus scale="   91.945">  5  6 -1 -1</clus>
<clus scale="   92.294">  7  8 -1 -1</clus>
<clus scale="  106.990">  2  7  1 -1</clus>
<clus scale="  146.040">  1  9  2 -1</clus>
<clus scale="  146.040">  1  5  2 -1</clus>
</clustering>
</event>
<event>
 9    1  0.1426358E-005  0.2554557E+03  0.7546771E-02  0.1110304E+00
         21   -1    0    0  501  502  0.00000000000E+00  0.00000000000E+00  0.62762642517E+03  0.62762642517E+03  0.00000000000E+00 0.  1.
         -3   -1    0    0    0  501 -0.00000000000E+00 -0.00000000000E+00 -0.17338346350E+03  0.17338346350E+03  0.00000000000E+00 0.  1.
         23    2    1    2    0    0 -0.19321765467E+03 -0.11884690980E+03  0.45924607492E+02  0.25153883149E+03  0.98514283885E+02 0.  0.
         23    2    1    2    0    0  0.25644790720E+03  0.63015314385E+02  0.27791111430E+03  0.39416078678E+03  0.91606110231E+02 0.  0.
        -11    1    4    4    0    0  0.89450487694E+02  0.16947699987E+02  0.38978283354E+02  0.99034947654E+02  0.00000000000E+00 0. -1.
         11    1    4    4    0    0  0.16699741950E+03  0.46067614397E+02  0.23893283094E+03  0.29512583913E+03  0.00000000000E+00 0.  1.
        -13    1    3    3    0    0 -0.18129786665E+03 -0.76526003057E+02  0.14156939803E+02  0.19729562727E+03  0.00000000000E+00 0.  1.
         13    1    3    3    0    0 -0.11919788023E+02 -0.42320906738E+02  0.31767667689E+02  0.54243204220E+02  0.00000000000E+00 0. -1.
         -3    1    1    2    0  502 -0.63230252528E+02  0.55831595410E+02  0.13040723988E+03  0.15531027040E+03  0.00000000000E+00 0.  1.
<scales pt_clust_5="13000.00000" pt_clust_6="13000.00000" pt_clust_7="13000.00000" pt_clust_8="13000.00000" pt_clust_9="84.35183"></scales>
<clustering>
<clus scale="   84.352">  1  9  2 -1</clus>
<clus scale="   91.606">  5  6 -1 -1</clus>
<clus scale="   98.514">  7  8 -1 -1</clus>
<clus scale="  252.872">  1  5  2 -1</clus>
<clus scale="   84.352">  1  5  2 -1</clus>
</clustering>
</event>
<event>
 9    1  0.1426358E-005  0.9807802E+02  0.7546771E-02  0.1287843E+00
         -4   -1    0    0    0  501 -0.00000000000E+00  0.00000000000E+00  0.10341594172E+03  0.10341594172E+03  0.00000000000E+00 0.  1.
         21   -1    0    0  501  502  0.00000000000E+00 -0.00000000000E+00 -0.25462787537E+03  0.25462787537E+03  0.00000000000E+00 0. -1.
         23    2    1    2    0    0  0.23842415979E+02  0.35061901947E+02 -0.83955776914E+02  0.12834516958E+03  0.87327614819E+02 0.  0.
         23    2    1    2    0    0  0.18637998746E+02 -0.18845956317E+02 -0.12352396647E+03  0.15735496125E+03  0.93807614142E+02 0.  0.
        -11    1    4    4    0    0 -0.13696607463E+02  0.33174233446E+02 -0.52083232042E+02  0.63251797450E+02  0.00000000000E+00 0. -1.
         11    1    4    4    0    0  0.32334606209E+02 -0.52020189763E+02 -0.71440734431E+02  0.94103163803E+02  0.00000000000E+00 0.  1.
        -11    1    3    3    0    0 -0.12305660297E+01 -0.28031959261E+02 -0.33834455952E+02  0.43955380129E+02  0.00000000000E+00 0.  1.
         11    1    3    3    0    0  0.25072982009E+02  0.63093861208E+02 -0.50121320962E+02  0.84389789453E+02  0.00000000000E+00 0. -1.
         -4    1    1    2    0  502 -0.42480414725E+02 -0.16215945630E+02  0.56267809740E+02  0.72343686254E+02  0.00000000000E+00 0.  1.
<scales pt_clust_5="13000.00000" pt_clust_6="13000.00000" pt_clust_7="13000.00000" pt_clust_8="13000.00000" pt_clust_9="45.47026"></scales>
<clustering>
<clus scale="   45.470">  2  9  1 -1</clus>
<clus scale="   87.328">  7  8 -1 -1</clus>
<clus scale="   91.900">  1  7  2 -1</clus>
<clus scale="   93.808">  5  6 -1 -1</clus>
<clus scale="   45.470">  2  5  1 -1</clus>
</clustering>
</event>
<event>
 9    1  0.1426358E-005  0.9388895E+02  0.7546771E-02  0.1294134E+00
         -1   -1    0    0    0  501 -0.00000000000E+00  0.00000000000E+00  0.56581977065E+02  0.56581977065E+02  0.00000000000E+00 0.  1.
         21   -1    0    0  501  502  0.00000000000E+00 -0.00000000000E+00 -0.22532616910E+03  0.22532616910E+03  0.00000000000E+00 0. -1.
         23    2    1    2    0    0 -0.16378812992E+02 -0.21154791110E+02 -0.54423339801E+02  0.11050458976E+03  0.92377344300E+02 0.  0.
         23    2    1    2    0    0 -0.71359076275E+01 -0.37073940211E+01 -0.83437983435E+02  0.12530776571E+03  0.93142219850E+02 0.  0.
        -11    1    3    3    0    0  0.15396932806E+02  0.31245801608E+02 -0.17889305368E+02  0.39158561063E+02  0.00000000000E+00 0. -1.
         11    1    3    3    0    0 -0.31775745798E+02 -0.52400592718E+02 -0.36534034433E+02  0.71346028693E+02  0.00000000000E+00 0.  1.
        -11    1    4    4    0    0  0.13839964961E+02 -0.42940918626E+02 -0.24116671843E+02  0.51157413767E+02  0.00000000000E+00 0.  1.
         11    1    4    4    0    0 -0.20975872588E+02  0.39233524605E+02 -0.59321311591E+02  0.74150351939E+02  0.00000000000E+00 0. -1.
         -1    1    1    2    0  502  0.23514720619E+02  0.24862185131E+02 -0.30882868801E+02  0.46095790705E+02  0.00000000000E+00 0.  1.
<scales pt_clust_5="13000.00000" pt_clust_6="13000.00000" pt_clust_7="13000.00000" pt_clust_8="13000.00000" pt_clust_9="34.22090"></scales>
<clustering>
<clus scale="   34.221">  2  9  1 -1</clus>
<clus scale="   92.377">  5  6 -1 -1</clus>
<clus scale="   93.130">  1  5  2 -1</clus>
<clus scale="   93.142">  7  8 -1 -1</clus>
<clus scale="   34.221">  2  5  1 -1</clus>
</clustering>
</event>
<event>
 9    1  0.1426358E-005  0.1139474E+03  0.7546771E-02  0.1254304E+00
          2   -1    0    0  502    0 -0.00000000000E+00  0.00000000000E+00  0.78350264762E+02  0.78350264762E+02  0.00000000000E+00 0. -1.
         21   -1    0    0  501  502  0.00000000000E+00 -0.00000000000E+00 -0.29512896706E+03  0.29512896706E+03  0.00000000000E+00 0.  1.
         23    2    1    2    0    0  0.58650785493E+02 -0.13288251749E+02 -0.83604602132E+00  0.11084043478E+03  0.93104300303E+02 0.  0.
         23    2    1    2    0    0 -0.82711693942E+02  0.15807468653E+02 -0.16512357695E+03  0.20635511742E+03  0.90694754194E+02 0.  0.
        -11    1    4    4    0    0 -0.71112366176E+02 -0.28764195591E+02 -0.11549464055E+03  0.13864833056E+03  0.00000000000E+00 0.  1.
         11    1    4    4    0    0 -0.11599327766E+02  0.44571664244E+02 -0.49628936404E+02  0.67706786858E+02  0.00000000000E+00 0. -1.
        -11    1    3    3    0    0  0.57735656110E+01 -0.27046059554E+02 -0.36350575211E+02  0.45674803945E+02  0.00000000000E+00 0.  1.
         11    1    3    3    0    0  0.52877219882E+02  0.13757807805E+02  0.35514529189E+02  0.65165630831E+02  0.00000000000E+00 0. -1.
          2    1    1    2  501    0  0.24060908448E+02 -0.25192169040E+01 -0.50819079323E+02  0.56283679628E+02  0.00000000000E+00 0. -1.
<scales pt_clust_5="13000.00000" pt_clust_6="13000.00000" pt_clust_7="13000.00000" pt_clust_8="13000.00000" pt_clust_9="24.19243"></scales>
<clustering>
<clus scale="   24.192">  2  9  1 -1</clus>
<clus scale="   90.695">  5  6 -1 -1</clus>
<clus scale="   93.104">  7  8 -1 -1</clus>
<clus scale="  111.987">  2  5  1 -1</clus>
<clus scale="   24.192">  2  5  1 -1</clus>
</clustering>
</event>
<event>
 9    1  0.1426358E-005  0.1506708E+03  0.7546771E-02  0.1216550E+00
         -1   -1    0    0    0  501 -0.00000000000E+00  0.00000000000E+00  0.40728675925E+03  0.40728675925E+03  0.00000000000E+00 0.  1.
         21   -1    0    0  501  502  0.00000000000E+00 -0.00000000000E+00 -0.11421901010E+03  0.11421901010E+03  0.00000000000E+00 0.  1.
         23    2    1    2    0    0 -0.49975334089E+02  0.28711110566E+01  0.15545785424E+03  0.18754329825E+03  0.92193096154E+02 0.  0.
         23    2    1    2    0    0 -0.40552338380E+02  0.86634549706E+02  0.15623412363E+03  0.20530251350E+03  0.92682162862E+02 0.  0.
        -11    1    3    3    0    0 -0.72562414562E+02 -0.10775649973E+02  0.84848548278E+02  0.11216369637E+03  0.00000000000E+00 0.  1.
         11    1    3    3    0    0  0.22587080473E+02  0.13646761030E+02  0.70609305964E+02  0.75379601880E+02  0.00000000000E+00 0. -1.
        -13    1    4    4    0    0 -0.11374464620E+02 -0.19605761005E+02  0.21313519202E+02  0.31113187088E+02  0.00000000000E+00 0. -1.
         13    1    4    4    0    0 -0.29177873760E+02  0.10624031071E+03  0.13492060443E+03  0.17418932641E+03  0.00000000000E+00 0.  1.
         -1    1    1    2    0  502  0.90527672469E+02 -0.89505660762E+02 -0.18624228722E+02  0.12865995759E+03  0.00000000000E+00 0.  1.
<scales pt_clust_5="13000.00000" pt_clust_6="13000.00000" pt_clust_7="13000.00000" pt_clust_8="13000.00000" pt_clust_9="118.79274"></scales>
<clustering>
<clus scale="   92.193">  5  6 -1 -1</clus>
<clus scale="   92.682">  7  8 -1 -1</clus>
<clus scale="  104.906">  1  5  2 -1</clus>
<clus scale="  118.793">  2  9  1 -1</clus>
<clus scale="  118.793">  2  5  1 -1</clus>
</clustering>
</event>
<event>
 9    1  0.1426358E-005  0.1536407E+03  0.7546771E-02  0.1196214E+00
          1   -1    0    0  502    0 -0.00000000000E+00  0.00000000000E+00  0.29348666143E+03  0.29348666143E+03  0.00000000000E+00 0. -1.
         21   -1    0    0  501  502  0.00000000000E+00 -0.00000000000E+00 -0.23751079126E+03  0.23751079126E+03  0.00000000000E+00 0.  1.
         23    2    1    2    0    0  0.19881584664E+02  0.11873684375E+03  0.15772814609E+03  0.21812471411E+03  0.90589775158E+02 0.  0.
         23    2    1    2    0    0 -0.98881643783E+00 -0.13079830470E+03  0.43901396324E+02  0.16550446597E+03  0.91406900104E+02 0.  0.
        -11    1    3    3    0    0 -0.29397744574E+02  0.10193751570E+02  0.38844235884E+02  0.49769615414E+02  0.00000000000E+00 0. -1.
         11    1    3    3    0    0  0.49279329237E+02  0.10854309218E+03  0.11888391021E+03  0.16835509870E+03  0.00000000000E+00 0.  1.
        -13    1    4    4    0    0  0.13779388006E+02 -0.34364544121E+02 -0.26213264781E+02  0.45364398783E+02  0.00000000000E+00 0.  1.
         13    1    4    4    0    0 -0.14768204444E+02 -0.96433760576E+02  0.70114661105E+02  0.12014006718E+03  0.00000000000E+00 0. -1.
          1    1    1    2  501    0 -0.18892768226E+02  0.12061460945E+02 -0.14565367225E+03  0.14736827261E+03  0.00000000000E+00 0. -1.
<scales pt_clust_5="13000.00000" pt_clust_6="13000.00000" pt_clust_7="13000.00000" pt_clust_8="13000.00000" pt_clust_9="22.41463"></scales>
<clustering>
<clus scale="   22.415">  2  9  1 -1</clus>
<clus scale="   90.590">  5  6 -1 -1</clus>
<clus scale="   91.407">  7  8 -1 -1</clus>
<clus scale="  153.156">  1  5  2 -1</clus>
<clus scale="   22.415">  2  5  1 -1</clus>
</clustering>
</event>
<event>
 9    1  0.1426358E-005  0.1387640E+03  0.7546771E-02  0.1215411E+00
          1   -1    0    0  502    0 -0.00000000000E+00  0.00000000000E+00  0.31211014413E+03  0.31211014413E+03  0.00000000000E+00 0. -1.
         21   -1    0    0  501  502  0.00000000000E+00 -0.00000000000E+00 -0.31357394870E+03  0.31357394870E+03  0.00000000000E+00 0. -1.
         23    2    1    2    0    0  0.20679242808E+02  0.10057085284E+03  0.25175173807E+03  0.28721459277E+03  0.92580544131E+02 0.  0.
         23    2    1    2    0    0 -0.52773726344E+02 -0.99103546303E+02 -0.85707642523E+02  0.16790835131E+03  0.90779046990E+02 0.  0.
        -13    1    3    3    0    0 -0.22938064037E+02 -0.21476680078E+01  0.22295175714E+02  0.32059976915E+02  0.00000000000E+00 0.  1.
         13    1    3    3    0    0  0.43617306845E+02  0.10271852084E+03  0.22945656236E+03  0.25515461585E+03  0.00000000000E+00 0. -1.
        -13    1    4    4    0    0 -0.53136238961E+02 -0.86127780023E+01 -0.34415942155E+02  0.63891289784E+02  0.00000000000E+00 0. -1.
         13    1    4    4    0    0  0.36251261697E+00 -0.90490768300E+02 -0.51291700367E+02  0.10401706153E+03  0.00000000000E+00 0.  1.
          1    1    1    2  501    0  0.32094483536E+02 -0.14673065345E+01 -0.16750790011E+03  0.17056114875E+03  0.00000000000E+00 0. -1.
<scales pt_clust_5="13000.00000" pt_clust_6="13000.00000" pt_clust_7="13000.00000" pt_clust_8="13000.00000" pt_clust_9="32.12801"></scales>
<clustering>
<clus scale="   32.128">  2  9  1 -1</clus>
<clus scale="   90.779">  7  8 -1 -1</clus>
<clus scale="   92.581">  5  6 -1 -1</clus>
<clus scale="  137.569">  2  7  1 -1</clus>
<clus scale="   32.128">  2  5  1 -1</clus>
</clustering>
</event>
<event>
 9    1  0.1426358E-005  0.1676352E+03  0.7546771E-02  0.1180477E+00
         21   -1    0    0  501  502  0.00000000000E+00  0.00000000000E+00  0.44302212446E+03  0.44302212446E+03  0.00000000000E+00 0.  1.
         -4   -1    0    0    0  501 -0.00000000000E+00 -0.00000000000E+00 -0.87131556092E+02  0.87131556092E+02  0.00000000000E+00 0.  1.
         23    2    1    2    0    0  0.42973942233E+02 -0.14524459094E+03  0.96743676497E+02  0.20200745801E+03  0.92222140716E+02 0.  0.
         23    2    1    2    0    0 -0.33383794254E+02  0.12141733184E+03  0.15017372285E+03  0.21618703006E+03  0.91258088645E+02 0.  0.
        -11    1    3    3    0    0  0.15923195557E+02 -0.53699443618E+02  0.90391565877E+02  0.10633820378E+03  0.00000000000E+00 0.  1.
         11    1    3    3    0    0  0.27050746676E+02 -0.91545147325E+02  0.63521106201E+01  0.95669254225E+02  0.00000000000E+00 0. -1.
        -11    1    4    4    0    0  0.56151274627E+01  0.35853009682E+02 -0.30417598600E+01  0.36417307187E+02  0.00000000000E+00 0. -1.
         11    1    4    4    0    0 -0.38998921717E+02  0.85564322156E+02  0.15321548271E+03  0.17976972287E+03  0.00000000000E+00 0.  1.
         -4    1    1    2    0  502 -0.95901479785E+01  0.23827259105E+02  0.10897316902E+03  0.11195919248E+03  0.00000000000E+00 0.  1.
<scales pt_clust_5="13000.00000" pt_clust_6="13000.00000" pt_clust_7="13000.00000" pt_clust_8="13000.00000" pt_clust_9="25.68481"></scales>
<clustering>
<clus scale="   25.685">  1  9  2 -1</clus>
<clus scale="   91.258">  7  8 -1 -1</clus>
<clus scale="   92.222">  5  6 -1 -1</clus>
<clus scale="  167.107">  1  7  2 -1</clus>
<clus scale="   25.685">  1  5  2 -1</clus>
</clustering>
</event>
<event>
 9    1  0.1426358E-005  0.2467764E+03  0.7546771E-02  0.1146466E+00
          3   -1    0    0  502    0 -0.00000000000E+00  0.00000000000E+00  0.12039124447E+04  0.12039124447E+04  0.00000000000E+00 0. -1.
         21   -1    0    0  501  502  0.00000000000E+00 -0.00000000000E+00 -0.17822350137E+03  0.17822350137E+03  0.00000000000E+00 0. -1.
         23    2    1    2    0    0 -0.64287719051E+02 -0.31264970972E+02  0.18793727626E+03  0.22037263691E+03  0.90184644266E+02 0.  0.
         23    2    1    2    0    0  0.25871564802E+03  0.13641178066E+03  0.88391620116E+03  0.93595534797E+03  0.95721482917E+02 0.  0.
        -11    1    4    4    0    0  0.15629358143E+03  0.54244969247E+02  0.36602057878E+03  0.40167308146E+03  0.00000000000E+00 0.  1.
         11    1    4    4    0    0  0.10242206659E+03  0.82166811410E+02  0.51789562238E+03  0.53428226651E+03  0.00000000000E+00 0. -1.
        -13    1    3    3    0    0  0.31002021189E+01  0.20076471000E+02  0.83291760603E+02  0.85733268486E+02  0.00000000000E+00 0.  1.
         13    1    3    3    0    0 -0.67387921170E+02 -0.51341441971E+02  0.10464551565E+03  0.13463936842E+03  0.00000000000E+00 0. -1.
          3    1    1    2  501    0 -0.19442792897E+03 -0.10514680969E+03 -0.46164534054E+02  0.22580796123E+03  0.00000000000E+00 0. -1.
<scales pt_clust_5="13000.00000" pt_clust_6="13000.00000" pt_clust_7="13000.00000" pt_clust_8="13000.00000" pt_clust_9="227.45548"></scales>
<clustering>
<clus scale="   90.185">  7  8 -1 -1</clus>
<clus scale="   95.721">  5  6 -1 -1</clus>
<clus scale="  115.081">  1  7  2 -1</clus>
<clus scale="  227.455">  2  9  1 -1</clus>
<clus scale="  227.455">  2  5  1 -1</clus>
</clustering>
</event>
<event>
 9    1  0.1426358E-005  0.1076283E+03  0.7546771E-02  0.1265276E+00
         21   -1    0    0  501  502  0.00000000000E+00  0.00000000000E+00  0.24104746039E+03  0.24104746039E+03  0.00000000000E+00 0.  1.
         -1   -1    0    0    0  501 -0.00000000000E+00 -0.00000000000E+00 -0.43715021167E+03  0.43715021167E+03  0.00000000000E+00 0.  1.
         23    2    1    2    0    0  0.41099959422E+02 -0.45023710465E+01 -0.18567349571E+03  0.21084006745E+03  0.90936291009E+02 0.  0.
         23    2    1    2    0    0 -0.73454639284E+02 -0.28602458983E+02 -0.22094232936E+03  0.25181524376E+03  0.91551730697E+02 0.  0.
        -13    1    4    4    0    0 -0.29925831945E+02 -0.53540148353E+02 -0.16815654990E+03  0.17899365402E+03  0.00000000000E+00 0.  1.
         13    1    4    4    0    0 -0.43528807339E+02  0.24937689370E+02 -0.52785779458E+02  0.72821589741E+02  0.00000000000E+00 0. -1.
        -13    1    3    3    0    0  0.60472457796E+01  0.38732521026E+02 -0.11090254402E+03  0.11762717219E+03  0.00000000000E+00 0. -1.
         13    1    3    3    0    0  0.35052713643E+02 -0.43234892073E+02 -0.74770951691E+02  0.93212895262E+02  0.00000000000E+00 0.  1.
         -1    1    1    2    0  502  0.32354679862E+02  0.33104830030E+02  0.21051307380E+03  0.21554236085E+03  0.00000000000E+00 0.  1.
<scales pt_clust_5="13000.00000" pt_clust_6="13000.00000" pt_clust_7="13000.00000" pt_clust_8="13000.00000" pt_clust_9="46.28990"></scales>
<clustering>
<clus scale="   46.290">  1  9  2 -1</clus>
<clus scale="   90.936">  7  8 -1 -1</clus>
<clus scale="   91.552">  5  6 -1 -1</clus>
<clus scale="  107.105">  2  7  1 -1</clus>
<clus scale="   46.290">  1  5  2 -1</clus>
</clustering>
</event>
<event>
 9    1  0.1426358E-005  0.1011092E+03  0.7546771E-02  0.1278253E+00
         21   -1    0    0  501  502  0.00000000000E+00  0.00000000000E+00  0.34142183533E+03  0.34142183533E+03  0.00000000000E+00 0. -1.
          1   -1    0    0  502    0 -0.00000000000E+00 -0.00000000000E+00 -0.11955053683E+03  0.11955053683E+03  0.00000000000E+00 0. -1.
         23    2    1    2    0    0 -0.32150173805E+02  0.21591776221E+02 -0.60983796541E+02  0.11632255338E+03  0.91170579178E+02 0.  0.
         23    2    1    2    0    0  0.60473382319E+02 -0.76436555821E+01  0.72343170717E+02  0.13178360612E+03  0.91749272763E+02 0.  0.
        -13    1    4    4    0    0  0.12540710290E+02 -0.30967909192E+02  0.70990951812E+02  0.78460155834E+02  0.00000000000E+00 0.  1.
         13    1    4    4    0    0  0.47932672029E+02  0.23324253610E+02  0.13522189047E+01  0.53323450285E+02  0.00000000000E+00 0. -1.
        -13    1    3    3    0    0 -0.47877779556E+02  0.46387460758E+01 -0.75133316904E+02  0.89212191147E+02  0.00000000000E+00 0.  1.
         13    1    3    3    0    0  0.15727605752E+02  0.16953030145E+02  0.14149520362E+02  0.27110362230E+02  0.00000000000E+00 0. -1.
          1    1    1    2  501    0 -0.28323208515E+02 -0.13948120639E+02  0.21051192432E+03  0.21286621266E+03  0.00000000000E+00 0. -1.
<scales pt_clust_5="13000.00000" pt_clust_6="13000.00000" pt_clust_7="13000.00000" pt_clust_8="13000.00000" pt_clust_9="31.57141"></scales>
<clustering>
<clus scale="   31.571">  1  9  2 -1</clus>
<clus scale="   91.171">  7  8 -1 -1</clus>
<clus scale="   91.749">  5  6 -1 -1</clus>
<clus scale="  100.584">  2  7  1 -1</clus>
<clus scale="   31.571">  1  5  2 -1</clus>
</clustering>
</event>
<event>
 9    1  0.1426358E-005  0.1140197E+03  0.7546771E-02  0.1255114E+00
         -3   -1    0    0    0  501 -0.00000000000E+00  0.00000000000E+00  0.13514509430E+03  0.13514509430E+03  0.00000000000E+00 0.  1.
         21   -1    0    0  501  502  0.00000000000E+00 -0.00000000000E+00 -0.15132910340E+03  0.15132910340E+03  0.00000000000E+00 0. -1.
         23    2    1    2    0    0  0.53162218266E+02  0.26480045573E+02  0.38089775336E+02  0.11269086670E+03  0.87869142407E+02 0.  0.
         23    2    1    2    0    0 -0.76058852202E+02 -0.39025431166E+02 -0.68961122788E+02  0.14382735575E+03  0.92858701964E+02 0.  0.
        -13    1    3    3    0    0  0.75304799786E+02  0.34031116071E+02  0.30723629107E+02  0.88163887830E+02  0.00000000000E+00 0.  1.
         13    1    3    3    0    0 -0.22142581521E+02 -0.75510704985E+01  0.73661462294E+01  0.24526978867E+02  0.00000000000E+00 0. -1.
        -13    1    4    4    0    0 -0.39008385563E+02 -0.51052860296E+02  0.42870997972E+00  0.64251322795E+02  0.00000000000E+00 0.  1.
         13    1    4    4    0    0 -0.37050466639E+02  0.12027429130E+02 -0.69389832768E+02  0.79576032957E+02  0.00000000000E+00 0. -1.
         -3    1    1    2    0  502  0.22896633936E+02  0.12545385593E+02  0.14687338356E+02  0.29955975252E+02  0.00000000000E+00 0.  1.
<scales pt_clust_5="13000.00000" pt_clust_6="13000.00000" pt_clust_7="13000.00000" pt_clust_8="13000.00000" pt_clust_9="26.10830"></scales>
<clustering>
<clus scale="   26.108">  2  9  1 -1</clus>
<clus scale="   87.869">  5  6 -1 -1</clus>
<clus scale="   92.859">  7  8 -1 -1</clus>
<clus scale="  109.994">  1  5  2 -1</clus>
<clus scale="   26.108">  2  5  1 -1</clus>
</clustering>
</event>
<event>
 9    1  0.1426358E-005  0.1007554E+03  0.7546771E-02  0.1279751E+00
          2   -1    0    0  502    0 -0.00000000000E+00  0.00000000000E+00  0.30434400356E+03  0.30434400356E+03  0.00000000000E+00 0. -1.
         21   -1    0    0  501  502  0.00000000000E+00 -0.00000000000E+00 -0.82149807509E+02  0.82149807509E+02  0.00000000000E+00 0. -1.
         23    2    1    2    0    0 -0.44251901370E+02  0.32289685588E+02  0.16372058190E+03  0.19610531427E+03  0.93016185568E+02 0.  0.
         23    2    1    2    0    0 -0.18328663709E+01 -0.10945409583E+02  0.89339851416E+02  0.13095695182E+03  0.95104956703E+02 0.  0.
        -11    1    3    3    0    0 -0.63559949894E+02 -0.49789042729E+01  0.78659091980E+02  0.10125171342E+03  0.00000000000E+00 0. -1.
         11    1    3    3    0    0  0.19308048525E+02  0.37268589861E+02  0.85061489918E+02  0.94853600855E+02  0.00000000000E+00 0.  1.
        -11    1    4    4    0    0 -0.39985323787E+02 -0.29662696786E+02  0.30537443419E+02  0.58405797225E+02  0.00000000000E+00 0. -1.
         11    1    4    4    0    0  0.38152457416E+02  0.18717287203E+02  0.58802407997E+02  0.72551154597E+02  0.00000000000E+00 0.  1.
          2    1    1    2  501    0  0.46084767741E+02 -0.21344276005E+02 -0.30866237262E+02  0.59431544979E+02  0.00000000000E+00 0. -1.
<scales pt_clust_5="13000.00000" pt_clust_6="13000.00000" pt_clust_7="13000.00000" pt_clust_8="13000.00000" pt_clust_9="50.78764"></scales>
<clustering>
<clus scale="   50.788">  2  9  1 -1</clus>
<clus scale="   93.016">  5  6 -1 -1</clus>
<clus scale="   95.105">  7  8 -1 -1</clus>
<clus scale="   98.786">  1  5  2 -1</clus>
<clus scale="   50.788">  2  5  1 -1</clus>
</clustering>
</event>
<event>
 9    1  0.1922867E-005  0.9929127E+02  0.7546771E-02  0.1283455E+00
         21   -1    0    0  501  502  0.00000000000E+00  0.00000000000E+00  0.12997084631E+03  0.12997084631E+03  0.00000000000E+00 0.  1.
         -3   -1    0    0    0  501 -0.00000000000E+00 -0.00000000000E+00 -0.47745555876E+03  0.47745555876E+03  0.00000000000E+00 0.  1.
         23    2    1    2    0    0 -0.48530479398E+02  0.25214568396E+02 -0.32941290851E+03  0.34515555648E+03  0.87341353246E+02 0.  0.
         23    2    1    2    0    0  0.72155184615E+01 -0.11900307825E+02 -0.12023872007E+03  0.15126510873E+03  0.90719911163E+02 0.  0.
        -13    1    4    4    0    0  0.61934111964E+00  0.39418873856E+02 -0.60774479121E+02  0.72441483364E+02  0.00000000000E+00 0.  1.
         13    1    4    4    0    0  0.65961773419E+01 -0.51319181681E+02 -0.59464240945E+02  0.78823625361E+02  0.00000000000E+00 0. -1.
        -13    1    3    3    0    0 -0.25801962646E+02  0.48199595765E+02 -0.28516240793E+03  0.29035588715E+03  0.00000000000E+00 0.  1.
         13    1    3    3    0    0 -0.22728516751E+02 -0.22985027369E+02 -0.44250500580E+02  0.54799669328E+02  0.00000000000E+00 0. -1.
         -3    1    1    2    0  502  0.41314960936E+02 -0.13314260571E+02  0.10216691613E+03  0.11100573987E+03  0.00000000000E+00 0.  1.
<scales pt_clust_5="13000.00000" pt_clust_6="13000.00000" pt_clust_7="13000.00000" pt_clust_8="13000.00000" pt_clust_9="43.40732"></scales>
<clustering>
<clus scale="   43.407">  1  9  2 -1</clus>
<clus scale="   87.341">  7  8 -1 -1</clus>
<clus scale="   90.720">  5  6 -1 -1</clus>
<clus scale="   96.214">  2  7  1 -1</clus>
<clus scale="   43.407">  1  5  2 -1</clus>
</clustering>
</event>
<event>
 9    1  0.1426358E-005  0.9187359E+02  0.7546771E-02  0.1298541E+00
         -4   -1    0    0    0  501 -0.00000000000E+00  0.00000000000E+00  0.23248096359E+03  0.23248096359E+03  0.00000000000E+00 0.  1.
         21   -1    0    0  501  502  0.00000000000E+00 -0.00000000000E+00 -0.54830479744E+02  0.54830479744E+02  0.00000000000E+00 0. -1.
         23    2    1    2    0    0  0.19721918997E+02  0.13230697216E+01  0.10010152326E+03  0.13686287172E+03  0.91216369672E+02 0.  0.
         23    2    1    2    0    0  0.11575689403E+02 -0.11692612897E+02  0.70650722991E+02  0.11676395495E+03  0.91496353673E+02 0.  0.
        -13    1    4    4    0    0 -0.19196035809E+02 -0.12926498982E+02  0.81026423303E+02  0.84266621149E+02  0.00000000000E+00 0.  1.
         13    1    4    4    0    0  0.30771725212E+02  0.12338860853E+01 -0.10375700311E+02  0.32497333803E+02  0.00000000000E+00 0. -1.
        -13    1    3    3    0    0  0.56463979207E+02  0.19284807244E+01  0.57703534520E+02  0.80756410779E+02  0.00000000000E+00 0. -1.
         13    1    3    3    0    0 -0.36742060211E+02 -0.60541100281E+00  0.42397988735E+02  0.56106460945E+02  0.00000000000E+00 0.  1.
         -4    1    1    2    0  502 -0.31297608400E+02  0.10369543175E+02  0.68982375959E+01  0.33684616654E+02  0.00000000000E+00 0.  1.
<scales pt_clust_5="13000.00000" pt_clust_6="13000.00000" pt_clust_7="13000.00000" pt_clust_8="13000.00000" pt_clust_9="32.97071"></scales>
<clustering>
<clus scale="   32.971">  2  9  1 -1</clus>
<clus scale="   91.216">  7  8 -1 -1</clus>
<clus scale="   91.496">  5  6 -1 -1</clus>
<clus scale="   91.595">  1  7  2 -1</clus>
<clus scale="   32.971">  2  5  1 -1</clus>
</clustering>
</event>
<event>
 9    1  0.1426358E-005  0.1281809E+03  0.7546771E-02  0.1232763E+00
         21   -1    0    0  501  502  0.00000000000E+00  0.00000000000E+00  0.48239996619E+02  0.48239996619E+02  0.00000000000E+00 0.  1.
         -1   -1    0    0    0  501 -0.00000000000E+00 -0.00000000000E+00 -0.74884479621E+03  0.74884479621E+03  0.00000000000E+00 0.  1.
         23    2    1    2    0    0  0.20424233657E+02  0.51412887358E+02 -0.39328335747E+03  0.41400278786E+03  0.11690198793E+03 0.  0.
         23    2    1    2    0    0  0.14050953515E+02 -0.10947436092E+02 -0.30525427412E+03  0.32988177509E+03  0.12379231807E+03 0.  0.
        -13    1    3    3    0    0  0.16266412326E+02 -0.23931020414E+02 -0.25532603160E+02  0.38590202541E+02  0.00000000000E+00 0. -1.
         13    1    3    3    0    0  0.41578213307E+01  0.75343907772E+02 -0.36775075431E+03  0.37541258532E+03  0.00000000000E+00 0.  1.
        -13    1    4    4    0    0 -0.48337679252E+01 -0.66207762435E+02 -0.17345991661E+03  0.18572876942E+03  0.00000000000E+00 0. -1.
         13    1    4    4    0    0  0.18884721440E+02  0.55260326343E+02 -0.13179435751E+03  0.14415300567E+03  0.00000000000E+00 0.  1.
         -1    1    1    2    0  502 -0.34475187172E+02 -0.40465451266E+02 -0.20671679997E+01  0.53200229889E+02  0.00000000000E+00 0.  1.
<scales pt_clust_5="13000.00000" pt_clust_6="13000.00000" pt_clust_7="13000.00000" pt_clust_8="13000.00000" pt_clust_9="53.16005"></scales>
<clustering>
<clus scale="   53.160">  1  9  2 -1</clus>
<clus scale="  116.902">  5  6 -1 -1</clus>
<clus scale="  121.540">  2  5  1 -1</clus>
<clus scale="  123.792">  7  8 -1 -1</clus>
<clus scale="   53.160">  1  5  2 -1</clus>
</clustering>
</event>
<event>
 9    1  0.1426358E-005  0.9440082E+02  0.7546771E-02  0.1294195E+00
         21   -1    0    0  501  502  0.00000000000E+00  0.00000000000E+00  0.14635791251E+03  0.14635791251E+03  0.00000000000E+00 0. -1.
         -1   -1    0    0    0  501 -0.00000000000E+00 -0.00000000000E+00 -0.90118174212E+02  0.90118174212E+02  0.00000000000E+00 0.  1.
         23    2    1    2    0    0  0.61892405196E+01  0.19771437019E+02 -0.89039648251E+01  0.91296281581E+02  0.88467587403E+02 0.  0.
         23    2    1    2    0    0 -0.32188764970E+02 -0.12782507953E+02  0.32889792083E+02  0.10316629328E+03  0.91444171748E+02 0.  0.
        -13    1    3    3    0    0 -0.14976496970E+02  0.50989865920E+02 -0.52966207868E+01  0.53407078930E+02  0.00000000000E+00 0.  1.
         13    1    3    3    0    0  0.21165737490E+02 -0.31218428901E+02 -0.36073440383E+01  0.37889202651E+02  0.00000000000E+00 0. -1.
        -13    1    4    4    0    0 -0.51892977024E+02 -0.20536503886E+02  0.50773930398E+02  0.75449460332E+02  0.00000000000E+00 0. -1.
         13    1    4    4    0    0  0.19704212053E+02  0.77539959339E+01 -0.17884138315E+02  0.27716832952E+02  0.00000000000E+00 0.  1.
         -1    1    1    2    0  502  0.25999524451E+02 -0.69889290666E+01  0.32253911038E+02  0.42013511855E+02  0.00000000000E+00 0.  1.
<scales pt_clust_5="13000.00000" pt_clust_6="13000.00000" pt_clust_7="13000.00000" pt_clust_8="13000.00000" pt_clust_9="26.92249"></scales>
<clustering>
<clus scale="   26.922">  1  9  2 -1</clus>
<clus scale="   88.468">  5  6 -1 -1</clus>
<clus scale="   91.444">  7  8 -1 -1</clus>
<clus scale="   91.520">  2  5  1 -1</clus>
<clus scale="   26.922">  1  5  2 -1</clus>
</clustering>
</event>
<event>
 9    1  0.1426358E-005  0.9356871E+02  0.7546771E-02  0.1295066E+00
          1   -1    0    0  502    0 -0.00000000000E+00  0.00000000000E+00  0.60662917063E+03  0.60662917063E+03  0.00000000000E+00 0. -1.
         21   -1    0    0  501  502  0.00000000000E+00 -0.00000000000E+00 -0.24527272725E+02  0.24527272725E+02  0.00000000000E+00 0.  1.
         23    2    1    2    0    0 -0.33397318023E+01  0.29130554411E+00  0.26915046597E+03  0.28414261557E+03  0.91015460140E+02 0.  0.
         23    2    1    2    0    0 -0.38339039249E+02 -0.15331798545E+02  0.25351953581E+03  0.27288227807E+03  0.92128370605E+02 0.  0.
        -11    1    3    3    0    0 -0.53062199683E+01 -0.44191824086E+02  0.10463936687E+03  0.11371222619E+03  0.00000000000E+00 0.  1.
         11    1    3    3    0    0  0.19664881660E+01  0.44483129630E+02  0.16451109910E+03  0.17043038938E+03  0.00000000000E+00 0. -1.
        -13    1    4    4    0    0 -0.22087436782E+02 -0.49293270920E+02  0.20183972245E+03  0.20894246811E+03  0.00000000000E+00 0.  1.
         13    1    4    4    0    0 -0.16251602467E+02  0.33961472375E+02  0.51679813357E+02  0.63939809956E+02  0.00000000000E+00 0. -1.
          1    1    1    2  501    0  0.41678771051E+02  0.15040493000E+02  0.59431896126E+02  0.74131549715E+02  0.00000000000E+00 0. -1.
<scales pt_clust_5="13000.00000" pt_clust_6="13000.00000" pt_clust_7="13000.00000" pt_clust_8="13000.00000" pt_clust_9="44.30955"></scales>
<clustering>
<clus scale="   44.310">  2  9  1 -1</clus>
<clus scale="   91.015">  5  6 -1 -1</clus>
<clus scale="   92.128">  7  8 -1 -1</clus>
<clus scale="   92.473">  1  5  2 -1</clus>
<clus scale="   44.310">  2  5  1 -1</clus>
</clustering>
</event>
<event>
 9    1  0.1426358E-005  0.1231288E+03  0.7546771E-02  0.1238168E+00
         21   -1    0    0  501  502  0.00000000000E+00  0.00000000000E+00  0.64330728186E+03  0.64330728186E+03  0.00000000000E+00 0. -1.
         -2   -1    0    0    0  501 -0.00000000000E+00 -0.00000000000E+00 -0.49866566294E+02  0.49866566294E+02  0.00000000000E+00 0.  1.
         23    2    1    2    0    0 -0.28649320037E+01 -0.74360908806E+02  0.15752182988E+03  0.19680732192E+03  0.91554587413E+02 0.  0.
         23    2    1    2    0    0 -0.73971057435E+02  0.89477031217E+02  0.35153584030E+03  0.38124587310E+03  0.91066526723E+02 0.  0.
        -11    1    3    3    0    0 -0.22682456961E+02  0.14410216194E+02  0.31818029265E+02  0.41647751090E+02  0.00000000000E+00 0.  1.
         11    1    3    3    0    0  0.19817524957E+02 -0.88771125000E+02  0.12570380062E+03  0.15515957083E+03  0.00000000000E+00 0. -1.
        -11    1    4    4    0    0 -0.29986794194E+02 -0.69709490706E+01  0.31223340481E+02  0.43848591172E+02  0.00000000000E+00 0.  1.
         11    1    4    4    0    0 -0.43984263241E+02  0.96447980287E+02  0.32031249982E+03  0.33739728193E+03  0.00000000000E+00 0. -1.
         -2    1    1    2    0  502  0.76835989439E+02 -0.15116122410E+02  0.84383045380E+02  0.11512065313E+03  0.00000000000E+00 0.  1.
<scales pt_clust_5="13000.00000" pt_clust_6="13000.00000" pt_clust_7="13000.00000" pt_clust_8="13000.00000" pt_clust_9="78.30883"></scales>
<clustering>
<clus scale="   78.309">  1  9  2 -1</clus>
<clus scale="   91.067">  7  8 -1 -1</clus>
<clus scale="   91.555">  5  6 -1 -1</clus>
<clus scale="  122.766">  1  7  2 -1</clus>
<clus scale="   78.309">  1  5  2 -1</clus>
</clustering>
</event>
<event>
 9    1  0.1426358E-005  0.1493414E+03  0.7546771E-02  0.1216320E+00
         21   -1    0    0  501  502  0.00000000000E+00  0.00000000000E+00  0.34861824606E+03  0.34861824606E+03  0.00000000000E+00 0. -1.
          2   -1    0    0  502    0 -0.00000000000E+00 -0.00000000000E+00 -0.39300056097E+03  0.39300056097E+03  0.00000000000E+00 0. -1.
         23    2    1    2    0    0 -0.55002642457E+02  0.17647916241E+02 -0.30525021819E+03  0.32387842790E+03  0.91557636122E+02 0.  0.
         23    2    1    2    0    0 -0.46625912595E+02  0.60966164339E+02 -0.85136257541E+01  0.11928611956E+03  0.90916706804E+02 0.  0.
        -11    1    3    3    0    0 -0.76416439882E+02 -0.53981410180E+01 -0.20742692085E+03  0.22112109738E+03  0.00000000000E+00 0.  1.
         11    1    3    3    0    0  0.21413797425E+02  0.23046057259E+02 -0.97823297333E+02  0.10275733052E+03  0.00000000000E+00 0. -1.
        -13    1    4    4    0    0  0.27745262132E+02  0.14955991610E+02 -0.29207389244E+01  0.31654572681E+02  0.00000000000E+00 0. -1.
         13    1    4    4    0    0 -0.74371174727E+02  0.46010172730E+02 -0.55928868297E+01  0.87631546876E+02  0.00000000000E+00 0.  1.
          2    1    1    2  501    0  0.10162855505E+03 -0.78614080580E+02  0.26938152903E+03  0.29845425956E+03  0.00000000000E+00 0. -1.
<scales pt_clust_5="13000.00000" pt_clust_6="13000.00000" pt_clust_7="13000.00000" pt_clust_8="13000.00000" pt_clust_9="118.47787"></scales>
<clustering>
<clus scale="   90.917">  7  8 -1 -1</clus>
<clus scale="   91.558">  5  6 -1 -1</clus>
<clus scale="  108.257">  2  5  1 -1</clus>
<clus scale="  118.478">  1  9  2 -1</clus>
<clus scale="  118.478">  1  5  2 -1</clus>
</clustering>
</event>
<event>
 9    1  0.1426358E-005  0.1393844E+03  0.7546771E-02  0.1215644E+00
         21   -1    0    0  501  502  0.00000000000E+00  0.00000000000E+00  0.20702794554E+03  0.20702794554E+03  0.00000000000E+00 0. -1.
          3   -1    0    0  502    0 -0.00000000000E+00 -0.00000000000E+00 -0.18002031416E+03  0.18002031416E+03  0.00000000000E+00 0. -1.
         23    2    1    2    0    0 -0.18196650601E+02  0.79795179705E+02 -0.29719680202E+02  0.13070311669E+03  0.97476440872E+02 0.  0.
         23    2    1    2    0    0  0.65303292263E+02 -0.10757543399E+03 -0.25597174877E+02  0.15751144791E+03  0.91201134219E+02 0.  0.
        -11    1    4    4    0    0 -0.47746338027E+01 -0.23491459679E+02 -0.40480925257E+02  0.47046265691E+02  0.00000000000E+00 0.  1.
         11    1    4    4    0    0  0.70077926066E+02 -0.84083974309E+02  0.14883750380E+02  0.11046518222E+03  0.00000000000E+00 0. -1.
        -13    1    3    3    0    0  0.33046140189E+02  0.28854825391E+02 -0.37915888200E+02  0.57985023133E+02  0.00000000000E+00 0.  1.
         13    1    3    3    0    0 -0.51242790791E+02  0.50940354314E+02  0.81962079978E+01  0.72718093561E+02  0.00000000000E+00 0. -1.
          3    1    1    2  501    0 -0.47106641662E+02  0.27780254283E+02  0.82324486458E+02  0.98833695101E+02  0.00000000000E+00 0. -1.
<scales pt_clust_5="13000.00000" pt_clust_6="13000.00000" pt_clust_7="13000.00000" pt_clust_8="13000.00000" pt_clust_9="54.68801"></scales>
<clustering>
<clus scale="   54.688">  1  9  2 -1</clus>
<clus scale="   91.201">  5  6 -1 -1</clus>
<clus scale="   97.476">  7  8 -1 -1</clus>
<clus scale="  135.070">  1  5  2 -1</clus>
<clus scale="   54.688">  1  5  2 -1</clus>
</clustering>
</event>
<event>
 9    1  0.1426358E-005  0.1061558E+03  0.7546771E-02  0.1267993E+00
         21   -1    0    0  501  502  0.00000000000E+00  0.00000000000E+00  0.20216136993E+03  0.20216136993E+03  0.00000000000E+00 0. -1.
          1   -1    0    0  502    0 -0.00000000000E+00 -0.00000000000E+00 -0.14478278702E+03  0.14478278702E+03  0.00000000000E+00 0. -1.
         23    2    1    2    0    0 -0.12837412934E+02 -0.59333586864E+02 -0.62137475023E+02  0.12606667728E+03  0.91359004025E+02 0.  0.
         23    2    1    2    0    0  0.32966754199E+02  0.34399472319E+02  0.60037940218E+01  0.10292861573E+03  0.91039133431E+02 0.  0.
        -13    1    3    3    0    0  0.12042515543E+02 -0.18856661032E+02  0.20758178356E+02  0.30520449121E+02  0.00000000000E+00 0.  1.
         13    1    3    3    0    0 -0.24879928477E+02 -0.40476925832E+02 -0.82895653379E+02  0.95546228156E+02  0.00000000000E+00 0. -1.
        -13    1    4    4    0    0 -0.15904499152E+02  0.38337371561E+02 -0.21466232782E+02  0.46728003396E+02  0.00000000000E+00 0. -1.
         13    1    4    4    0    0  0.48871253350E+02 -0.39378992424E+01  0.27470026804E+02  0.56200612337E+02  0.00000000000E+00 0.  1.
          1    1    1    2  501    0 -0.20129341265E+02  0.24934114545E+02  0.11351226390E+03  0.11794886394E+03  0.00000000000E+00 0. -1.
<scales pt_clust_5="13000.00000" pt_clust_6="13000.00000" pt_clust_7="13000.00000" pt_clust_8="13000.00000" pt_clust_9="32.04529"></scales>
<clustering>
<clus scale="   32.045">  1  9  2 -1</clus>
<clus scale="   91.039">  7  8 -1 -1</clus>
<clus scale="   91.359">  5  6 -1 -1</clus>
<clus scale="  105.881">  1  7  2 -1</clus>
<clus scale="   32.045">  1  5  2 -1</clus>
</clustering>
</event>
<event>
 9    1  0.1426358E-005  0.1309212E+03  0.7546771E-02  0.1226461E+00
         21   -1    0    0  501  502  0.00000000000E+00  0.00000000000E+00  0.23425962751E+03  0.23425962751E+03  0.00000000000E+00 0. -1.
          2   -1    0    0  502    0 -0.00000000000E+00 -0.00000000000E+00 -0.21216648234E+03  0.21216648234E+03  0.00000000000E+00 0. -1.
         23    2    1    2    0    0  0.65439860782E+02  0.74292303647E+02 -0.13558338786E+03  0.19247919222E+03  0.94147026571E+02 0.  0.
         23    2    1    2    0    0 -0.69326767861E+02  0.30398610730E+00  0.13046168463E+03  0.17444621031E+03  0.92762794186E+02 0.  0.
        -13    1    3    3    0    0  0.12830562791E+02 -0.22814815625E+02 -0.25420113947E+02  0.36487276503E+02  0.00000000000E+00 0.  1.
         13    1    3    3    0    0  0.52609297990E+02  0.97107119272E+02 -0.11016327391E+03  0.15599191571E+03  0.00000000000E+00 0. -1.
        -13    1    4    4    0    0 -0.12083317029E+02  0.30700341503E+02  0.95000078627E+02  0.10056606017E+03  0.00000000000E+00 0.  1.
         13    1    4    4    0    0 -0.57243450832E+02 -0.30396355396E+02  0.35461606005E+02  0.73880150142E+02  0.00000000000E+00 0. -1.
          2    1    1    2  501    0  0.38869070796E+01 -0.74596289754E+02  0.27214848397E+02  0.79500707324E+02  0.00000000000E+00 0. -1.
<scales pt_clust_5="13000.00000" pt_clust_6="13000.00000" pt_clust_7="13000.00000" pt_clust_8="13000.00000" pt_clust_9="74.69749"></scales>
<clustering>
<clus scale="   74.697">  1  9  2 -1</clus>
<clus scale="   92.763">  7  8 -1 -1</clus>
<clus scale="   94.147">  5  6 -1 -1</clus>
<clus scale="  129.929">  1  7  2 -1</clus>
<clus scale="   74.697">  1  5  2 -1</clus>
</clustering>
</event>
<event>
 9    1  0.1426358E-005  0.1028736E+03  0.7546771E-02  0.1286552E+00
          1   -1    0    0  502    0 -0.00000000000E+00  0.00000000000E+00  0.57805242663E+03  0.57805242663E+03  0.00000000000E+00 0. -1.
         21   -1    0    0  501  502  0.00000000000E+00 -0.00000000000E+00 -0.19877080314E+02  0.19877080314E+02  0.00000000000E+00 0.  1.
         23    2    1    2    0    0 -0.54281620101E+02  0.11389987604E+02  0.25366958408E+03  0.26733936114E+03  0.63606996696E+02 0.  0.
         23    2    1    2    0    0  0.46291202405E+02  0.14505511373E+02  0.24007907516E+03  0.26069578516E+03  0.89280707829E+02 0.  0.
        -11    1    3    3    0    0 -0.47264432631E+02  0.35605932103E+02  0.17654392708E+03  0.18619738769E+03  0.00000000000E+00 0. -1.
         11    1    3    3    0    0 -0.70171874701E+01 -0.24215944499E+02  0.77125657000E+02  0.81141973451E+02  0.00000000000E+00 0.  1.
        -13    1    4    4    0    0 -0.95144164156E+01  0.27750176731E+02  0.26443960892E+02  0.39495309797E+02  0.00000000000E+00 0. -1.
         13    1    4    4    0    0  0.55805618821E+02 -0.13244665358E+02  0.21363511427E+03  0.22120047537E+03  0.00000000000E+00 0.  1.
          1    1    1    2  501    0  0.79904176957E+01 -0.25895498977E+02  0.64426687067E+02  0.69894360636E+02  0.00000000000E+00 0. -1.
<scales pt_clust_5="13000.00000" pt_clust_6="13000.00000" pt_clust_7="13000.00000" pt_clust_8="13000.00000" pt_clust_9="27.10025"></scales>
<clustering>
<clus scale="   27.100">  2  9  1 -1</clus>
<clus scale="   63.607">  5  6 -1 -1</clus>
<clus scale="   81.595">  1  5  2 -1</clus>
<clus scale="   89.281">  7  8 -1 -1</clus>
<clus scale="   27.100">  2  5  1 -1</clus>
</clustering>
</event>
<event>
 9    1  0.1426358E-005  0.9527234E+02  0.7546771E-02  0.1293162E+00
         21   -1    0    0  501  502  0.00000000000E+00  0.00000000000E+00  0.58589689609E+02  0.58589689609E+02  0.00000000000E+00 0.  1.
         -3   -1    0    0    0  501 -0.00000000000E+00 -0.00000000000E+00 -0.22551226460E+03  0.22551226460E+03  0.00000000000E+00 0.  1.
         23    2    1    2    0    0 -0.10140194416E+01  0.38782144305E+02 -0.11575211078E+03  0.15262320143E+03  0.91598075920E+02 0.  0.
         23    2    1    2    0    0 -0.40211232948E+01 -0.90276056296E+01 -0.51121330079E+02  0.10130115102E+03  0.86895717458E+02 0.  0.
        -11    1    4    4    0    0 -0.22294528882E+02  0.32330148390E+02 -0.10827116884E+02  0.40737095785E+02  0.00000000000E+00 0.  1.
         11    1    4    4    0    0  0.18273405587E+02 -0.41357754019E+02 -0.40294213194E+02  0.60564055233E+02  0.00000000000E+00 0. -1.
        -13    1    3    3    0    0  0.17626732234E+02  0.63981270175E+02 -0.91287774933E+02  0.11286169622E+03  0.00000000000E+00 0.  1.
         13    1    3    3    0    0 -0.18640751676E+02 -0.25199125870E+02 -0.24464335843E+02  0.39761505202E+02  0.00000000000E+00 0. -1.
         -3    1    1    2    0  502  0.50351427364E+01 -0.29754538675E+02 -0.49134136730E-01  0.30177601766E+02  0.00000000000E+00 0.  1.
<scales pt_clust_5="13000.00000" pt_clust_6="13000.00000" pt_clust_7="13000.00000" pt_clust_8="13000.00000" pt_clust_9="30.17756"></scales>
<clustering>
<clus scale="   30.178">  1  9  2 -1</clus>
<clus scale="   86.896">  5  6 -1 -1</clus>
<clus scale="   90.761">  1  5  2 -1</clus>
<clus scale="   91.598">  7  8 -1 -1</clus>
<clus scale="   30.178">  1  5  2 -1</clus>
</clustering>
</event>
<event>
 9    1  0.1426358E-005  0.1019203E+03  0.7546771E-02  0.1277815E+00
         21   -1    0    0  501  502  0.00000000000E+00  0.00000000000E+00  0.39639387603E+02  0.39639387603E+02  0.00000000000E+00 0. -1.
          2   -1    0    0  502    0 -0.00000000000E+00 -0.00000000000E+00 -0.39539194729E+03  0.39539194729E+03  0.00000000000E+00 0. -1.
         23    2    1    2    0    0 -0.49458894967E+02  0.15433783014E+02 -0.24163835716E+03  0.26384405177E+03  0.92413224457E+02 0.  0.
         23    2    1    2    0    0  0.29625691354E+02 -0.40412593613E+01 -0.11464156155E+03  0.14830882888E+03  0.89212150095E+02 0.  0.
        -13    1    3    3    0    0 -0.50296311370E+02 -0.16573690166E+02 -0.21720614568E+03  0.22356859320E+03  0.00000000000E+00 0. -1.
         13    1    3    3    0    0  0.83741640344E+00  0.32007473180E+02 -0.24432211484E+02  0.40275458577E+02  0.00000000000E+00 0.  1.
        -13    1    4    4    0    0 -0.20194256555E+02 -0.27577438259E+02 -0.22409941484E+02  0.40872100216E+02  0.00000000000E+00 0.  1.
         13    1    4    4    0    0  0.49819947908E+02  0.23536178898E+02 -0.92231620063E+02  0.10743672866E+03  0.00000000000E+00 0. -1.
          2    1    1    2  501    0  0.19833203613E+02 -0.11392523653E+02  0.52735902514E+00  0.22878454237E+02  0.00000000000E+00 0. -1.
<scales pt_clust_5="13000.00000" pt_clust_6="13000.00000" pt_clust_7="13000.00000" pt_clust_8="13000.00000" pt_clust_9="22.87238"></scales>
<clustering>
<clus scale="   22.872">  1  9  2 -1</clus>
<clus scale="   89.212">  7  8 -1 -1</clus>
<clus scale="   92.413">  5  6 -1 -1</clus>
<clus scale="   99.027">  1  7  2 -1</clus>
<clus scale="   22.872">  1  5  2 -1</clus>
</clustering>
</event>
<event>
 9    1  0.1426358E-005  0.9919570E+02  0.7546771E-02  0.1286041E+00
         21   -1    0    0  501  502  0.00000000000E+00  0.00000000000E+00  0.42828759223E+02  0.42828759223E+02  0.00000000000E+00 0.  1.
         -2   -1    0    0    0  501 -0.00000000000E+00 -0.00000000000E+00 -0.35702306782E+03  0.35702306782E+03  0.00000000000E+00 0.  1.
         23    2    1    2    0    0  0.20712614461E+02 -0.44299033202E+02 -0.15100727100E+03  0.18213884124E+03  0.89330537072E+02 0.  0.
         23    2    1    2    0    0  0.27833780875E+02  0.41693862831E+02 -0.11220790898E+03  0.14726860371E+03  0.81143879911E+02 0.  0.
        -11    1    4    4    0    0  0.49967301376E+02  0.46728466251E+01 -0.75349844003E+02  0.90532677491E+02  0.00000000000E+00 0.  1.
         11    1    4    4    0    0 -0.22133520501E+02  0.37021016206E+02 -0.36858064976E+02  0.56735926224E+02  0.00000000000E+00 0. -1.
        -11    1    3    3    0    0 -0.26083777467E+02 -0.41435237175E+02 -0.10772999263E+03  0.11833424541E+03  0.00000000000E+00 0. -1.
         11    1    3    3    0    0  0.46796391928E+02 -0.28637960263E+01 -0.43277278374E+02  0.63804595826E+02  0.00000000000E+00 0.  1.
         -2    1    1    2    0  502 -0.48546395336E+02  0.26051703706E+01 -0.50979128617E+02  0.70444382085E+02  0.00000000000E+00 0.  1.
<scales pt_clust_5="13000.00000" pt_clust_6="13000.00000" pt_clust_7="13000.00000" pt_clust_8="13000.00000" pt_clust_9="48.61625"></scales>
<clustering>
<clus scale="   48.616">  1  9  2 -1</clus>
<clus scale="   81.144">  5  6 -1 -1</clus>
<clus scale="   89.331">  7  8 -1 -1</clus>
<clus scale="   91.892">  1  5  2 -1</clus>
<clus scale="   48.616">  1  5  2 -1</clus>
</clustering>
</event>
<event>
 9    1  0.1426358E-005  0.1225155E+03  0.7546771E-02  0.1249747E+00
         21   -1    0    0  501  502  0.00000000000E+00  0.00000000000E+00  0.36121958346E+03  0.36121958346E+03  0.00000000000E+00 0.  1.
          3   -1    0    0  502    0 -0.00000000000E+00 -0.00000000000E+00 -0.29536344675E+03  0.29536344675E+03  0.00000000000E+00 0. -1.
         23    2    1    2    0    0  0.16785360087E+02 -0.30804858901E+02 -0.25657812982E+03  0.27488055442E+03  0.92175348386E+02 0.  0.
         23    2    1    2    0    0 -0.70672427303E+02  0.81995693367E+00  0.17771358024E+03  0.22439072352E+03  0.11736190137E+03 0.  0.
        -13    1    4    4    0    0  0.17173465572E+02  0.35736142669E+02  0.74748479975E+02  0.84612854054E+02  0.00000000000E+00 0. -1.
         13    1    4    4    0    0 -0.87845892875E+02 -0.34916185735E+02  0.10296510026E+03  0.13977786947E+03  0.00000000000E+00 0.  1.
        -13    1    3    3    0    0 -0.18654620633E+02 -0.37573150494E+02 -0.50420098770E+02  0.65589045343E+02  0.00000000000E+00 0.  1.
         13    1    3    3    0    0  0.35439980720E+02  0.67682915932E+01 -0.20615803105E+03  0.20929150907E+03  0.00000000000E+00 0. -1.
          3    1    1    2  501    0  0.53887067216E+02  0.29984901967E+02  0.14472068629E+03  0.15731175226E+03  0.00000000000E+00 0. -1.
<scales pt_clust_5="13000.00000" pt_clust_6="13000.00000" pt_clust_7="13000.00000" pt_clust_8="13000.00000" pt_clust_9="61.66774"></scales>
<clustering>
<clus scale="   61.668">  1  9  2 -1</clus>
<clus scale="   92.175">  7  8 -1 -1</clus>
<clus scale="   98.654">  2  7  1 -1</clus>
<clus scale="  117.362">  5  6 -1 -1</clus>
<clus scale="   61.668">  1  5  2 -1</clus>
</clustering>
</event>
<event>
 9    1  0.1426358E-005  0.1843276E+03  0.7546771E-02  0.1163774E+00
          4   -1    0    0  502    0 -0.00000000000E+00  0.00000000000E+00  0.28950220094E+03  0.28950220094E+03  0.00000000000E+00 0. -1.
         21   -1    0    0  501  502  0.00000000000E+00 -0.00000000000E+00 -0.45230904752E+03  0.45230904752E+03  0.00000000000E+00 0. -1.
         23    2    1    2    0    0  0.66904463191E+02 -0.15005576329E+03  0.18833815122E+03  0.26683983935E+03  0.93484230593E+02 0.  0.
         23    2    1    2    0    0  0.34322057873E+01  0.15143865440E+03 -0.79865512692E+02  0.19471845473E+03  0.92689429885E+02 0.  0.
        -11    1    3    3    0    0  0.43502981458E+02 -0.52197534670E+02  0.13912524394E+03  0.15483192669E+03  0.00000000000E+00 0. -1.
         11    1    3    3    0    0  0.23401481733E+02 -0.97858228619E+02  0.49212907278E+02  0.11200791266E+03  0.00000000000E+00 0.  1.
        -11    1    4    4    0    0  0.20562317154E+02  0.12787985254E+03 -0.96184357604E+02  0.16133039459E+03  0.00000000000E+00 0. -1.
         11    1    4    4    0    0 -0.17130111367E+02  0.23558801869E+02  0.16318844911E+02  0.33388060144E+02  0.00000000000E+00 0.  1.
          4    1    1    2  501    0 -0.70336668978E+02 -0.13828911158E+01 -0.27127948512E+03  0.28025295437E+03  0.00000000000E+00 0. -1.
<scales pt_clust_5="13000.00000" pt_clust_6="13000.00000" pt_clust_7="13000.00000" pt_clust_8="13000.00000" pt_clust_9="70.35026"></scales>
<clustering>
<clus scale="   70.350">  2  9  1 -1</clus>
<clus scale="   92.689">  7  8 -1 -1</clus>
<clus scale="   93.484">  5  6 -1 -1</clus>
<clus scale="  183.926">  2  7  1 -1</clus>
<clus scale="   70.350">  2  5  1 -1</clus>
</clustering>
</event>
<event>
 9    1  0.1426358E-005  0.2799585E+03  0.7546771E-02  0.1095824E+00
         21   -1    0    0  501  502  0.00000000000E+00  0.00000000000E+00  0.37519947343E+03  0.37519947343E+03  0.00000000000E+00 0. -1.
          2   -1    0    0  502    0 -0.00000000000E+00 -0.00000000000E+00 -0.13567383913E+04  0.13567383913E+04  0.00000000000E+00 0. -1.
         23    2    1    2    0    0 -0.10793055510E+03  0.20966816480E+03 -0.77657427763E+03  0.81674907655E+03  0.91660794871E+02 0.  0.
         23    2    1    2    0    0  0.14645680273E+03 -0.31713928771E+03 -0.48988728347E+03  0.60824379859E+03  0.89129373053E+02 0.  0.
        -13    1    3    3    0    0 -0.12218132338E+03  0.16213239406E+03 -0.64076189271E+03  0.67215399436E+03  0.00000000000E+00 0.  1.
         13    1    3    3    0    0  0.14250768276E+02  0.47535770735E+02 -0.13581238492E+03  0.14459508219E+03  0.00000000000E+00 0. -1.
        -13    1    4    4    0    0  0.13449268957E+02 -0.67797308481E+02 -0.15724566539E+03  0.17176599534E+03  0.00000000000E+00 0.  1.
         13    1    4    4    0    0  0.13300753377E+03 -0.24934197923E+03 -0.33264161808E+03  0.43647780325E+03  0.00000000000E+00 0. -1.
          2    1    1    2  501    0 -0.38526247624E+02  0.10747112291E+03  0.28492264322E+03  0.30694498959E+03  0.00000000000E+00 0. -1.
<scales pt_clust_5="13000.00000" pt_clust_6="13000.00000" pt_clust_7="13000.00000" pt_clust_8="13000.00000" pt_clust_9="114.16792"></scales>
<clustering>
<clus scale="   89.129">  7  8 -1 -1</clus>
<clus scale="   91.661">  5  6 -1 -1</clus>
<clus scale="  114.168">  1  9  2 -1</clus>
<clus scale="  279.140">  1  7  2 -1</clus>
<clus scale="  114.168">  1  5  2 -1</clus>
</clustering>
</event>
<event>
 9    1  0.1426358E-005  0.1512320E+03  0.7546771E-02  0.1220373E+00
         21   -1    0    0  501  502  0.00000000000E+00  0.00000000000E+00  0.13062487605E+03  0.13062487605E+03  0.00000000000E+00 0.  1.
          2   -1    0    0  502    0 -0.00000000000E+00 -0.00000000000E+00 -0.51430030817E+03  0.51430030817E+03  0.00000000000E+00 0. -1.
         23    2    1    2    0    0  0.24704399976E+02  0.19478099300E+02 -0.35163807373E+03  0.36443334163E+03  0.90402554528E+02 0.  0.
         23    2    1    2    0    0 -0.10565380419E+03 -0.93305822656E+02 -0.31887786684E+02  0.17093199067E+03  0.91280948802E+02 0.  0.
        -11    1    3    3    0    0  0.54539587842E+02  0.28423124440E+02 -0.27320916253E+03  0.28004586613E+03  0.00000000000E+00 0. -1.
         11    1    3    3    0    0 -0.29835187866E+02 -0.89450251399E+01 -0.78428911202E+02  0.84387475505E+02  0.00000000000E+00 0.  1.
        -13    1    4    4    0    0 -0.46502116425E+02 -0.30428940328E+02  0.31455890675E+02  0.63857969742E+02  0.00000000000E+00 0.  1.
         13    1    4    4    0    0 -0.59151687770E+02 -0.62876882328E+02 -0.63343677359E+02  0.10707402093E+03  0.00000000000E+00 0. -1.
          2    1    1    2  501    0  0.80949404219E+02  0.73827723355E+02 -0.14957170477E+00  0.10955985191E+03  0.00000000000E+00 0. -1.
<scales pt_clust_5="13000.00000" pt_clust_6="13000.00000" pt_clust_7="13000.00000" pt_clust_8="13000.00000" pt_clust_9="120.57741"></scales>
<clustering>
<clus scale="   90.403">  5  6 -1 -1</clus>
<clus scale="   91.281">  7  8 -1 -1</clus>
<clus scale="   95.720">  2  5  1 -1</clus>
<clus scale="  120.577">  1  9  2 -1</clus>
<clus scale="  120.577">  1  5  2 -1</clus>
</clustering>
</event>
<event>
 9    1  0.1426358E-005  0.1768648E+03  0.7546771E-02  0.1196978E+00
         21   -1    0    0  501  502  0.00000000000E+00  0.00000000000E+00  0.37424251265E+03  0.37424251265E+03  0.00000000000E+00 0. -1.
          1   -1    0    0  502    0 -0.00000000000E+00 -0.00000000000E+00 -0.36592114249E+03  0.36592114249E+03  0.00000000000E+00 0. -1.
         23    2    1    2    0    0 -0.26883019419E+02 -0.23868446133E+02  0.38165710955E+02  0.10585573819E+03  0.91958775338E+02 0.  0.
         23    2    1    2    0    0 -0.82088790769E+02 -0.69283983340E+02 -0.29581437688E+03  0.33216177578E+03  0.10623775131E+03 0.  0.
        -13    1    3    3    0    0  0.12070853797E+02 -0.24393910428E+02 -0.21440516139E+02  0.34647714349E+02  0.00000000000E+00 0.  1.
         13    1    3    3    0    0 -0.38953873216E+02  0.52546429488E+00  0.59606227093E+02  0.71208023843E+02  0.00000000000E+00 0. -1.
        -13    1    4    4    0    0 -0.39322219939E+02 -0.80114327730E+02 -0.26138547751E+03  0.27620085145E+03  0.00000000000E+00 0. -1.
         13    1    4    4    0    0 -0.42766570830E+02  0.10830344390E+02 -0.34428899370E+02  0.55960924331E+02  0.00000000000E+00 0.  1.
          1    1    1    2  501    0  0.10897181019E+03  0.93152429473E+02  0.26597003609E+03  0.30214614118E+03  0.00000000000E+00 0. -1.
<scales pt_clust_5="13000.00000" pt_clust_6="13000.00000" pt_clust_7="13000.00000" pt_clust_8="13000.00000" pt_clust_9="141.40266"></scales>
<clustering>
<clus scale="   91.959">  5  6 -1 -1</clus>
<clus scale="   98.736">  2  5  1 -1</clus>
<clus scale="  106.238">  7  8 -1 -1</clus>
<clus scale="  141.403">  1  9  2 -1</clus>
<clus scale="  141.403">  1  5  2 -1</clus>
</clustering>
</event>
<event>
 9    1  0.1426358E-005  0.9920621E+02  0.7546771E-02  0.1282531E+00
         -1   -1    0    0    0  501 -0.00000000000E+00  0.00000000000E+00  0.56081088848E+03  0.56081088848E+03  0.00000000000E+00 0.  1.
         21   -1    0    0  501  502  0.00000000000E+00 -0.00000000000E+00 -0.32434015721E+02  0.32434015721E+02  0.00000000000E+00 0.  1.
         23    2    1    2    0    0  0.22448227367E+02  0.52612305523E+02  0.28751637515E+03  0.30750646684E+03  0.92857867538E+02 0.  0.
         23    2    1    2    0    0  0.62048168429E+01 -0.17903176621E+01  0.11696047603E+03  0.14878922510E+03  0.91742986451E+02 0.  0.
        -13    1    4    4    0    0  0.17426463196E+01 -0.46606720274E+02  0.65425066442E+02  0.80347137534E+02  0.00000000000E+00 0. -1.
         13    1    4    4    0    0  0.44621705234E+01  0.44816402612E+02  0.51535409590E+02  0.68442087567E+02  0.00000000000E+00 0.  1.
        -13    1    3    3    0    0  0.37998982913E+02  0.17221360690E+02  0.25061722018E+03  0.25406591471E+03  0.00000000000E+00 0.  1.
         13    1    3    3    0    0 -0.15550755546E+02  0.35390944833E+02  0.36899154966E+02  0.53440552125E+02  0.00000000000E+00 0. -1.
         -1    1    1    2    0  502 -0.28653044209E+02 -0.50821987861E+02  0.12390002157E+03  0.13694921226E+03  0.00000000000E+00 0.  1.
<scales pt_clust_5="13000.00000" pt_clust_6="13000.00000" pt_clust_7="13000.00000" pt_clust_8="13000.00000" pt_clust_9="58.34274"></scales>
<clustering>
<clus scale="   58.343">  2  9  1 -1</clus>
<clus scale="   91.743">  5  6 -1 -1</clus>
<clus scale="   92.858">  7  8 -1 -1</clus>
<clus scale="   98.163">  2  5  1 -1</clus>
<clus scale="   58.343">  2  5  1 -1</clus>
</clustering>
</event>
<event>
 9    1  0.1426358E-005  0.9657074E+02  0.7546771E-02  0.1289347E+00
         21   -1    0    0  501  502  0.00000000000E+00  0.00000000000E+00  0.11059475481E+03  0.11059475481E+03  0.00000000000E+00 0. -1.
          2   -1    0    0  502    0 -0.00000000000E+00 -0.00000000000E+00 -0.44599720807E+03  0.44599720807E+03  0.00000000000E+00 0. -1.
         23    2    1    2    0    0 -0.41570617992E+01 -0.32490496105E+02 -0.36328812124E+03  0.37561123886E+03  0.89624941983E+02 0.  0.
         23    2    1    2    0    0 -0.37351958154E+02 -0.29390515951E+02  0.19264891699E+02  0.10597021693E+03  0.92733918381E+02 0.  0.
        -11    1    3    3    0    0  0.41573471963E+02 -0.10132277102E+02 -0.20194067965E+03  0.20642445279E+03  0.00000000000E+00 0.  1.
         11    1    3    3    0    0 -0.45730533763E+02 -0.22358219003E+02 -0.16134744159E+03  0.16918678607E+03  0.00000000000E+00 0. -1.
        -13    1    4    4    0    0  0.11639075961E+02 -0.38843226271E+02 -0.17326442434E+02  0.44096144092E+02  0.00000000000E+00 0.  1.
         13    1    4    4    0    0 -0.48991034114E+02  0.94527103196E+01  0.36591334133E+02  0.61874072838E+02  0.00000000000E+00 0. -1.
          2    1    1    2  501    0  0.41509019953E+02  0.61881012057E+02  0.86207762736E+01  0.75010507092E+02  0.00000000000E+00 0. -1.
<scales pt_clust_5="13000.00000" pt_clust_6="13000.00000" pt_clust_7="13000.00000" pt_clust_8="13000.00000" pt_clust_9="74.51348"></scales>
<clustering>
<clus scale="   74.513">  1  9  2 -1</clus>
<clus scale="   89.625">  5  6 -1 -1</clus>
<clus scale="   92.734">  7  8 -1 -1</clus>
<clus scale="   93.589">  2  5  1 -1</clus>
<clus scale="   74.513">  1  5  2 -1</clus>
</clustering>
</event>
<event>
 9    1  0.1426358E-005  0.1162700E+03  0.7546771E-02  0.1249458E+00
          1   -1    0    0  502    0 -0.00000000000E+00  0.00000000000E+00  0.40779088227E+03  0.40779088227E+03  0.00000000000E+00 0. -1.
         21   -1    0    0  501  502  0.00000000000E+00 -0.00000000000E+00 -0.56828282144E+02  0.56828282144E+02  0.00000000000E+00 0.  1.
         23    2    1    2    0    0  0.64924601123E+02 -0.85125736496E+01  0.18565832845E+03  0.21697725435E+03  0.91227442372E+02 0.  0.
         23    2    1    2    0    0 -0.79878955448E+02 -0.84526616280E+01  0.18240475186E+03  0.21928916163E+03  0.91455715474E+02 0.  0.
        -13    1    3    3    0    0  0.25167959661E+02 -0.14316963279E+02  0.17218142142E+03  0.17459909367E+03  0.00000000000E+00 0. -1.
         13    1    3    3    0    0  0.39756641461E+02  0.58043896293E+01  0.13476907036E+02  0.42378160679E+02  0.00000000000E+00 0.  1.
        -13    1    4    4    0    0 -0.94858629086E+02  0.85520103393E+01  0.16574960127E+03  0.19116544330E+03  0.00000000000E+00 0.  1.
         13    1    4    4    0    0  0.14979673638E+02 -0.17004671967E+02  0.16655150597E+02  0.28123718325E+02  0.00000000000E+00 0. -1.
          1    1    1    2  501    0  0.14954354326E+02  0.16965235278E+02 -0.17100480187E+02  0.28352748437E+02  0.00000000000E+00 0. -1.
<scales pt_clust_5="13000.00000" pt_clust_6="13000.00000" pt_clust_7="13000.00000" pt_clust_8="13000.00000" pt_clust_9="22.61530"></scales>
<clustering>
<clus scale="   22.615">  2  9  1 -1</clus>
<clus scale="   91.227">  5  6 -1 -1</clus>
<clus scale="   91.456">  7  8 -1 -1</clus>
<clus scale="  116.091">  1  5  2 -1</clus>
<clus scale="   22.615">  2  5  1 -1</clus>
</clustering>
</event>
<event>
 9    1  0.1426358E-005  0.9719564E+02  0.7546771E-02  0.1287072E+00
         21   -1    0    0  501  502  0.00000000000E+00  0.00000000000E+00  0.41356807307E+02  0.41356807307E+02  0.00000000000E+00 0. -1.
         -3   -1    0    0    0  501 -0.00000000000E+00 -0.00000000000E+00 -0.42109086620E+03  0.42109086620E+03  0.00000000000E+00 0.  1.
         23    2    1    2    0    0  0.17833499548E+02  0.47633044966E+01 -0.24038929481E+03  0.25780068958E+03  0.91287785114E+02 0.  0.
         23    2    1    2    0    0 -0.53026642161E+02 -0.15711664776E+01 -0.12964810857E+03  0.16800312823E+03  0.92747645233E+02 0.  0.
        -11    1    4    4    0    0  0.16534031098E+02 -0.27045957304E+02 -0.28487207459E+02  0.42618997872E+02  0.00000000000E+00 0.  1.
         11    1    4    4    0    0 -0.69560673259E+02  0.25474790826E+02 -0.10116090112E+03  0.12538413036E+03  0.00000000000E+00 0. -1.
        -11    1    3    3    0    0  0.33442939092E+02 -0.33196176687E+02 -0.16907752211E+03  0.17552100958E+03  0.00000000000E+00 0.  1.
         11    1    3    3    0    0 -0.15609439543E+02  0.37959481183E+02 -0.71311772706E+02  0.82279680001E+02  0.00000000000E+00 0. -1.
         -3    1    1    2    0  502  0.35193142612E+02 -0.31921380190E+01 -0.96966555038E+01  0.36643855693E+02  0.00000000000E+00 0.  1.
<scales pt_clust_5="13000.00000" pt_clust_6="13000.00000" pt_clust_7="13000.00000" pt_clust_8="13000.00000" pt_clust_9="35.33761"></scales>
<clustering>
<clus scale="   35.338">  1  9  2 -1</clus>
<clus scale="   91.288">  7  8 -1 -1</clus>
<clus scale="   92.748">  5  6 -1 -1</clus>
<clus scale="   95.804">  2  7  1 -1</clus>
<clus scale="   35.338">  1  5  2 -1</clus>
</clustering>
</event>
<event>
 9    1  0.1426358E-005  0.1030517E+03  0.7546771E-02  0.1274379E+00
         21   -1    0    0  501  502  0.00000000000E+00  0.00000000000E+00  0.23180730108E+02  0.23180730108E+02  0.00000000000E+00 0. -1.
          2   -1    0    0  502    0 -0.00000000000E+00 -0.00000000000E+00 -0.58158016145E+03  0.58158016145E+03  0.00000000000E+00 0. -1.
         23    2    1    2    0    0 -0.14179320407E+01  0.57723603516E+02 -0.31465901287E+03  0.33265766325E+03  0.91196499963E+02 0.  0.
         23    2    1    2    0    0 -0.45071198904E+01 -0.36430933818E+02 -0.21271324450E+03  0.23400900896E+03  0.90364621495E+02 0.  0.
        -11    1    3    3    0    0  0.90308524828E+01  0.81390569174E+02 -0.24701020103E+03  0.26023070622E+03  0.00000000000E+00 0. -1.
         11    1    3    3    0    0 -0.10448784523E+02 -0.23666965658E+02 -0.67648811834E+02  0.72426957026E+02  0.00000000000E+00 0.  1.
        -11    1    4    4    0    0  0.34710710103E+02  0.24524134053E+01 -0.12982668679E+03  0.13440913782E+03  0.00000000000E+00 0. -1.
         11    1    4    4    0    0 -0.39217829993E+02 -0.38883347223E+02 -0.82886557715E+02  0.99599871137E+02  0.00000000000E+00 0.  1.
          2    1    1    2  501    0  0.59250519311E+01 -0.21292669698E+02 -0.31027173974E+02  0.38094219352E+02  0.00000000000E+00 0. -1.
<scales pt_clust_5="13000.00000" pt_clust_6="13000.00000" pt_clust_7="13000.00000" pt_clust_8="13000.00000" pt_clust_9="22.10167"></scales>
<clustering>
<clus scale="   22.102">  1  9  2 -1</clus>
<clus scale="   90.365">  7  8 -1 -1</clus>
<clus scale="   91.196">  5  6 -1 -1</clus>
<clus scale="  102.316">  1  7  2 -1</clus>
<clus scale="   22.102">  1  5  2 -1</clus>
</clustering>
</event>
<event>
 9    1  0.1426358E-005  0.1271075E+03  0.7546771E-02  0.1232097E+00
          2   -1    0    0  502    0 -0.00000000000E+00  0.00000000000E+00  0.10070202037E+04  0.10070202037E+04  0.00000000000E+00 0. -1.
         21   -1    0    0  501  502  0.00000000000E+00 -0.00000000000E+00 -0.63185409584E+02  0.63185409584E+02  0.00000000000E+00 0. -1.
         23    2    1    2    0    0 -0.64537320403E+02  0.41664324874E+02  0.52387169490E+03  0.53733013606E+03  0.91548570195E+02 0.  0.
         23    2    1    2    0    0  0.62319177026E+02 -0.93210925532E+02  0.45045670182E+03  0.47294358260E+03  0.90512074580E+02 0.  0.
        -11    1    4    4    0    0  0.69057327940E+02 -0.22666990219E+02  0.24872169206E+03  0.25912388367E+03  0.00000000000E+00 0.  1.
         11    1    4    4    0    0 -0.67381509141E+01 -0.70543935313E+02  0.20173500976E+03  0.21381969893E+03  0.00000000000E+00 0. -1.
        -11    1    3    3    0    0 -0.87731736379E+02  0.35001897352E+02  0.44177619319E+03  0.45176121486E+03  0.00000000000E+00 0.  1.
         11    1    3    3    0    0  0.23194415975E+02  0.66624275219E+01  0.82095501714E+02  0.85568921196E+02  0.00000000000E+00 0. -1.
          2    1    1    2  501    0  0.22181433772E+01  0.51546600658E+02 -0.30493602573E+02  0.59931894658E+02  0.00000000000E+00 0. -1.
<scales pt_clust_5="13000.00000" pt_clust_6="13000.00000" pt_clust_7="13000.00000" pt_clust_8="13000.00000" pt_clust_9="51.59430"></scales>
<clustering>
<clus scale="   51.594">  2  9  1 -1</clus>
<clus scale="   90.512">  5  6 -1 -1</clus>
<clus scale="   91.549">  7  8 -1 -1</clus>
<clus scale="  126.363">  2  5  1 -1</clus>
<clus scale="   51.594">  2  5  1 -1</clus>
</clustering>
</event>
<event>
 9    1  0.1426358E-005  0.9634035E+02  0.7546771E-02  0.1289857E+00
         -3   -1    0    0    0  501 -0.00000000000E+00  0.00000000000E+00  0.56357523997E+03  0.56357523997E+03  0.00000000000E+00 0.  1.
         21   -1    0    0  501  502  0.00000000000E+00 -0.00000000000E+00 -0.44247594558E+02  0.44247594558E+02  0.00000000000E+00 0. -1.
         23    2    1    2    0    0 -0.16706862292E+02  0.47675631468E+01  0.35843879229E+03  0.37086418125E+03  0.93595001011E+02 0.  0.
         23    2    1    2    0    0  0.34844071614E+02  0.20662592357E+02  0.17618184328E+03  0.20218040261E+03  0.90530775142E+02 0.  0.
        -13    1    4    4    0    0  0.56798994743E+02  0.36044481227E+02  0.92956376047E+02  0.11474414268E+03  0.00000000000E+00 0. -1.
         13    1    4    4    0    0 -0.21954923128E+02 -0.15381888870E+02  0.83225467236E+02  0.87436259935E+02  0.00000000000E+00 0.  1.
        -13    1    3    3    0    0  0.12727859484E+02 -0.39798276926E+02  0.15814643453E+03  0.16357321299E+03  0.00000000000E+00 0. -1.
         13    1    3    3    0    0 -0.29434721777E+02  0.44565840073E+02  0.20029235775E+03  0.20729096826E+03  0.00000000000E+00 0.  1.
         -3    1    1    2    0  502 -0.18137209322E+02 -0.25430155504E+02 -0.15292990161E+02  0.34778250660E+02  0.00000000000E+00 0.  1.
<scales pt_clust_5="13000.00000" pt_clust_6="13000.00000" pt_clust_7="13000.00000" pt_clust_8="13000.00000" pt_clust_9="31.23542"></scales>
<clustering>
<clus scale="   31.235">  2  9  1 -1</clus>
<clus scale="   90.531">  5  6 -1 -1</clus>
<clus scale="   93.366">  2  5  1 -1</clus>
<clus scale="   93.595">  7  8 -1 -1</clus>
<clus scale="   31.235">  2  5  1 -1</clus>
</clustering>
</event>
<event>
 9    1  0.2678070E-005  0.1018646E+03  0.7546771E-02  0.1281591E+00
          1   -1    0    0  502    0 -0.00000000000E+00  0.00000000000E+00  0.17756901646E+03  0.17756901646E+03  0.00000000000E+00 0. -1.
         21   -1    0    0  501  502  0.00000000000E+00 -0.00000000000E+00 -0.30573947505E+03  0.30573947505E+03  0.00000000000E+00 0. -1.
         23    2    1    2    0    0  0.28675464548E+02  0.35095108809E+02  0.12972324848E+03  0.16115187493E+03  0.84189409470E+02 0.  0.
         23    2    1    2    0    0  0.37639298528E+01 -0.57343968468E+01 -0.45255730214E+02  0.10506383707E+03  0.94568907504E+02 0.  0.
        -11    1    4    4    0    0  0.19409841131E+02  0.40354096968E+02 -0.12834525461E+02  0.46582401383E+02  0.00000000000E+00 0. -1.
         11    1    4    4    0    0 -0.15645911278E+02 -0.46088493814E+02 -0.32421204753E+02  0.58481435682E+02  0.00000000000E+00 0.  1.
        -11    1    3    3    0    0  0.51977388641E+02  0.20762351133E+02  0.11947984685E+03  0.13193997862E+03  0.00000000000E+00 0. -1.
         11    1    3    3    0    0 -0.23301924093E+02  0.14332757675E+02  0.10243401632E+02  0.29211896310E+02  0.00000000000E+00 0.  1.
          1    1    1    2  501    0 -0.32439394401E+02 -0.29360711962E+02 -0.21263797686E+03  0.21709277951E+03  0.00000000000E+00 0. -1.
<scales pt_clust_5="13000.00000" pt_clust_6="13000.00000" pt_clust_7="13000.00000" pt_clust_8="13000.00000" pt_clust_9="43.75347"></scales>
<clustering>
<clus scale="   43.753">  2  9  1 -1</clus>
<clus scale="   84.189">  7  8 -1 -1</clus>
<clus scale="   92.309">  1  7  2 -1</clus>
<clus scale="   94.569">  5  6 -1 -1</clus>
<clus scale="   43.753">  2  5  1 -1</clus>
</clustering>
</event>
<event>
 9    1  0.1426358E-005  0.9820805E+02  0.7546771E-02  0.1285935E+00
         21   -1    0    0  501  502  0.00000000000E+00  0.00000000000E+00  0.10542129571E+03  0.10542129571E+03  0.00000000000E+00 0. -1.
         -3   -1    0    0    0  501 -0.00000000000E+00 -0.00000000000E+00 -0.13770017319E+03  0.13770017319E+03  0.00000000000E+00 0.  1.
         23    2    1    2    0    0 -0.26402540975E+02 -0.26070391180E+01 -0.62427767499E+02  0.11274297573E+03  0.90054769992E+02 0.  0.
         23    2    1    2    0    0  0.39385691882E+02 -0.15275975726E+02  0.33608783924E+02  0.10801031727E+03  0.93552606168E+02 0.  0.
        -11    1    4    4    0    0  0.18761614309E+02 -0.20643838524E+02  0.64619054243E+02  0.70383154318E+02  0.00000000000E+00 0. -1.
         11    1    4    4    0    0  0.20624077574E+02  0.53678627981E+01 -0.31010270318E+02  0.37627162954E+02  0.00000000000E+00 0.  1.
        -11    1    3    3    0    0  0.30658305518E+02 -0.11753598372E+02 -0.90121671148E+01  0.34048464401E+02  0.00000000000E+00 0. -1.
         11    1    3    3    0    0 -0.57060846494E+02  0.91465592544E+01 -0.53415600384E+02  0.78694511328E+02  0.00000000000E+00 0.  1.
         -3    1    1    2    0  502 -0.12983150907E+02  0.17883014844E+02 -0.34598939071E+01  0.22368175903E+02  0.00000000000E+00 0.  1.
<scales pt_clust_5="13000.00000" pt_clust_6="13000.00000" pt_clust_7="13000.00000" pt_clust_8="13000.00000" pt_clust_9="22.09898"></scales>
<clustering>
<clus scale="   22.099">  1  9  2 -1</clus>
<clus scale="   90.055">  7  8 -1 -1</clus>
<clus scale="   93.553">  5  6 -1 -1</clus>
<clus scale="   94.882">  2  7  1 -1</clus>
<clus scale="   22.099">  1  5  2 -1</clus>
</clustering>
</event>
<event>
 9    1  0.1426358E-005  0.1146290E+03  0.7546771E-02  0.1252538E+00
          2   -1    0    0  502    0 -0.00000000000E+00  0.00000000000E+00  0.42336626432E+03  0.42336626432E+03  0.00000000000E+00 0. -1.
         21   -1    0    0  501  502  0.00000000000E+00 -0.00000000000E+00 -0.54439424188E+02  0.54439424188E+02  0.00000000000E+00 0.  1.
         23    2    1    2    0    0 -0.62994864040E+02  0.31903296081E+02  0.31436275400E+03  0.33490710934E+03  0.91392874905E+02 0.  0.
         23    2    1    2    0    0  0.59853851161E+02 -0.11916167702E+02  0.52837934382E+02  0.12259264746E+03  0.92263922257E+02 0.  0.
        -13    1    4    4    0    0  0.11563707632E+02 -0.36309001347E+02 -0.10273195763E+02  0.39466459991E+02  0.00000000000E+00 0.  1.
         13    1    4    4    0    0  0.48290143529E+02  0.24392833644E+02  0.63111130145E+02  0.83126187471E+02  0.00000000000E+00 0. -1.
        -13    1    3    3    0    0  0.13603067219E+01 -0.22444051393E+02  0.25423982305E+02  0.33940606264E+02  0.00000000000E+00 0.  1.
         13    1    3    3    0    0 -0.64355170762E+02  0.54347347475E+02  0.28893877170E+03  0.30096650307E+03  0.00000000000E+00 0. -1.
          2    1    1    2  501    0  0.31410128784E+01 -0.19987128379E+02  0.17261517462E+01  0.20305931710E+02  0.00000000000E+00 0. -1.
<scales pt_clust_5="13000.00000" pt_clust_6="13000.00000" pt_clust_7="13000.00000" pt_clust_8="13000.00000" pt_clust_9="20.23243"></scales>
<clustering>
<clus scale="   20.232">  2  9  1 -1</clus>
<clus scale="   91.393">  7  8 -1 -1</clus>
<clus scale="   92.264">  5  6 -1 -1</clus>
<clus scale="  113.929">  1  7  2 -1</clus>
<clus scale="   20.232">  2  5  1 -1</clus>
</clustering>
</event>
<event>
 9    1  0.1426358E-005  0.1463338E+03  0.7546771E-02  0.1224994E+00
          1   -1    0    0  502    0 -0.00000000000E+00  0.00000000000E+00  0.16970901910E+03  0.16970901910E+03  0.00000000000E+00 0. -1.
         21   -1    0    0  501  502  0.00000000000E+00 -0.00000000000E+00 -0.20821606399E+03  0.20821606399E+03  0.00000000000E+00 0. -1.
         23    2    1    2    0    0  0.84825984894E+01 -0.25476315230E+02  0.13188502814E+02  0.96832188526E+02  0.92095271396E+02 0.  0.
         23    2    1    2    0    0  0.68479472820E+02 -0.65860852674E+02  0.29723260692E+02  0.13654303804E+03  0.93452869938E+02 0.  0.
        -13    1    3    3    0    0  0.23900515958E+02 -0.54220269474E+02  0.21732275491E+02  0.63113897700E+02  0.00000000000E+00 0. -1.
         13    1    3    3    0    0 -0.15417917469E+02  0.28743954244E+02 -0.85437726773E+01  0.33718290826E+02  0.00000000000E+00 0.  1.
        -13    1    4    4    0    0  0.88571972444E+02 -0.33102647453E+02  0.25145357976E+02  0.97842059457E+02  0.00000000000E+00 0. -1.
         13    1    4    4    0    0 -0.20092499624E+02 -0.32758205220E+02  0.45779027166E+01  0.38700978588E+02  0.00000000000E+00 0.  1.
          1    1    1    2  501    0 -0.76962071309E+02  0.91337167904E+02 -0.81418808395E+02  0.14454985652E+03  0.00000000000E+00 0. -1.
<scales pt_clust_5="13000.00000" pt_clust_6="13000.00000" pt_clust_7="13000.00000" pt_clust_8="13000.00000" pt_clust_9="112.60619"></scales>
<clustering>
<clus scale="   92.095">  5  6 -1 -1</clus>
<clus scale="   93.453">  7  8 -1 -1</clus>
<clus scale="   95.930">  1  5  2 -1</clus>
<clus scale="  112.606">  2  9  1 -1</clus>
<clus scale="  112.606">  2  5  1 -1</clus>
</clustering>
</event>
<event>
 9    1  0.1426358E-005  0.1029035E+03  0.7546771E-02  0.1274428E+00
         21   -1    0    0  501  502  0.00000000000E+00  0.00000000000E+00  0.11902273373E+03  0.11902273373E+03  0.00000000000E+00 0. -1.
          2   -1    0    0  502    0 -0.00000000000E+00 -0.00000000000E+00 -0.17127045917E+03  0.17127045917E+03  0.00000000000E+00 0. -1.
         23    2    1    2    0    0 -0.25414764975E+01 -0.49748512148E+02 -0.10560764851E+03  0.14888787903E+03  0.92375600322E+02 0.  0.
         23    2    1    2    0    0 -0.11777775508E+02  0.33159161757E+02  0.18639603388E+02  0.10034745075E+03  0.92108251821E+02 0.  0.
        -11    1    3    3    0    0 -0.11309333006E+02  0.18752219046E+02  0.93794704067E+00  0.21918633097E+02  0.00000000000E+00 0.  1.
         11    1    3    3    0    0  0.87678565088E+01 -0.68500731194E+02 -0.10654559555E+03  0.12696924594E+03  0.00000000000E+00 0. -1.
        -13    1    4    4    0    0  0.23306269610E+02  0.51890803535E+02  0.20672073373E+02  0.60524146522E+02  0.00000000000E+00 0.  1.
         13    1    4    4    0    0 -0.35084045118E+02 -0.18731641778E+02 -0.20324699841E+01  0.39823304230E+02  0.00000000000E+00 0. -1.
          2    1    1    2  501    0  0.14319252005E+02  0.16589350391E+02  0.34720319690E+02  0.41057863117E+02  0.00000000000E+00 0. -1.
<scales pt_clust_5="13000.00000" pt_clust_6="13000.00000" pt_clust_7="13000.00000" pt_clust_8="13000.00000" pt_clust_9="21.91455"></scales>
<clustering>
<clus scale="   21.915">  1  9  2 -1</clus>
<clus scale="   92.108">  7  8 -1 -1</clus>
<clus scale="   92.376">  5  6 -1 -1</clus>
<clus scale="  102.664">  1  7  2 -1</clus>
<clus scale="   21.915">  1  5  2 -1</clus>
</clustering>
</event>
<event>
 9    1  0.1600460E-005  0.9689088E+02  0.7546771E-02  0.1288219E+00
         -4   -1    0    0    0  501 -0.00000000000E+00  0.00000000000E+00  0.10270756209E+03  0.10270756209E+03  0.00000000000E+00 0.  1.
         21   -1    0    0  501  502  0.00000000000E+00 -0.00000000000E+00 -0.46841999720E+03  0.46841999720E+03  0.00000000000E+00 0.  1.
         23    2    1    2    0    0 -0.14139368801E+02  0.16027694757E+02  0.51858621092E+02  0.10789426548E+03  0.92168580285E+02 0.  0.
         23    2    1    2    0    0  0.45702577512E+02  0.24202609831E+02 -0.11975983019E+03  0.16106406990E+03  0.94470766747E+02 0.  0.
        -11    1    4    4    0    0  0.34534701476E+02 -0.25409587977E+02 -0.95577016862E+02  0.10475332415E+03  0.00000000000E+00 0. -1.
         11    1    4    4    0    0  0.11167876036E+02  0.49612197808E+02 -0.24182813332E+02  0.56310745752E+02  0.00000000000E+00 0.  1.
        -11    1    3    3    0    0  0.15858847286E+02 -0.32079698222E+02  0.31441468411E+02  0.47635868955E+02  0.00000000000E+00 0.  1.
         11    1    3    3    0    0 -0.29998216087E+02  0.48107392979E+02  0.20417152681E+02  0.60258396521E+02  0.00000000000E+00 0. -1.
         -4    1    1    2    0  502 -0.31563208711E+02 -0.40230304588E+02 -0.29781122601E+03  0.30216922393E+03  0.00000000000E+00 0.  1.
<scales pt_clust_5="13000.00000" pt_clust_6="13000.00000" pt_clust_7="13000.00000" pt_clust_8="13000.00000" pt_clust_9="51.13427"></scales>
<clustering>
<clus scale="   51.134">  2  9  1 -1</clus>
<clus scale="   92.169">  7  8 -1 -1</clus>
<clus scale="   94.471">  5  6 -1 -1</clus>
<clus scale="   94.648">  1  7  2 -1</clus>
<clus scale="   51.134">  2  5  1 -1</clus>
</clustering>
</event>
<event>
 9    1  0.1426358E-005  0.9886737E+02  0.7546771E-02  0.1283559E+00
          1   -1    0    0  502    0 -0.00000000000E+00  0.00000000000E+00  0.62538920003E+03  0.62538920003E+03  0.00000000000E+00 0. -1.
         21   -1    0    0  501  502  0.00000000000E+00 -0.00000000000E+00 -0.82440839280E+02  0.82440839280E+02  0.00000000000E+00 0. -1.
         23    2    1    2    0    0  0.26457777482E+02 -0.24537355898E+02  0.55829463692E+03  0.56667313125E+03  0.90130129439E+02 0.  0.
         23    2    1    2    0    0 -0.13984898868E+02  0.45473399024E+02  0.12447089226E+02  0.10419257711E+03  0.91857257082E+02 0.  0.
        -11    1    4    4    0    0  0.37777628739E+02  0.10632383403E+02  0.14299097864E+02  0.41769139442E+02  0.00000000000E+00 0. -1.
         11    1    4    4    0    0 -0.51762527607E+02  0.34841015621E+02 -0.18520086381E+01  0.62423437664E+02  0.00000000000E+00 0.  1.
        -13    1    3    3    0    0 -0.49349015637E+01 -0.53849029943E+02  0.32107823074E+03  0.32559991022E+03  0.00000000000E+00 0. -1.
         13    1    3    3    0    0  0.31392679045E+02  0.29311674045E+02  0.23721640619E+03  0.24107322103E+03  0.00000000000E+00 0.  1.
          1    1    1    2  501    0 -0.12472878613E+02 -0.20936043125E+02 -0.27793365404E+02  0.36964330957E+02  0.00000000000E+00 0. -1.
<scales pt_clust_5="13000.00000" pt_clust_6="13000.00000" pt_clust_7="13000.00000" pt_clust_8="13000.00000" pt_clust_9="24.36987"></scales>
<clustering>
<clus scale="   24.370">  2  9  1 -1</clus>
<clus scale="   90.130">  7  8 -1 -1</clus>
<clus scale="   91.857">  5  6 -1 -1</clus>
<clus scale="   97.265">  1  7  2 -1</clus>
<clus scale="   24.370">  2  5  1 -1</clus>
</clustering>
</event>
<event>
 9    1  0.1426358E-005  0.1061473E+03  0.7546771E-02  0.1270487E+00
         21   -1    0    0  501  502  0.00000000000E+00  0.00000000000E+00  0.14076087018E+03  0.14076087018E+03  0.00000000000E+00 0.  1.
         -3   -1    0    0    0  501 -0.00000000000E+00 -0.00000000000E+00 -0.18867637869E+03  0.18867637869E+03  0.00000000000E+00 0.  1.
         23    2    1    2    0    0 -0.27115519528E+02 -0.19325024114E+02 -0.38826428199E+02  0.10766340957E+03  0.94737586403E+02 0.  0.
         23    2    1    2    0    0 -0.14441642973E+02  0.76517440665E+02 -0.62054596334E+02  0.13343745860E+03  0.88833004306E+02 0.  0.
        -11    1    4    4    0    0  0.27534008702E+02 -0.35138438342E+01 -0.14894039860E+02  0.31500812006E+02  0.00000000000E+00 0. -1.
         11    1    4    4    0    0 -0.41975651675E+02  0.80031284499E+02 -0.47160556473E+02  0.10193664659E+03  0.00000000000E+00 0.  1.
        -13    1    3    3    0    0  0.29636222194E+02 -0.35493234254E+01  0.96584176331E+01  0.31371777028E+02  0.00000000000E+00 0. -1.
         13    1    3    3    0    0 -0.56751741722E+02 -0.15775700689E+02 -0.48484845832E+02  0.76291632543E+02  0.00000000000E+00 0.  1.
         -3    1    1    2    0  502  0.41557162501E+02 -0.57192416551E+02  0.52965516028E+02  0.88336380694E+02  0.00000000000E+00 0.  1.
<scales pt_clust_5="13000.00000" pt_clust_6="13000.00000" pt_clust_7="13000.00000" pt_clust_8="13000.00000" pt_clust_9="70.69632"></scales>
<clustering>
<clus scale="   70.696">  1  9  2 -1</clus>
<clus scale="   88.833">  5  6 -1 -1</clus>
<clus scale="   94.738">  7  8 -1 -1</clus>
<clus scale="  100.913">  1  5  2 -1</clus>
<clus scale="   70.696">  1  5  2 -1</clus>
</clustering>
</event>
<event>
 9    1  0.1426358E-005  0.1970750E+03  0.7546771E-02  0.1152522E+00
         21   -1    0    0  501  502  0.00000000000E+00  0.00000000000E+00  0.63764724342E+03  0.63764724342E+03  0.00000000000E+00 0.  1.
         -3   -1    0    0    0  501 -0.00000000000E+00 -0.00000000000E+00 -0.25009142824E+03  0.25009142824E+03  0.00000000000E+00 0.  1.
         23    2    1    2    0    0 -0.10762747668E+03 -0.15469747595E+03 -0.17242373099E+03  0.27228662281E+03  0.94313727256E+02 0.  0.
         23    2    1    2    0    0  0.17932889242E+02  0.10483406759E+03  0.22535536845E+03  0.26544516487E+03  0.91456674017E+02 0.  0.
        -13    1    4    4    0    0  0.40846583658E+02  0.79832185047E+02  0.94539529992E+02  0.13030481149E+03  0.00000000000E+00 0.  1.
         13    1    4    4    0    0 -0.22913694415E+02  0.25001882548E+02  0.13081583845E+03  0.13514035339E+03  0.00000000000E+00 0. -1.
        -13    1    3    3    0    0 -0.34461270382E+02 -0.14366538109E+02  0.12040630725E+01  0.37355405786E+02  0.00000000000E+00 0. -1.
         13    1    3    3    0    0 -0.73166206301E+02 -0.14033093784E+03 -0.17362779407E+03  0.23493121702E+03  0.00000000000E+00 0.  1.
         -3    1    1    2    0  502  0.89694587441E+02  0.49863408356E+02  0.33462417773E+03  0.35000688398E+03  0.00000000000E+00 0.  1.
<scales pt_clust_5="13000.00000" pt_clust_6="13000.00000" pt_clust_7="13000.00000" pt_clust_8="13000.00000" pt_clust_9="102.62299"></scales>
<clustering>
<clus scale="   91.457">  5  6 -1 -1</clus>
<clus scale="   94.314">  7  8 -1 -1</clus>
<clus scale="  102.623">  1  9  2 -1</clus>
<clus scale="  195.724">  1  5  2 -1</clus>
<clus scale="  102.623">  1  5  2 -1</clus>
</clustering>
</event>
<event>
 9    1  0.1426358E-005  0.1668495E+03  0.7546771E-02  0.1182728E+00
          3   -1    0    0  502    0 -0.00000000000E+00  0.00000000000E+00  0.29875302189E+03  0.29875302189E+03  0.00000000000E+00 0. -1.
         21   -1    0    0  501  502  0.00000000000E+00 -0.00000000000E+00 -0.13730844020E+03  0.13730844020E+03  0.00000000000E+00 0. -1.
         23    2    1    2    0    0  0.70964433202E+02  0.13912139406E+03  0.16222888876E+03  0.23932066128E+03  0.81027486093E+02 0.  0.
         23    2    1    2    0    0 -0.31041726770E+02 -0.10655865053E+03  0.87933797893E+01  0.14433959052E+03  0.91859997053E+02 0.  0.
        -11    1    3    3    0    0  0.30718319719E+02  0.10098469338E+02  0.62528986471E+01  0.32934677633E+02  0.00000000000E+00 0.  1.
         11    1    3    3    0    0  0.40246113483E+02  0.12902292472E+03  0.15597599011E+03  0.20638598365E+03  0.00000000000E+00 0. -1.
        -11    1    4    4    0    0 -0.22649198482E+02 -0.80331071824E+02 -0.36688494950E+02  0.91170790026E+02  0.00000000000E+00 0. -1.
         11    1    4    4    0    0 -0.83925282882E+01 -0.26227578710E+02  0.45481874740E+02  0.53168800493E+02  0.00000000000E+00 0.  1.
          3    1    1    2  501    0 -0.39922706431E+02 -0.32562743522E+02 -0.95776868636E+01  0.52401210293E+02  0.00000000000E+00 0. -1.
<scales pt_clust_5="13000.00000" pt_clust_6="13000.00000" pt_clust_7="13000.00000" pt_clust_8="13000.00000" pt_clust_9="51.51849"></scales>
<clustering>
<clus scale="   51.518">  2  9  1 -1</clus>
<clus scale="   81.027">  5  6 -1 -1</clus>
<clus scale="   91.860">  7  8 -1 -1</clus>
<clus scale="  161.140">  1  5  2 -1</clus>
<clus scale="   51.518">  2  5  1 -1</clus>
</clustering>
</event>
<event>
 9    1  0.1426358E-005  0.9564502E+02  0.7546771E-02  0.1290734E+00
         -1   -1    0    0    0  501 -0.00000000000E+00  0.00000000000E+00  0.71093828183E+02  0.71093828183E+02  0.00000000000E+00 0.  1.
         21   -1    0    0  501  502  0.00000000000E+00 -0.00000000000E+00 -0.28256935233E+03  0.28256935233E+03  0.00000000000E+00 0.  1.
         23    2    1    2    0    0 -0.14498505236E+02 -0.20866174950E+02 -0.69131289956E+01  0.94243258929E+02  0.90489759586E+02 0.  0.
         23    2    1    2    0    0  0.33606216575E+02 -0.12135978992E+01 -0.67348388622E+02  0.11913341265E+03  0.92336958725E+02 0.  0.
        -11    1    4    4    0    0  0.28746937536E+02 -0.38305861889E+02 -0.73867075824E+01  0.48459146936E+02  0.00000000000E+00 0.  1.
         11    1    4    4    0    0  0.48592790386E+01  0.37092263990E+02 -0.59961681040E+02  0.70674265711E+02  0.00000000000E+00 0. -1.
        -11    1    3    3    0    0 -0.18494131242E+02 -0.44997147234E+02 -0.32764882691E+02  0.58654187296E+02  0.00000000000E+00 0.  1.
         11    1    3    3    0    0  0.39956260067E+01  0.24130972284E+02  0.25851753696E+02  0.35589071633E+02  0.00000000000E+00 0. -1.
         -1    1    1    2    0  502 -0.19107711339E+02  0.22079772850E+02 -0.13721400652E+03  0.14028650893E+03  0.00000000000E+00 0.  1.
<scales pt_clust_5="13000.00000" pt_clust_6="13000.00000" pt_clust_7="13000.00000" pt_clust_8="13000.00000" pt_clust_9="29.19967"></scales>
<clustering>
<clus scale="   29.200">  2  9  1 -1</clus>
<clus scale="   90.490">  7  8 -1 -1</clus>
<clus scale="   92.337">  5  6 -1 -1</clus>
<clus scale="   93.863">  1  7  2 -1</clus>
<clus scale="   29.200">  2  5  1 -1</clus>
</clustering>
</event>
<event>
 9    1  0.1426358E-005  0.9995018E+02  0.7546771E-02  0.1282557E+00
          1   -1    0    0  502    0 -0.00000000000E+00  0.00000000000E+00  0.26980839406E+03  0.26980839406E+03  0.00000000000E+00 0. -1.
         21   -1    0    0  501  502  0.00000000000E+00 -0.00000000000E+00 -0.66668163271E+02  0.66668163271E+02  0.00000000000E+00 0. -1.
         23    2    1    2    0    0 -0.52602273347E+02  0.44494582839E+02  0.10076216857E+03  0.15206822435E+03  0.90691582726E+02 0.  0.
         23    2    1    2    0    0  0.17150821461E+02  0.43701177152E+01  0.37254831585E+02  0.95607434514E+02  0.86253176476E+02 0.  0.
        -11    1    3    3    0    0 -0.72261343492E+02  0.35672504976E+02  0.45027205795E+02  0.92312938618E+02  0.00000000000E+00 0. -1.
         11    1    3    3    0    0  0.19659070145E+02  0.88220778624E+01  0.55734962775E+02  0.59755285727E+02  0.00000000000E+00 0.  1.
        -11    1    4    4    0    0  0.28670834198E+02 -0.32614621570E+02  0.36715809717E+02  0.56866342918E+02  0.00000000000E+00 0.  1.
         11    1    4    4    0    0 -0.11520012737E+02  0.36984739285E+02  0.53902186765E+00  0.38741091595E+02  0.00000000000E+00 0. -1.
          1    1    1    2  501    0  0.35451451886E+02 -0.48864700554E+02  0.65123230631E+02  0.88800898469E+02  0.00000000000E+00 0. -1.
<scales pt_clust_5="13000.00000" pt_clust_6="13000.00000" pt_clust_7="13000.00000" pt_clust_8="13000.00000" pt_clust_9="60.37026"></scales>
<clustering>
<clus scale="   60.370">  2  9  1 -1</clus>
<clus scale="   86.253">  7  8 -1 -1</clus>
<clus scale="   90.692">  5  6 -1 -1</clus>
<clus scale="   95.941">  2  7  1 -1</clus>
<clus scale="   60.370">  2  5  1 -1</clus>
</clustering>
</event>
<event>
 9    1  0.1426358E-005  0.9989550E+02  0.7546771E-02  0.1281910E+00
         21   -1    0    0  501  502  0.00000000000E+00  0.00000000000E+00  0.50283964799E+02  0.50283964799E+02  0.00000000000E+00 0.  1.
          2   -1    0    0  502    0 -0.00000000000E+00 -0.00000000000E+00 -0.36715421273E+03  0.36715421273E+03  0.00000000000E+00 0. -1.
         23    2    1    2    0    0 -0.46318802022E+02  0.40037304725E+02 -0.18132609074E+03  0.21127851641E+03  0.89504430759E+02 0.  0.
         23    2    1    2    0    0 -0.98204749564E+01 -0.18516269265E+02 -0.91094552596E+02  0.13138974246E+03  0.92335003955E+02 0.  0.
        -11    1    3    3    0    0 -0.27525070216E+02  0.77902654100E+01 -0.26308491315E+01  0.28726975001E+02  0.00000000000E+00 0.  1.
         11    1    3    3    0    0 -0.18793731806E+02  0.32247039315E+02 -0.17869524161E+03  0.18255154141E+03  0.00000000000E+00 0. -1.
        -13    1    4    4    0    0 -0.43981922253E+02 -0.34696882434E+02 -0.62920744215E+02  0.84245493579E+02  0.00000000000E+00 0.  1.
         13    1    4    4    0    0  0.34161447296E+02  0.16180613170E+02 -0.28173808381E+02  0.47144248882E+02  0.00000000000E+00 0. -1.
          2    1    1    2  501    0  0.56139276978E+02 -0.21521035460E+02 -0.44449604599E+02  0.74769918657E+02  0.00000000000E+00 0. -1.
<scales pt_clust_5="13000.00000" pt_clust_6="13000.00000" pt_clust_7="13000.00000" pt_clust_8="13000.00000" pt_clust_9="60.12299"></scales>
<clustering>
<clus scale="   60.123">  1  9  2 -1</clus>
<clus scale="   89.504">  5  6 -1 -1</clus>
<clus scale="   92.335">  7  8 -1 -1</clus>
<clus scale="   97.285">  2  5  1 -1</clus>
<clus scale="   60.123">  1  5  2 -1</clus>
</clustering>
</event>
<event>
 9    1  0.3046429E-005  0.1362705E+03  0.7546771E-02  0.1223801E+00
         21   -1    0    0  501  502  0.00000000000E+00  0.00000000000E+00  0.15810930857E+03  0.15810930857E+03  0.00000000000E+00 0. -1.
          1   -1    0    0  502    0 -0.00000000000E+00 -0.00000000000E+00 -0.62520637495E+03  0.62520637495E+03  0.00000000000E+00 0. -1.
         23    2    1    2    0    0  0.43954824320E+02 -0.87980310865E+02 -0.53103292306E+03  0.54450603949E+03  0.69413975419E+02 0.  0.
         23    2    1    2    0    0 -0.57726065216E+02  0.12343170886E+03  0.94620569619E+02  0.18994247403E+03  0.92506247830E+02 0.  0.
        -13    1    4    4    0    0 -0.13380532591E+02  0.47884236175E+02  0.89265808892E+02  0.10217790056E+03  0.00000000000E+00 0.  1.
         13    1    4    4    0    0 -0.44345532625E+02  0.75547472686E+02  0.53547607268E+01  0.87764573465E+02  0.00000000000E+00 0. -1.
        -13    1    3    3    0    0  0.24893863431E+02  0.21826723029E+01 -0.69337669632E+02  0.73703330487E+02  0.00000000000E+00 0.  1.
         13    1    3    3    0    0  0.19060960889E+02 -0.90162983168E+02 -0.46169525343E+03  0.47080270900E+03  0.00000000000E+00 0. -1.
          1    1    1    2  501    0  0.13771240896E+02 -0.35451397996E+02 -0.30684712947E+02  0.48867170006E+02  0.00000000000E+00 0. -1.
<scales pt_clust_5="13000.00000" pt_clust_6="13000.00000" pt_clust_7="13000.00000" pt_clust_8="13000.00000" pt_clust_9="38.03223"></scales>
<clustering>
<clus scale="   38.032">  1  9  2 -1</clus>
<clus scale="   69.414">  7  8 -1 -1</clus>
<clus scale="   92.506">  5  6 -1 -1</clus>
<clus scale="  121.781">  2  7  1 -1</clus>
<clus scale="   38.032">  1  5  2 -1</clus>
</clustering>
</event>
<event>
 9    1  0.1426358E-005  0.1199021E+03  0.7546771E-02  0.1243412E+00
         -3   -1    0    0    0  501 -0.00000000000E+00  0.00000000000E+00  0.34320579449E+03  0.34320579449E+03  0.00000000000E+00 0.  1.
         21   -1    0    0  501  502  0.00000000000E+00 -0.00000000000E+00 -0.70524487683E+02  0.70524487683E+02  0.00000000000E+00 0. -1.
         23    2    1    2    0    0 -0.98439920809E+02 -0.34913672015E+02  0.17516786174E+03  0.22376882839E+03  0.92083257279E+02 0.  0.
         23    2    1    2    0    0  0.45502261550E+02  0.60805913974E+01  0.66743111794E+02  0.12228165092E+03  0.91600926753E+02 0.  0.
        -11    1    3    3    0    0 -0.67027721090E+02  0.19410541843E+02  0.12606041385E+03  0.14408578163E+03  0.00000000000E+00 0.  1.
         11    1    3    3    0    0 -0.31412199719E+02 -0.54324213858E+02  0.49107447890E+02  0.79683046759E+02  0.00000000000E+00 0. -1.
        -13    1    4    4    0    0  0.20449082994E+02  0.48246870359E+02  0.43018312721E+02  0.67797497919E+02  0.00000000000E+00 0.  1.
         13    1    4    4    0    0  0.25053178556E+02 -0.42166278962E+02  0.23724799073E+02  0.54484153001E+02  0.00000000000E+00 0. -1.
         -3    1    1    2    0  502  0.52937659259E+02  0.28833080618E+02  0.30770333282E+02  0.67679802866E+02  0.00000000000E+00 0.  1.
<scales pt_clust_5="13000.00000" pt_clust_6="13000.00000" pt_clust_7="13000.00000" pt_clust_8="13000.00000" pt_clust_9="60.28053"></scales>
<clustering>
<clus scale="   60.281">  2  9  1 -1</clus>
<clus scale="   91.601">  7  8 -1 -1</clus>
<clus scale="   92.083">  5  6 -1 -1</clus>
<clus scale="  119.532">  2  7  1 -1</clus>
<clus scale="   60.281">  2  5  1 -1</clus>
</clustering>
</event>
<event>
 9    1  0.1426358E-005  0.1393941E+03  0.7546771E-02  0.1214879E+00
          2   -1    0    0  502    0 -0.00000000000E+00  0.00000000000E+00  0.70957145958E+03  0.70957145958E+03  0.00000000000E+00 0. -1.
         21   -1    0    0  501  502  0.00000000000E+00 -0.00000000000E+00 -0.54378370755E+02  0.54378370755E+02  0.00000000000E+00 0. -1.
         23    2    1    2    0    0 -0.83340937807E+02  0.14518914938E+02  0.20205928719E+03  0.23608363636E+03  0.88039860348E+02 0.  0.
         23    2    1    2    0    0  0.11302311643E+03 -0.98891471700E+02  0.24698534157E+03  0.30315093493E+03  0.91350875068E+02 0.  0.
        -11    1    3    3    0    0 -0.43161032668E+02 -0.36936449843E+02  0.93118634743E+02  0.10907912818E+03  0.00000000000E+00 0.  1.
         11    1    3    3    0    0 -0.40179905139E+02  0.51455364781E+02  0.10894065245E+03  0.12700450818E+03  0.00000000000E+00 0. -1.
        -13    1    4    4    0    0  0.58904696531E+02 -0.21130374595E+02  0.16975004873E+03  0.18091803406E+03  0.00000000000E+00 0.  1.
         13    1    4    4    0    0  0.54118419899E+02 -0.77761097105E+02  0.77235292844E+02  0.12223290087E+03  0.00000000000E+00 0. -1.
          2    1    1    2  501    0 -0.29682178622E+02  0.84372556762E+02  0.20614846005E+03  0.22471525904E+03  0.00000000000E+00 0. -1.
<scales pt_clust_5="13000.00000" pt_clust_6="13000.00000" pt_clust_7="13000.00000" pt_clust_8="13000.00000" pt_clust_9="89.44142"></scales>
<clustering>
<clus scale="   88.040">  5  6 -1 -1</clus>
<clus scale="   89.441">  2  9  1 -1</clus>
<clus scale="   91.351">  7  8 -1 -1</clus>
<clus scale="  137.247">  1  5  2 -1</clus>
<clus scale="   89.441">  2  5  1 -1</clus>
</clustering>
</event>
<event>
 9    1  0.1426358E-005  0.2290295E+03  0.7546771E-02  0.1128369E+00
         21   -1    0    0  501  502  0.00000000000E+00  0.00000000000E+00  0.12797164903E+03  0.12797164903E+03  0.00000000000E+00 0.  1.
         -3   -1    0    0    0  501 -0.00000000000E+00 -0.00000000000E+00 -0.13165191325E+04  0.13165191325E+04  0.00000000000E+00 0.  1.
         23    2    1    2    0    0  0.20976809278E+03  0.10419223988E+03 -0.81218192211E+03  0.85082524293E+03  0.96981667415E+02 0.  0.
         23    2    1    2    0    0 -0.85187790747E+02 -0.17735411379E+03 -0.39410006281E+03  0.44810653338E+03  0.82299236831E+02 0.  0.
        -11    1    4    4    0    0 -0.14084413714E+02 -0.85277713807E+02 -0.23954445272E+03  0.25466095895E+03  0.00000000000E+00 0.  1.
         11    1    4    4    0    0 -0.71103377033E+02 -0.92076399981E+02 -0.15455561009E+03  0.19344557444E+03  0.00000000000E+00 0. -1.
        -11    1    3    3    0    0  0.21103194581E+02  0.51121163519E+02 -0.13606054584E+03  0.14687133932E+03  0.00000000000E+00 0. -1.
         11    1    3    3    0    0  0.18866489820E+03  0.53071076363E+02 -0.67612137627E+03  0.70395390361E+03  0.00000000000E+00 0.  1.
         -3    1    1    2    0  502 -0.12458030203E+03  0.73161873906E+02  0.17734501479E+02  0.14555900519E+03  0.00000000000E+00 0.  1.
<scales pt_clust_5="13000.00000" pt_clust_6="13000.00000" pt_clust_7="13000.00000" pt_clust_8="13000.00000" pt_clust_9="144.47460"></scales>
<clustering>
<clus scale="   82.299">  5  6 -1 -1</clus>
<clus scale="   96.982">  7  8 -1 -1</clus>
<clus scale="  144.475">  1  9  2 -1</clus>
<clus scale="  223.209">  1  5  2 -1</clus>
<clus scale="  144.475">  1  5  2 -1</clus>
</clustering>
</event>
<event>
 9    1  0.1426358E-005  0.1079707E+03  0.7546771E-02  0.1271976E+00
         21   -1    0    0  501  502  0.00000000000E+00  0.00000000000E+00  0.28847063756E+02  0.28847063756E+02  0.00000000000E+00 0. -1.
          2   -1    0    0  502    0 -0.00000000000E+00 -0.00000000000E+00 -0.74899336200E+03  0.74899336200E+03  0.00000000000E+00 0. -1.
         23    2    1    2    0    0 -0.18409994928E+02  0.52748339984E+02 -0.42409558994E+03  0.43926493898E+03  0.99876433293E+02 0.  0.
         23    2    1    2    0    0  0.46526860655E+02  0.88846884336E+01 -0.18517381191E+03  0.20864137084E+03  0.83655212374E+02 0.  0.
        -11    1    4    4    0    0 -0.57867375183E+01  0.33976628988E+02 -0.43162477277E+02  0.55234926388E+02  0.00000000000E+00 0.  1.
         11    1    4    4    0    0  0.52313598173E+02 -0.25091940554E+02 -0.14201133464E+03  0.15340644445E+03  0.00000000000E+00 0. -1.
        -13    1    3    3    0    0  0.16270661862E+01 -0.26480759584E+02 -0.52906984816E+02  0.59186375247E+02  0.00000000000E+00 0.  1.
         13    1    3    3    0    0 -0.20037061114E+02  0.79229099568E+02 -0.37118860513E+03  0.38007856374E+03  0.00000000000E+00 0. -1.
          2    1    1    2  501    0 -0.28116865727E+02 -0.61633028418E+02 -0.11087689639E+03  0.12993411593E+03  0.00000000000E+00 0. -1.
<scales pt_clust_5="13000.00000" pt_clust_6="13000.00000" pt_clust_7="13000.00000" pt_clust_8="13000.00000" pt_clust_9="67.74355"></scales>
<clustering>
<clus scale="   67.744">  1  9  2 -1</clus>
<clus scale="   83.655">  5  6 -1 -1</clus>
<clus scale="   93.170">  1  5  2 -1</clus>
<clus scale="   99.876">  7  8 -1 -1</clus>
<clus scale="   67.744">  1  5  2 -1</clus>
</clustering>
</event>
<event>
 9    1  0.1426358E-005  0.9247803E+02  0.7546771E-02  0.1297640E+00
          2   -1    0    0  502    0 -0.00000000000E+00  0.00000000000E+00  0.15511968550E+03  0.15511968550E+03  0.00000000000E+00 0. -1.
         21   -1    0    0  501  502  0.00000000000E+00 -0.00000000000E+00 -0.13094624889E+03  0.13094624889E+03  0.00000000000E+00 0. -1.
         23    2    1    2    0    0  0.17395318625E+02 -0.44487584477E+01  0.50232299166E+02  0.10505356587E+03  0.90501819097E+02 0.  0.
         23    2    1    2    0    0 -0.57068715362E+01  0.26072121042E+02  0.46663693090E+02  0.10424805582E+03  0.89318715909E+02 0.  0.
        -11    1    4    4    0    0 -0.20257869467E+02  0.93995237868E+01  0.69169400179E+02  0.72685199621E+02  0.00000000000E+00 0. -1.
         11    1    4    4    0    0  0.14550997931E+02  0.16672597256E+02 -0.22505707089E+02  0.31562856202E+02  0.00000000000E+00 0.  1.
        -13    1    3    3    0    0  0.54080106517E+02 -0.99403658091E+01  0.33248294565E+02  0.64256656346E+02  0.00000000000E+00 0.  1.
         13    1    3    3    0    0 -0.36684787892E+02  0.54916073615E+01  0.16984004601E+02  0.40796909520E+02  0.00000000000E+00 0. -1.
          2    1    1    2  501    0 -0.11688447089E+02 -0.21623362595E+02 -0.72722555644E+02  0.76764312703E+02  0.00000000000E+00 0. -1.
<scales pt_clust_5="13000.00000" pt_clust_6="13000.00000" pt_clust_7="13000.00000" pt_clust_8="13000.00000" pt_clust_9="24.58027"></scales>
<clustering>
<clus scale="   24.580">  2  9  1 -1</clus>
<clus scale="   89.319">  5  6 -1 -1</clus>
<clus scale="   90.502">  7  8 -1 -1</clus>
<clus scale="   91.321">  2  5  1 -1</clus>
<clus scale="   24.580">  2  5  1 -1</clus>
</clustering>
</event>
<event>
 9    1  0.1426358E-005  0.9550539E+02  0.7546771E-02  0.1292364E+00
         21   -1    0    0  501  502  0.00000000000E+00  0.00000000000E+00  0.16234405534E+03  0.16234405534E+03  0.00000000000E+00 0. -1.
         -3   -1    0    0    0  501 -0.00000000000E+00 -0.00000000000E+00 -0.14458093961E+03  0.14458093961E+03  0.00000000000E+00 0.  1.
         23    2    1    2    0    0 -0.22373505855E+02 -0.31524395575E+02 -0.12954714543E+02  0.98782395653E+02  0.89976529059E+02 0.  0.
         23    2    1    2    0    0  0.44076076791E+01 -0.62275952687E+02  0.16852231462E+02  0.11163594843E+03  0.90999263673E+02 0.  0.
        -11    1    3    3    0    0 -0.14642610677E+02  0.29384802032E+02  0.82048643162E+01  0.33840692019E+02  0.00000000000E+00 0.  1.
         11    1    3    3    0    0 -0.77308951771E+01 -0.60909197606E+02 -0.21159578859E+02  0.64941703633E+02  0.00000000000E+00 0. -1.
        -11    1    4    4    0    0  0.44127352187E+02 -0.11420228620E+02  0.10657233563E+02  0.46810484509E+02  0.00000000000E+00 0.  1.
         11    1    4    4    0    0 -0.39719744508E+02 -0.50855724067E+02  0.61949978986E+01  0.64825463925E+02  0.00000000000E+00 0. -1.
         -3    1    1    2    0  502  0.17965898175E+02  0.93800348262E+02  0.13865598815E+02  0.96506650868E+02  0.00000000000E+00 0.  1.
<scales pt_clust_5="13000.00000" pt_clust_6="13000.00000" pt_clust_7="13000.00000" pt_clust_8="13000.00000" pt_clust_9="95.50539"></scales>
<clustering>
<clus scale="   89.977">  5  6 -1 -1</clus>
<clus scale="   90.999">  7  8 -1 -1</clus>
<clus scale="   95.505">  1  9  2 -1</clus>
<clus scale="   91.448">  2  5  1 -1</clus>
<clus scale="   95.505">  1  5  2 -1</clus>
</clustering>
</event>
<event>
 9    1  0.1426358E-005  0.9945666E+02  0.7546771E-02  0.1282255E+00
          1   -1    0    0  502    0 -0.00000000000E+00  0.00000000000E+00  0.25232567994E+03  0.25232567994E+03  0.00000000000E+00 0. -1.
         21   -1    0    0  501  502  0.00000000000E+00 -0.00000000000E+00 -0.56400545919E+02  0.56400545919E+02  0.00000000000E+00 0.  1.
         23    2    1    2    0    0 -0.23104859180E+01 -0.45819361726E+02  0.14526980641E+03  0.17818844981E+03  0.92428646740E+02 0.  0.
         23    2    1    2    0    0 -0.51603732557E+01  0.20619556117E+02  0.45497563926E+02  0.10375258488E+03  0.90789729590E+02 0.  0.
        -13    1    4    4    0    0 -0.11074563449E+02 -0.34506472615E+02  0.88889481650E+01  0.37314286907E+02  0.00000000000E+00 0. -1.
         13    1    4    4    0    0  0.59141901931E+01  0.55126028732E+02  0.36608615761E+02  0.66438297971E+02  0.00000000000E+00 0.  1.
        -13    1    3    3    0    0  0.18647439520E+02  0.13880722796E+02  0.42596103688E+01  0.23633572445E+02  0.00000000000E+00 0.  1.
         13    1    3    3    0    0 -0.20957925438E+02 -0.59700084522E+02  0.14101019604E+03  0.15455487737E+03  0.00000000000E+00 0. -1.
          1    1    1    2  501    0  0.74708591736E+01  0.25199805609E+02  0.51577636811E+01  0.26785191164E+02  0.00000000000E+00 0. -1.
<scales pt_clust_5="13000.00000" pt_clust_6="13000.00000" pt_clust_7="13000.00000" pt_clust_8="13000.00000" pt_clust_9="26.28391"></scales>
<clustering>
<clus scale="   26.284">  2  9  1 -1</clus>
<clus scale="   90.790">  5  6 -1 -1</clus>
<clus scale="   92.429">  7  8 -1 -1</clus>
<clus scale="   97.935">  2  5  1 -1</clus>
<clus scale="   26.284">  2  5  1 -1</clus>
</clustering>
</event>
<event>
 9    1  0.1426358E-005  0.1325242E+03  0.7546771E-02  0.1223899E+00
         21   -1    0    0  501  502  0.00000000000E+00  0.00000000000E+00  0.20759200746E+03  0.20759200746E+03  0.00000000000E+00 0.  1.
         -4   -1    0    0    0  501 -0.00000000000E+00 -0.00000000000E+00 -0.15681183549E+03  0.15681183549E+03  0.00000000000E+00 0.  1.
         23    2    1    2    0    0 -0.63810931149E+02  0.91755887731E+02 -0.51053844340E+02  0.15351074129E+03  0.92022143005E+02 0.  0.
         23    2    1    2    0    0  0.46081886028E+02 -0.55524990855E+02  0.19200059448E+02  0.11894002800E+03  0.92582520755E+02 0.  0.
        -11    1    4    4    0    0  0.36550830595E+02  0.19558610848E+02  0.31766768831E+01  0.41576360489E+02  0.00000000000E+00 0. -1.
         11    1    4    4    0    0  0.95310554323E+01 -0.75083601703E+02  0.16023382565E+02  0.77363667514E+02  0.00000000000E+00 0.  1.
        -13    1    3    3    0    0 -0.15139300346E+02  0.49499797300E+02 -0.69322722164E+02  0.86516288385E+02  0.00000000000E+00 0.  1.
         13    1    3    3    0    0 -0.48671630804E+02  0.42256090431E+02  0.18268877824E+02  0.66994452909E+02  0.00000000000E+00 0. -1.
         -4    1    1    2    0  502  0.17729045122E+02 -0.36230896876E+02  0.82633956858E+02  0.91953073659E+02  0.00000000000E+00 0.  1.
<scales pt_clust_5="13000.00000" pt_clust_6="13000.00000" pt_clust_7="13000.00000" pt_clust_8="13000.00000" pt_clust_9="40.33605"></scales>
<clustering>
<clus scale="   40.336">  1  9  2 -1</clus>
<clus scale="   92.022">  7  8 -1 -1</clus>
<clus scale="   92.583">  5  6 -1 -1</clus>
<clus scale="  132.133">  2  7  1 -1</clus>
<clus scale="   40.336">  1  5  2 -1</clus>
</clustering>
</event>
<event>
 9    1  0.1426358E-005  0.1005828E+03  0.7546771E-02  0.1280385E+00
         21   -1    0    0  501  502  0.00000000000E+00  0.00000000000E+00  0.14408431289E+03  0.14408431289E+03  0.00000000000E+00 0.  1.
         -2   -1    0    0    0  501 -0.00000000000E+00 -0.00000000000E+00 -0.17137106833E+03  0.17137106833E+03  0.00000000000E+00 0.  1.
         23    2    1    2    0    0 -0.16246789403E+02  0.26577593059E+02 -0.90607173459E+02  0.13197118718E+03  0.90754656872E+02 0.  0.
         23    2    1    2    0    0  0.29916156420E+02 -0.42152688898E+02 -0.10048956281E+02  0.10724443872E+03  0.93426776236E+02 0.  0.
        -11    1    4    4    0    0 -0.68630966065E+01 -0.53861339585E+02 -0.31816058346E+02  0.62931769128E+02  0.00000000000E+00 0.  1.
         11    1    4    4    0    0  0.36779253026E+02  0.11708650687E+02  0.21767102065E+02  0.44312669592E+02  0.00000000000E+00 0. -1.
        -13    1    3    3    0    0 -0.31729580488E+02  0.66289185497E+01  0.52558833982E+01  0.32837983333E+02  0.00000000000E+00 0. -1.
         13    1    3    3    0    0  0.15482791085E+02  0.19948674509E+02 -0.95863056857E+02  0.99133203844E+02  0.00000000000E+00 0.  1.
         -2    1    1    2    0  502 -0.13669367017E+02  0.15575095839E+02  0.73369374306E+02  0.76239755318E+02  0.00000000000E+00 0.  1.
<scales pt_clust_5="13000.00000" pt_clust_6="13000.00000" pt_clust_7="13000.00000" pt_clust_8="13000.00000" pt_clust_9="20.72282"></scales>
<clustering>
<clus scale="   20.723">  1  9  2 -1</clus>
<clus scale="   90.755">  7  8 -1 -1</clus>
<clus scale="   93.427">  5  6 -1 -1</clus>
<clus scale="   98.106">  2  7  1 -1</clus>
<clus scale="   20.723">  1  5  2 -1</clus>
</clustering>
</event>
<event>
 9    1  0.1426358E-005  0.1471798E+03  0.7546771E-02  0.1204132E+00
          1   -1    0    0  502    0 -0.00000000000E+00  0.00000000000E+00  0.16546825979E+03  0.16546825979E+03  0.00000000000E+00 0. -1.
         21   -1    0    0  501  502  0.00000000000E+00 -0.00000000000E+00 -0.39709594802E+03  0.39709594802E+03  0.00000000000E+00 0. -1.
         23    2    1    2    0    0 -0.90616670116E+01  0.79136842594E+02 -0.45748051936E+01  0.12074800566E+03  0.90633318178E+02 0.  0.
         23    2    1    2    0    0  0.53416146846E+01 -0.17101737993E+03  0.38263310337E+01  0.19329842930E+03  0.89856356897E+02 0.  0.
        -11    1    4    4    0    0 -0.21234811288E+02 -0.31277827852E+02  0.30500506112E+02  0.48574690927E+02  0.00000000000E+00 0.  1.
         11    1    4    4    0    0  0.26576425973E+02 -0.13973955207E+03 -0.26674175078E+02  0.14472373837E+03  0.00000000000E+00 0. -1.
        -11    1    3    3    0    0 -0.44585570571E+02  0.68402178583E+02  0.68020284114E+01  0.81932891616E+02  0.00000000000E+00 0.  1.
         11    1    3    3    0    0  0.35523903559E+02  0.10734664011E+02 -0.11376833605E+02  0.38815114046E+02  0.00000000000E+00 0. -1.
          1    1    1    2  501    0  0.37200523270E+01  0.91880537331E+02 -0.23087921407E+03  0.24851777284E+03  0.00000000000E+00 0. -1.
<scales pt_clust_5="13000.00000" pt_clust_6="13000.00000" pt_clust_7="13000.00000" pt_clust_8="13000.00000" pt_clust_9="91.95582"></scales>
<clustering>
<clus scale="   89.856">  5  6 -1 -1</clus>
<clus scale="   90.633">  7  8 -1 -1</clus>
<clus scale="   91.956">  2  9  1 -1</clus>
<clus scale="  146.703">  2  5  1 -1</clus>
<clus scale="   91.956">  2  5  1 -1</clus>
</clustering>
</event>
<event>
 9    1  0.1426358E-005  0.1451941E+03  0.7546771E-02  0.1206522E+00
         -2   -1    0    0    0  501 -0.00000000000E+00  0.00000000000E+00  0.45664465325E+03  0.45664465325E+03  0.00000000000E+00 0.  1.
         21   -1    0    0  501  502  0.00000000000E+00 -0.00000000000E+00 -0.75601273862E+02  0.75601273862E+02  0.00000000000E+00 0. -1.
         23    2    1    2    0    0  0.88223006210E+02  0.78412362046E+02  0.23342332122E+03  0.27736705396E+03  0.92272630734E+02 0.  0.
         23    2    1    2    0    0 -0.92481347862E+02 -0.52631262785E+02  0.16977214620E+03  0.22062228901E+03  0.92351303498E+02 0.  0.
        -11    1    3    3    0    0  0.15956240448E+02 -0.21244151258E+02  0.46327682116E+02  0.53405708517E+02  0.00000000000E+00 0.  1.
         11    1    3    3    0    0  0.72266765763E+02  0.99656513305E+02  0.18709563911E+03  0.22396134544E+03  0.00000000000E+00 0. -1.
        -13    1    4    4    0    0 -0.67832759676E+02  0.87489256054E+01  0.11893671234E+03  0.13719973953E+03  0.00000000000E+00 0.  1.
         13    1    4    4    0    0 -0.24648588186E+02 -0.61380188391E+02  0.50835433868E+02  0.83422549487E+02  0.00000000000E+00 0. -1.
         -2    1    1    2    0  502  0.42583416517E+01 -0.25781099261E+02 -0.22152088039E+02  0.34256584144E+02  0.00000000000E+00 0.  1.
<scales pt_clust_5="13000.00000" pt_clust_6="13000.00000" pt_clust_7="13000.00000" pt_clust_8="13000.00000" pt_clust_9="26.13041"></scales>
<clustering>
<clus scale="   26.130">  2  9  1 -1</clus>
<clus scale="   92.273">  5  6 -1 -1</clus>
<clus scale="   92.351">  7  8 -1 -1</clus>
<clus scale="  145.144">  1  5  2 -1</clus>
<clus scale="   26.130">  2  5  1 -1</clus>
</clustering>
</event>
<event>
 9    1  0.1426358E-005  0.1000646E+03  0.7546771E-02  0.1281866E+00
         -1   -1    0    0    0  501 -0.00000000000E+00  0.00000000000E+00  0.47383940454E+03  0.47383940454E+03  0.00000000000E+00 0.  1.
         21   -1    0    0  501  502  0.00000000000E+00 -0.00000000000E+00 -0.44649318946E+02  0.44649318946E+02  0.00000000000E+00 0.  1.
         23    2    1    2    0    0  0.20355910823E+02  0.24494115154E+02  0.28063770108E+03  0.29590088908E+03  0.88235435663E+02 0.  0.
         23    2    1    2    0    0 -0.44430219009E+02 -0.58395126749E+02  0.79016829688E+02  0.14156904469E+03  0.91728402649E+02 0.  0.
        -11    1    3    3    0    0  0.11278588544E+02  0.57877621069E+02  0.16634980261E+03  0.17649159303E+03  0.00000000000E+00 0. -1.
         11    1    3    3    0    0  0.90773222793E+01 -0.33383505916E+02  0.11428789847E+03  0.11940929606E+03  0.00000000000E+00 0.  1.
        -13    1    4    4    0    0 -0.70953037384E+02 -0.25938739484E+02  0.51423019986E+02  0.91386425166E+02  0.00000000000E+00 0.  1.
         13    1    4    4    0    0  0.26522818375E+02 -0.32456387265E+02  0.27593809702E+02  0.50182619528E+02  0.00000000000E+00 0. -1.
         -1    1    1    2    0  502  0.24074308186E+02  0.33901011595E+02  0.69535554822E+02  0.81018789710E+02  0.00000000000E+00 0.  1.
<scales pt_clust_5="13000.00000" pt_clust_6="13000.00000" pt_clust_7="13000.00000" pt_clust_8="13000.00000" pt_clust_9="41.57947"></scales>
<clustering>
<clus scale="   41.579">  2  9  1 -1</clus>
<clus scale="   88.235">  5  6 -1 -1</clus>
<clus scale="   91.728">  7  8 -1 -1</clus>
<clus scale="   96.873">  1  5  2 -1</clus>
<clus scale="   41.579">  2  5  1 -1</clus>
</clustering>
</event>
<event>
 9    1  0.1426358E-005  0.1086545E+03  0.7546771E-02  0.1263340E+00
         21   -1    0    0  501  502  0.00000000000E+00  0.00000000000E+00  0.37181296357E+03  0.37181296357E+03  0.00000000000E+00 0.  1.
         -1   -1    0    0    0  501 -0.00000000000E+00 -0.00000000000E+00 -0.62851936672E+02  0.62851936672E+02  0.00000000000E+00 0.  1.
         23    2    1    2    0    0  0.44568620786E+02 -0.44407817049E+02  0.22035968973E+02  0.11384693916E+03  0.92288273650E+02 0.  0.
         23    2    1    2    0    0 -0.25063912692E+02  0.32340641765E+02  0.14479033944E+03  0.17684460051E+03  0.92928216942E+02 0.  0.
        -13    1    4    4    0    0 -0.24109632970E+02 -0.30096452331E+02  0.46686158962E+02  0.60553020433E+02  0.00000000000E+00 0.  1.
         13    1    4    4    0    0 -0.95427972181E+00  0.62437094096E+02  0.98104180479E+02  0.11629158008E+03  0.00000000000E+00 0. -1.
        -13    1    3    3    0    0  0.14127193092E+02 -0.69622804001E+02  0.21823902747E+02  0.74318202029E+02  0.00000000000E+00 0.  1.
         13    1    3    3    0    0  0.30441427694E+02  0.25214986952E+02  0.21206622638E+00  0.39528737130E+02  0.00000000000E+00 0. -1.
         -1    1    1    2    0  502 -0.19504708095E+02  0.12067175285E+02  0.14213471848E+03  0.14397336057E+03  0.00000000000E+00 0.  1.
<scales pt_clust_5="13000.00000" pt_clust_6="13000.00000" pt_clust_7="13000.00000" pt_clust_8="13000.00000" pt_clust_9="22.93579"></scales>
<clustering>
<clus scale="   22.936">  1  9  2 -1</clus>
<clus scale="   92.288">  7  8 -1 -1</clus>
<clus scale="   92.928">  5  6 -1 -1</clus>
<clus scale="  108.108">  2  7  1 -1</clus>
<clus scale="   22.936">  1  5  2 -1</clus>
</clustering>
</event>
<event>
 9    1  0.1426358E-005  0.9306172E+02  0.7546771E-02  0.1296537E+00
          3   -1    0    0  502    0 -0.00000000000E+00  0.00000000000E+00  0.55197407386E+03  0.55197407386E+03  0.00000000000E+00 0. -1.
         21   -1    0    0  501  502  0.00000000000E+00 -0.00000000000E+00 -0.14567543052E+03  0.14567543052E+03  0.00000000000E+00 0. -1.
         23    2    1    2    0    0  0.34263892976E+02  0.71565189339E+01  0.33524775455E+03  0.34918107900E+03  0.91165447841E+02 0.  0.
         23    2    1    2    0    0  0.46995912241E+01 -0.20672494104E+01  0.19704295839E+03  0.21649094484E+03  0.89532352094E+02 0.  0.
        -11    1    4    4    0    0 -0.12264075970E+02 -0.42741091734E+02  0.11618607094E+03  0.12440422646E+03  0.00000000000E+00 0.  1.
         11    1    4    4    0    0  0.16963667194E+02  0.40673842323E+02  0.80856887450E+02  0.92086718381E+02  0.00000000000E+00 0. -1.
        -11    1    3    3    0    0  0.56846078871E+02 -0.20147699543E+02  0.17625779746E+03  0.18629068051E+03  0.00000000000E+00 0.  1.
         11    1    3    3    0    0 -0.22582185894E+02  0.27304218477E+02  0.15898995709E+03  0.16289039850E+03  0.00000000000E+00 0. -1.
          3    1    1    2  501    0 -0.38963484201E+02 -0.50892695235E+01 -0.12599206960E+03  0.13197748053E+03  0.00000000000E+00 0. -1.
<scales pt_clust_5="13000.00000" pt_clust_6="13000.00000" pt_clust_7="13000.00000" pt_clust_8="13000.00000" pt_clust_9="39.29445"></scales>
<clustering>
<clus scale="   39.294">  2  9  1 -1</clus>
<clus scale="   89.532">  5  6 -1 -1</clus>
<clus scale="   91.165">  7  8 -1 -1</clus>
<clus scale="   91.462">  2  5  1 -1</clus>
<clus scale="   39.294">  2  5  1 -1</clus>
</clustering>
</event>
<event>
 9    1  0.1426358E-005  0.1238084E+03  0.7546771E-02  0.1237055E+00
         21   -1    0    0  501  502  0.00000000000E+00  0.00000000000E+00  0.56246277319E+02  0.56246277319E+02  0.00000000000E+00 0. -1.
          1   -1    0    0  502    0 -0.00000000000E+00 -0.00000000000E+00 -0.10321471953E+04  0.10321471953E+04  0.00000000000E+00 0. -1.
         23    2    1    2    0    0 -0.30166667932E+02 -0.70545583842E+02 -0.69951028034E+03  0.70963267908E+03  0.91527043332E+02 0.  0.
         23    2    1    2    0    0  0.40208945596E+02  0.94290606309E+02 -0.30847743582E+03  0.33759969478E+03  0.91146847236E+02 0.  0.
        -11    1    4    4    0    0  0.73756706146E+01  0.94689082236E+02 -0.16471780425E+03  0.19013778648E+03  0.00000000000E+00 0.  1.
         11    1    4    4    0    0  0.32833274981E+02 -0.39847592786E+00 -0.14375963158E+03  0.14746190830E+03  0.00000000000E+00 0. -1.
        -11    1    3    3    0    0  0.12094686954E+02 -0.75851685316E+02 -0.45736762153E+03  0.46377246667E+03  0.00000000000E+00 0. -1.
         11    1    3    3    0    0 -0.42261354886E+02  0.53061014741E+01 -0.24214265881E+03  0.24586021241E+03  0.00000000000E+00 0.  1.
          1    1    1    2  501    0 -0.10042277664E+02 -0.23745022467E+02  0.32086798187E+02  0.41161098753E+02  0.00000000000E+00 0. -1.
<scales pt_clust_5="13000.00000" pt_clust_6="13000.00000" pt_clust_7="13000.00000" pt_clust_8="13000.00000" pt_clust_9="25.78126"></scales>
<clustering>
<clus scale="   25.781">  1  9  2 -1</clus>
<clus scale="   91.147">  5  6 -1 -1</clus>
<clus scale="   91.527">  7  8 -1 -1</clus>
<clus scale="  123.528">  1  5  2 -1</clus>
<clus scale="   25.781">  1  5  2 -1</clus>
</clustering>
</event>
<event>
 9    1  0.1426358E-005  0.9294193E+02  0.7546771E-02  0.1296210E+00
          2   -1    0    0  502    0 -0.00000000000E+00  0.00000000000E+00  0.22036459580E+03  0.22036459580E+03  0.00000000000E+00 0. -1.
         21   -1    0    0  501  502  0.00000000000E+00 -0.00000000000E+00 -0.28678974878E+03  0.28678974878E+03  0.00000000000E+00 0.  1.
         23    2    1    2    0    0 -0.14868638897E+02 -0.16793356437E+02  0.19182996205E+03  0.21310050761E+03  0.90055531548E+02 0.  0.
         23    2    1    2    0    0 -0.12353736233E+02  0.80389026679E+01 -0.11105935373E+03  0.14410621174E+03  0.90637638188E+02 0.  0.
        -11    1    3    3    0    0 -0.42914286116E+02 -0.14129509839E+02  0.45639254572E+02  0.64220094667E+02  0.00000000000E+00 0.  1.
         11    1    3    3    0    0  0.28045647219E+02 -0.26638465982E+01  0.14619070748E+03  0.14888041295E+03  0.00000000000E+00 0. -1.
        -13    1    4    4    0    0  0.20028751028E+02 -0.23039818154E+02 -0.77927021106E+01  0.31507305415E+02  0.00000000000E+00 0. -1.
         13    1    4    4    0    0 -0.32382487261E+02  0.31078720822E+02 -0.10326665162E+03  0.11259890633E+03  0.00000000000E+00 0.  1.
          2    1    1    2  501    0  0.27222375130E+02  0.87544537690E+01 -0.14719576130E+03  0.14994762523E+03  0.00000000000E+00 0. -1.
<scales pt_clust_5="13000.00000" pt_clust_6="13000.00000" pt_clust_7="13000.00000" pt_clust_8="13000.00000" pt_clust_9="28.59542"></scales>
<clustering>
<clus scale="   28.595">  2  9  1 -1</clus>
<clus scale="   90.056">  5  6 -1 -1</clus>
<clus scale="   90.638">  7  8 -1 -1</clus>
<clus scale="   92.374">  1  5  2 -1</clus>
<clus scale="   28.595">  2  5  1 -1</clus>
</clustering>
</event>
<event>
 9    1  0.1426358E-005  0.9230219E+02  0.7546771E-02  0.1298135E+00
         21   -1    0    0  501  502  0.00000000000E+00  0.00000000000E+00  0.56573468105E+02  0.56573468105E+02  0.00000000000E+00 0. -1.
          1   -1    0    0  502    0 -0.00000000000E+00 -0.00000000000E+00 -0.52419732253E+03  0.52419732253E+03  0.00000000000E+00 0. -1.
         23    2    1    2    0    0 -0.19870207924E+02  0.17707229801E+02 -0.31132282501E+03  0.32556341486E+03  0.91439950666E+02 0.  0.
         23    2    1    2    0    0 -0.57107983706E+01  0.52402182852E+01 -0.18788706063E+03  0.20853135812E+03  0.90131607461E+02 0.  0.
        -13    1    4    4    0    0  0.25938066060E+02 -0.22156685414E+02 -0.14358329756E+03  0.14758003021E+03  0.00000000000E+00 0.  1.
         13    1    4    4    0    0 -0.31648864431E+02  0.27396903699E+02 -0.44303763070E+02  0.60951327912E+02  0.00000000000E+00 0. -1.
        -13    1    3    3    0    0 -0.16284667170E+02 -0.35289033737E+02 -0.91461301332E+02  0.99376435478E+02  0.00000000000E+00 0.  1.
         13    1    3    3    0    0 -0.35855407539E+01  0.52996263538E+02 -0.21986152367E+03  0.22618697939E+03  0.00000000000E+00 0. -1.
          1    1    1    2  501    0  0.25581006295E+02 -0.22947448086E+02  0.31586031205E+02  0.46676017653E+02  0.00000000000E+00 0. -1.
<scales pt_clust_5="13000.00000" pt_clust_6="13000.00000" pt_clust_7="13000.00000" pt_clust_8="13000.00000" pt_clust_9="34.36529"></scales>
<clustering>
<clus scale="   34.365">  1  9  2 -1</clus>
<clus scale="   90.132">  5  6 -1 -1</clus>
<clus scale="   91.006">  1  5  2 -1</clus>
<clus scale="   91.440">  7  8 -1 -1</clus>
<clus scale="   34.365">  1  5  2 -1</clus>
</clustering>
</event>
<event>
 9    1  0.1426358E-005  0.1391813E+03  0.7546771E-02  0.1214477E+00
         21   -1    0    0  501  502  0.00000000000E+00  0.00000000000E+00  0.12353325527E+03  0.12353325527E+03  0.00000000000E+00 0.  1.
         -1   -1    0    0    0  501 -0.00000000000E+00 -0.00000000000E+00 -0.44088216515E+03  0.44088216515E+03  0.00000000000E+00 0.  1.
         23    2    1    2    0    0  0.69843005548E+02  0.20312039307E+01 -0.12662785162E+03  0.17090821051E+03  0.91064989973E+02 0.  0.
         23    2    1    2    0    0 -0.15803856454E+03 -0.65836746957E+02 -0.20684145268E+03  0.28346416805E+03  0.90872894130E+02 0.  0.
        -13    1    3    3    0    0  0.53218294576E+02  0.38220046166E+02 -0.10939338233E+03  0.12751419884E+03  0.00000000000E+00 0. -1.
         13    1    3    3    0    0  0.16624710971E+02 -0.36188842235E+02 -0.17234469290E+02  0.43394011671E+02  0.00000000000E+00 0.  1.
        -13    1    4    4    0    0 -0.14064738722E+03 -0.84866304563E+02 -0.15638955768E+03  0.22680756366E+03  0.00000000000E+00 0.  1.
         13    1    4    4    0    0 -0.17391177316E+02  0.19029557606E+02 -0.50451895002E+02  0.56656604385E+02  0.00000000000E+00 0. -1.
         -1    1    1    2    0  502  0.88195558992E+02  0.63805543026E+02  0.16120394428E+02  0.11004304187E+03  0.00000000000E+00 0.  1.
<scales pt_clust_5="13000.00000" pt_clust_6="13000.00000" pt_clust_7="13000.00000" pt_clust_8="13000.00000" pt_clust_9="108.85589"></scales>
<clustering>
<clus scale="   90.873">  7  8 -1 -1</clus>
<clus scale="   91.065">  5  6 -1 -1</clus>
<clus scale="  108.856">  1  9  2 -1</clus>
<clus scale="  139.056">  1  7  2 -1</clus>
<clus scale="  108.856">  1  5  2 -1</clus>
</clustering>
</event>
<event>
 9    1  0.1426358E-005  0.1669324E+03  0.7546771E-02  0.1181211E+00
         -1   -1    0    0    0  501 -0.00000000000E+00  0.00000000000E+00  0.60122808841E+03  0.60122808841E+03  0.00000000000E+00 0.  1.
         21   -1    0    0  501  502  0.00000000000E+00 -0.00000000000E+00 -0.14414137620E+03  0.14414137620E+03  0.00000000000E+00 0.  1.
         23    2    1    2    0    0  0.14200188803E+03  0.57999850258E+02  0.30178415184E+03  0.35043670004E+03  0.90574210472E+02 0.  0.
         23    2    1    2    0    0 -0.90809730712E+02 -0.96243689345E+02  0.23995311888E+03  0.28887171962E+03  0.91433671074E+02 0.  0.
        -11    1    4    4    0    0 -0.99830237015E+02 -0.47560306193E+02  0.17818144451E+03  0.20970618998E+03  0.00000000000E+00 0.  1.
         11    1    4    4    0    0  0.90205063033E+01 -0.48683383151E+02  0.61771674363E+02  0.79165529637E+02  0.00000000000E+00 0. -1.
        -13    1    3    3    0    0  0.78131962322E+02  0.64564355266E+02  0.24337664958E+03  0.26363867901E+03  0.00000000000E+00 0.  1.
         13    1    3    3    0    0  0.63869925709E+02 -0.65645050086E+01  0.58407502259E+02  0.86798021038E+02  0.00000000000E+00 0. -1.
         -1    1    1    2    0  502 -0.51192157319E+02  0.38243839087E+02 -0.84650558509E+02  0.10606104495E+03  0.00000000000E+00 0.  1.
<scales pt_clust_5="13000.00000" pt_clust_6="13000.00000" pt_clust_7="13000.00000" pt_clust_8="13000.00000" pt_clust_9="63.90014"></scales>
<clustering>
<clus scale="   63.900">  2  9  1 -1</clus>
<clus scale="   90.574">  7  8 -1 -1</clus>
<clus scale="   91.434">  5  6 -1 -1</clus>
<clus scale="  166.463">  1  7  2 -1</clus>
<clus scale="   63.900">  2  5  1 -1</clus>
</clustering>
</event>
<event>
 9    1  0.1426358E-005  0.1594335E+03  0.7546771E-02  0.1195691E+00
          1   -1    0    0  502    0 -0.00000000000E+00  0.00000000000E+00  0.61239515304E+03  0.61239515304E+03  0.00000000000E+00 0. -1.
         21   -1    0    0  501  502  0.00000000000E+00 -0.00000000000E+00 -0.10417670800E+03  0.10417670800E+03  0.00000000000E+00 0.  1.
         23    2    1    2    0    0 -0.10532361865E+03  0.38103009761E+02  0.35829430125E+03  0.38503159347E+03  0.85613186267E+02 0.  0.
         23    2    1    2    0    0  0.50189418730E+02 -0.11577753976E+03  0.23452578648E+02  0.17321096074E+03  0.11631249722E+03 0.  0.
        -11    1    3    3    0    0 -0.24240402831E+02 -0.23933503181E+02  0.51944527328E+02  0.62117981481E+02  0.00000000000E+00 0.  1.
         11    1    3    3    0    0 -0.81083215824E+02  0.62036512942E+02  0.30634977392E+03  0.32291361199E+03  0.00000000000E+00 0. -1.
        -11    1    4    4    0    0  0.14625758633E+02 -0.16458625266E+02 -0.43155982080E+02  0.48448301833E+02  0.00000000000E+00 0.  1.
         11    1    4    4    0    0  0.35563660098E+02 -0.99318914495E+02  0.66608560728E+02  0.12476265891E+03  0.00000000000E+00 0. -1.
          1    1    1    2  501    0  0.55134199924E+02  0.77674530000E+02  0.12647156514E+03  0.15832930683E+03  0.00000000000E+00 0. -1.
<scales pt_clust_5="13000.00000" pt_clust_6="13000.00000" pt_clust_7="13000.00000" pt_clust_8="13000.00000" pt_clust_9="95.25294"></scales>
<clustering>
<clus scale="   85.613">  5  6 -1 -1</clus>
<clus scale="   95.253">  2  9  1 -1</clus>
<clus scale="  116.312">  7  8 -1 -1</clus>
<clus scale="  138.636">  1  5  2 -1</clus>
<clus scale="   95.253">  2  5  1 -1</clus>
</clustering>
</event>
<event>
 9    1  0.1426358E-005  0.1381453E+03  0.7546771E-02  0.1232418E+00
         -2   -1    0    0    0  501 -0.00000000000E+00  0.00000000000E+00  0.27705585327E+03  0.27705585327E+03  0.00000000000E+00 0.  1.
         21   -1    0    0  501  502  0.00000000000E+00 -0.00000000000E+00 -0.12722264565E+03  0.12722264565E+03  0.00000000000E+00 0.  1.
         23    2    1    2    0    0 -0.81521909518E+01 -0.12723324598E+02  0.12516727278E+03  0.15883369066E+03  0.96607214569E+02 0.  0.
         23    2    1    2    0    0 -0.47355851595E+01 -0.97534714184E+02  0.82259950650E+01  0.13322537363E+03  0.90254567460E+02 0.  0.
        -11    1    4    4    0    0  0.37694900617E+02 -0.77194970877E+02  0.45057071167E+01  0.86024824660E+02  0.00000000000E+00 0.  1.
         11    1    4    4    0    0 -0.42430485777E+02 -0.20339743307E+02  0.37202879483E+01  0.47200548974E+02  0.00000000000E+00 0. -1.
        -13    1    3    3    0    0  0.87880693170E+01  0.36033140360E+02  0.87194257770E+02  0.94754714682E+02  0.00000000000E+00 0.  1.
         13    1    3    3    0    0 -0.16940260269E+02 -0.48756464958E+02  0.37973015010E+02  0.64078975976E+02  0.00000000000E+00 0. -1.
         -2    1    1    2    0  502  0.12887776111E+02  0.11025803878E+03  0.16439939775E+02  0.11221943463E+03  0.00000000000E+00 0.  1.
<scales pt_clust_5="13000.00000" pt_clust_6="13000.00000" pt_clust_7="13000.00000" pt_clust_8="13000.00000" pt_clust_9="104.58607"></scales>
<clustering>
<clus scale="   90.255">  5  6 -1 -1</clus>
<clus scale="   96.607">  7  8 -1 -1</clus>
<clus scale="   97.782">  1  7  2 -1</clus>
<clus scale="  104.586">  2  9  1 -1</clus>
<clus scale="  104.586">  2  5  1 -1</clus>
</clustering>
</event>
<event>
 9    1  0.1426358E-005  0.1211433E+03  0.7546771E-02  0.1244503E+00
         21   -1    0    0  501  502  0.00000000000E+00  0.00000000000E+00  0.15955180309E+03  0.15955180309E+03  0.00000000000E+00 0. -1.
          1   -1    0    0  502    0 -0.00000000000E+00 -0.00000000000E+00 -0.18727445219E+03  0.18727445219E+03  0.00000000000E+00 0. -1.
         23    2    1    2    0    0 -0.35082619008E+02 -0.62418092678E+02  0.16237525149E+01  0.10871905198E+03  0.81794787366E+02 0.  0.
         23    2    1    2    0    0  0.66657238809E+02  0.65422333851E+02  0.59225992545E+02  0.14402717840E+03  0.92265056616E+02 0.  0.
        -11    1    3    3    0    0  0.40681813395E+01 -0.28374024146E+02  0.36346592074E+02  0.46289416728E+02  0.00000000000E+00 0. -1.
         11    1    3    3    0    0 -0.39150800347E+02 -0.34044068532E+02 -0.34722839559E+02  0.62429635247E+02  0.00000000000E+00 0.  1.
        -13    1    4    4    0    0  0.89511487927E+02  0.59492616338E+02  0.51533281132E+02  0.11919461789E+03  0.00000000000E+00 0. -1.
         13    1    4    4    0    0 -0.22854249118E+02  0.59297175130E+01  0.76927114124E+01  0.24832560509E+02  0.00000000000E+00 0.  1.
          1    1    1    2  501    0 -0.31574619802E+02 -0.30042411733E+01 -0.88572394154E+02  0.94080024909E+02  0.00000000000E+00 0. -1.
<scales pt_clust_5="13000.00000" pt_clust_6="13000.00000" pt_clust_7="13000.00000" pt_clust_8="13000.00000" pt_clust_9="31.71724"></scales>
<clustering>
<clus scale="   31.717">  1  9  2 -1</clus>
<clus scale="   81.795">  5  6 -1 -1</clus>
<clus scale="   92.265">  7  8 -1 -1</clus>
<clus scale="  113.372">  2  5  1 -1</clus>
<clus scale="   31.717">  1  5  2 -1</clus>
</clustering>
</event>
<event>
 9    1  0.1426358E-005  0.1311761E+03  0.7546771E-02  0.1227309E+00
         21   -1    0    0  501  502  0.00000000000E+00  0.00000000000E+00  0.94151093030E+02  0.94151093030E+02  0.00000000000E+00 0.  1.
         -3   -1    0    0    0  501 -0.00000000000E+00 -0.00000000000E+00 -0.35494823666E+03  0.35494823666E+03  0.00000000000E+00 0.  1.
         23    2    1    2    0    0  0.26695147670E+02 -0.10700132523E+03 -0.23378253955E+03  0.27396919654E+03  0.90790585119E+02 0.  0.
         23    2    1    2    0    0 -0.11978080212E+02  0.68182797223E+02 -0.57651570385E+02  0.12353464986E+03  0.84526551487E+02 0.  0.
        -11    1    4    4    0    0  0.36557531716E+02  0.27954846098E+02 -0.20686021767E+02  0.50456298339E+02  0.00000000000E+00 0.  1.
         11    1    4    4    0    0 -0.48535611928E+02  0.40227951126E+02 -0.36965548618E+02  0.73078351525E+02  0.00000000000E+00 0. -1.
        -13    1    3    3    0    0  0.49444612612E+02 -0.75618079849E+02 -0.20970136450E+03  0.22833643159E+03  0.00000000000E+00 0.  1.
         13    1    3    3    0    0 -0.22749464942E+02 -0.31383245380E+02 -0.24081175046E+02  0.45632764954E+02  0.00000000000E+00 0. -1.
         -3    1    1    2    0  502 -0.14717067458E+02  0.38818528006E+02  0.30636966303E+02  0.51595483285E+02  0.00000000000E+00 0.  1.
<scales pt_clust_5="13000.00000" pt_clust_6="13000.00000" pt_clust_7="13000.00000" pt_clust_8="13000.00000" pt_clust_9="41.51470"></scales>
<clustering>
<clus scale="   41.515">  1  9  2 -1</clus>
<clus scale="   84.527">  5  6 -1 -1</clus>
<clus scale="   90.791">  7  8 -1 -1</clus>
<clus scale="  126.921">  1  5  2 -1</clus>
<clus scale="   41.515">  1  5  2 -1</clus>
</clustering>
</event>
<event>
 9    1  0.1426358E-005  0.9275675E+02  0.7546771E-02  0.1297530E+00
         21   -1    0    0  501  502  0.00000000000E+00  0.00000000000E+00  0.14075872087E+03  0.14075872087E+03  0.00000000000E+00 0.  1.
         -3   -1    0    0    0  501 -0.00000000000E+00 -0.00000000000E+00 -0.10075240853E+03  0.10075240853E+03  0.00000000000E+00 0.  1.
         23    2    1    2    0    0  0.25418288906E+02  0.85281010329E+01 -0.50046299420E+01  0.95516993642E+02  0.91540329010E+02 0.  0.
         23    2    1    2    0    0  0.61951986046E+01 -0.14383173973E+02  0.14751967495E+00  0.90799741478E+02  0.89438890372E+02 0.  0.
        -11    1    4    4    0    0  0.45142525891E+02 -0.21046627151E+02 -0.80253640262E+01  0.50450120178E+02  0.00000000000E+00 0.  1.
         11    1    4    4    0    0 -0.38947327286E+02  0.66634531785E+01  0.81728837012E+01  0.40349621299E+02  0.00000000000E+00 0. -1.
        -13    1    3    3    0    0  0.16648115302E+02 -0.33572858396E+02 -0.27972920545E+02  0.46763028642E+02  0.00000000000E+00 0.  1.
         13    1    3    3    0    0  0.87701736046E+01  0.42100959429E+02  0.22968290603E+02  0.48753964999E+02  0.00000000000E+00 0. -1.
         -3    1    1    2    0  502 -0.31613487511E+02  0.58550729399E+01  0.44863422606E+02  0.55194394278E+02  0.00000000000E+00 0.  1.
<scales pt_clust_5="13000.00000" pt_clust_6="13000.00000" pt_clust_7="13000.00000" pt_clust_8="13000.00000" pt_clust_9="32.15112"></scales>
<clustering>
<clus scale="   32.151">  1  9  2 -1</clus>
<clus scale="   89.439">  5  6 -1 -1</clus>
<clus scale="   90.684">  1  5  2 -1</clus>
<clus scale="   91.540">  7  8 -1 -1</clus>
<clus scale="   32.151">  1  5  2 -1</clus>
</clustering>
</event>
<event>
 9    1  0.1426358E-005  0.1591062E+03  0.7546771E-02  0.1189749E+00
         21   -1    0    0  501  502  0.00000000000E+00  0.00000000000E+00  0.21098901335E+03  0.21098901335E+03  0.00000000000E+00 0. -1.
          1   -1    0    0  502    0 -0.00000000000E+00 -0.00000000000E+00 -0.14855579961E+03  0.14855579961E+03  0.00000000000E+00 0. -1.
         23    2    1    2    0    0 -0.53202061259E+02  0.12682820936E+03  0.22690231894E+02  0.16679698193E+03  0.91599850136E+02 0.  0.
         23    2    1    2    0    0  0.21209875009E+02 -0.12158188690E+03  0.44102360404E+02  0.16003654763E+03  0.91840428813E+02 0.  0.
        -11    1    3    3    0    0 -0.11376070905E+02  0.50171306317E+02  0.53475859891E+02  0.74204060252E+02  0.00000000000E+00 0.  1.
         11    1    3    3    0    0 -0.41825990354E+02  0.76656903044E+02 -0.30785627997E+02  0.92592921676E+02  0.00000000000E+00 0. -1.
        -13    1    4    4    0    0  0.38554247221E+02 -0.90615912878E+01  0.64759590739E+01  0.40130791936E+02  0.00000000000E+00 0.  1.
         13    1    4    4    0    0 -0.17344372212E+02 -0.11252029561E+03  0.37626401330E+02  0.11990575569E+03  0.00000000000E+00 0. -1.
          1    1    1    2  501    0  0.31992186250E+02 -0.52463224645E+01 -0.43593785559E+01  0.32711283403E+02  0.00000000000E+00 0. -1.
<scales pt_clust_5="13000.00000" pt_clust_6="13000.00000" pt_clust_7="13000.00000" pt_clust_8="13000.00000" pt_clust_9="32.41951"></scales>
<clustering>
<clus scale="   32.420">  1  9  2 -1</clus>
<clus scale="   91.600">  5  6 -1 -1</clus>
<clus scale="   91.840">  7  8 -1 -1</clus>
<clus scale="  158.967">  2  5  1 -1</clus>
<clus scale="   32.420">  1  5  2 -1</clus>
</clustering>
</event>
<event>
 9    1  0.1426358E-005  0.1354319E+03  0.7546771E-02  0.1219856E+00
         21   -1    0    0  501  502  0.00000000000E+00  0.00000000000E+00  0.10806396767E+03  0.10806396767E+03  0.00000000000E+00 0.  1.
         -3   -1    0    0    0  501 -0.00000000000E+00 -0.00000000000E+00 -0.80687983469E+03  0.80687983469E+03  0.00000000000E+00 0.  1.
         23    2    1    2    0    0 -0.74629458005E+02  0.61218770136E+02 -0.68644736259E+03  0.69912233659E+03  0.90800694351E+02 0.  0.
         23    2    1    2    0    0  0.10706235285E+03 -0.69333809693E+02 -0.50525736961E+02  0.16508961257E+03  0.91827041323E+02 0.  0.
        -11    1    3    3    0    0 -0.77407199969E+02  0.81277925211E+02 -0.57600606050E+03  0.58683980563E+03  0.00000000000E+00 0.  1.
         11    1    3    3    0    0  0.27777419645E+01 -0.20059155075E+02 -0.11044130209E+03  0.11228253097E+03  0.00000000000E+00 0. -1.
        -13    1    4    4    0    0  0.35860727944E+02 -0.68142350144E+02  0.13039727811E+01  0.77013453609E+02  0.00000000000E+00 0. -1.
         13    1    4    4    0    0  0.71201624905E+02 -0.11914595489E+01 -0.51829709742E+02  0.88076158958E+02  0.00000000000E+00 0.  1.
         -3    1    1    2    0  502 -0.32432894845E+02  0.81150395566E+01  0.38157232525E+02  0.50731853199E+02  0.00000000000E+00 0.  1.
<scales pt_clust_5="13000.00000" pt_clust_6="13000.00000" pt_clust_7="13000.00000" pt_clust_8="13000.00000" pt_clust_9="33.43272"></scales>
<clustering>
<clus scale="   33.433">  1  9  2 -1</clus>
<clus scale="   90.801">  5  6 -1 -1</clus>
<clus scale="   91.827">  7  8 -1 -1</clus>
<clus scale="  134.738">  2  5  1 -1</clus>
<clus scale="   33.433">  1  5  2 -1</clus>
</clustering>
</event>
<event>
 9    1  0.1426358E-005  0.9812744E+02  0.7546771E-02  0.1284509E+00
         -2   -1    0    0    0  501 -0.00000000000E+00  0.00000000000E+00  0.36523047064E+03  0.36523047064E+03  0.00000000000E+00 0.  1.
         21   -1    0    0  501  502  0.00000000000E+00 -0.00000000000E+00 -0.48957264555E+02  0.48957264555E+02  0.00000000000E+00 0.  1.
         23    2    1    2    0    0 -0.39779656477E+02 -0.15336169828E+02  0.20792704428E+03  0.23138896479E+03  0.92138906609E+02 0.  0.
         23    2    1    2    0    0  0.24019820362E+02 -0.20092399120E+02  0.10649644445E+03  0.14397896378E+03  0.91694018668E+02 0.  0.
        -13    1    3    3    0    0 -0.34605802449E+02  0.35774295288E+02  0.11232675433E+03  0.12286033333E+03  0.00000000000E+00 0.  1.
         13    1    3    3    0    0 -0.51738540281E+01 -0.51110465116E+02  0.95600289944E+02  0.10852863146E+03  0.00000000000E+00 0. -1.
        -13    1    4    4    0    0  0.14831595793E+02  0.35032973511E+02  0.61112986574E+02  0.71986683455E+02  0.00000000000E+00 0. -1.
         13    1    4    4    0    0  0.91882245696E+01 -0.55125372630E+02  0.45383457871E+02  0.71992280327E+02  0.00000000000E+00 0.  1.
         -2    1    1    2    0  502  0.15759836115E+02  0.35428568948E+02  0.18497173649E+01  0.38819806625E+02  0.00000000000E+00 0.  1.
<scales pt_clust_5="13000.00000" pt_clust_6="13000.00000" pt_clust_7="13000.00000" pt_clust_8="13000.00000" pt_clust_9="38.77571"></scales>
<clustering>
<clus scale="   38.776">  2  9  1 -1</clus>
<clus scale="   91.694">  7  8 -1 -1</clus>
<clus scale="   92.139">  5  6 -1 -1</clus>
<clus scale="   97.710">  2  7  1 -1</clus>
<clus scale="   38.776">  2  5  1 -1</clus>
</clustering>
</event>
<event>
 9    1  0.1426358E-005  0.1217735E+03  0.7546771E-02  0.1248736E+00
         21   -1    0    0  501  502  0.00000000000E+00  0.00000000000E+00  0.30101135889E+03  0.30101135889E+03  0.00000000000E+00 0. -1.
          2   -1    0    0  502    0 -0.00000000000E+00 -0.00000000000E+00 -0.92082314667E+02  0.92082314667E+02  0.00000000000E+00 0. -1.
         23    2    1    2    0    0  0.29161842425E+02  0.36311394678E+02  0.98147360530E+02  0.14192784670E+03  0.91332791766E+02 0.  0.
         23    2    1    2    0    0  0.56976997937E+01  0.67603146426E+02  0.81042711844E+02  0.13759723092E+03  0.88104640199E+02 0.  0.
        -11    1    4    4    0    0  0.46415089840E+02  0.44612028495E+02  0.49166640887E+02  0.81005877734E+02  0.00000000000E+00 0. -1.
         11    1    4    4    0    0 -0.40717390047E+02  0.22991117931E+02  0.31876070957E+02  0.56591353187E+02  0.00000000000E+00 0.  1.
        -13    1    3    3    0    0  0.12068135473E+02  0.61236249650E+02  0.91860040546E+02  0.11105757612E+03  0.00000000000E+00 0. -1.
         13    1    3    3    0    0  0.17093706952E+02 -0.24924854972E+02  0.62873199842E+01  0.30870270574E+02  0.00000000000E+00 0.  1.
          2    1    1    2  501    0 -0.34859542218E+02 -0.10391454110E+03  0.29738971847E+02  0.11356859594E+03  0.00000000000E+00 0. -1.
<scales pt_clust_5="13000.00000" pt_clust_6="13000.00000" pt_clust_7="13000.00000" pt_clust_8="13000.00000" pt_clust_9="84.06165"></scales>
<clustering>
<clus scale="   88.105">  5  6 -1 -1</clus>
<clus scale="   91.333">  7  8 -1 -1</clus>
<clus scale="  102.521">  2  7  1 -1</clus>
<clus scale="   84.062">  1  9  2 -1</clus>
<clus scale="   84.062">  1  5  2 -1</clus>
</clustering>
</event>
<event>
 9    1  0.1426358E-005  0.1497103E+03  0.7546771E-02  0.1200887E+00
         21   -1    0    0  501  502  0.00000000000E+00  0.00000000000E+00  0.11541698097E+03  0.11541698097E+03  0.00000000000E+00 0.  1.
          1   -1    0    0  502    0 -0.00000000000E+00 -0.00000000000E+00 -0.40186230612E+03  0.40186230612E+03  0.00000000000E+00 0. -1.
         23    2    1    2    0    0  0.10049501067E+03 -0.60721276617E+02 -0.28613338782E+03  0.32226863336E+03  0.90545214213E+02 0.  0.
         23    2    1    2    0    0 -0.12483695173E+03  0.39435498164E+02  0.14062130864E+02  0.15962381585E+03  0.90236334309E+02 0.  0.
        -13    1    3    3    0    0  0.15451710319E+02 -0.61031271173E+02 -0.11215083320E+03  0.12861329946E+03  0.00000000000E+00 0. -1.
         13    1    3    3    0    0  0.85043300354E+02  0.30999455585E+00 -0.17398255462E+03  0.19365533389E+03  0.00000000000E+00 0.  1.
        -13    1    4    4    0    0 -0.44445230412E+01  0.22200031474E+02 -0.23207069575E+02  0.32421648027E+02  0.00000000000E+00 0. -1.
         13    1    4    4    0    0 -0.12039242869E+03  0.17235466690E+02  0.37269200439E+02  0.12720216783E+03  0.00000000000E+00 0.  1.
          1    1    1    2  501    0  0.24341941060E+02  0.21285778453E+02 -0.14374068192E+02  0.35386837882E+02  0.00000000000E+00 0. -1.
<scales pt_clust_5="13000.00000" pt_clust_6="13000.00000" pt_clust_7="13000.00000" pt_clust_8="13000.00000" pt_clust_9="32.33596"></scales>
<clustering>
<clus scale="   32.336">  1  9  2 -1</clus>
<clus scale="   90.236">  7  8 -1 -1</clus>
<clus scale="   90.545">  5  6 -1 -1</clus>
<clus scale="  149.524">  1  7  2 -1</clus>
<clus scale="   32.336">  1  5  2 -1</clus>
</clustering>
</event>
<event>
 9    1  0.1426358E-005  0.1115683E+03  0.7546771E-02  0.1259920E+00
          3   -1    0    0  502    0 -0.00000000000E+00  0.00000000000E+00  0.14646609843E+03  0.14646609843E+03  0.00000000000E+00 0. -1.
         21   -1    0    0  501  502  0.00000000000E+00 -0.00000000000E+00 -0.14768463336E+03  0.14768463336E+03  0.00000000000E+00 0.  1.
         23    2    1    2    0    0 -0.50800711809E+01 -0.60956904172E+02  0.80649399842E+02  0.14012098627E+03  0.96891763368E+02 0.  0.
         23    2    1    2    0    0  0.48165597863E+01  0.40424674353E+02 -0.40583831318E+02  0.10792097089E+03  0.91337478877E+02 0.  0.
        -11    1    4    4    0    0  0.41079269233E+02  0.22571050346E+02  0.48359513183E+01  0.47120537981E+02  0.00000000000E+00 0.  1.
         11    1    4    4    0    0 -0.36262709447E+02  0.17853624007E+02 -0.45419782636E+02  0.60800432904E+02  0.00000000000E+00 0. -1.
        -11    1    3    3    0    0  0.19747302229E+02 -0.24433381616E+02 -0.14966640715E+02  0.34798655388E+02  0.00000000000E+00 0.  1.
         11    1    3    3    0    0 -0.24827373410E+02 -0.36523522556E+02  0.95616040557E+02  0.10532233088E+03  0.00000000000E+00 0. -1.
          3    1    1    2  501    0  0.26351139460E+00  0.20532229819E+02 -0.41284103454E+02  0.46108774627E+02  0.00000000000E+00 0. -1.
<scales pt_clust_5="13000.00000" pt_clust_6="13000.00000" pt_clust_7="13000.00000" pt_clust_8="13000.00000" pt_clust_9="20.53392"></scales>
<clustering>
<clus scale="   20.534">  2  9  1 -1</clus>
<clus scale="   91.337">  5  6 -1 -1</clus>
<clus scale="   96.892">  7  8 -1 -1</clus>
<clus scale="  106.780">  2  5  1 -1</clus>
<clus scale="   20.534">  2  5  1 -1</clus>
</clustering>
</event>
<event>
 9    1  0.1426358E-005  0.9752258E+02  0.7546771E-02  0.1293267E+00
          3   -1    0    0  502    0 -0.00000000000E+00  0.00000000000E+00  0.42691573474E+03  0.42691573474E+03  0.00000000000E+00 0. -1.
         21   -1    0    0  501  502  0.00000000000E+00 -0.00000000000E+00 -0.32277041067E+02  0.32277041067E+02  0.00000000000E+00 0.  1.
         23    2    1    2    0    0 -0.20380291473E+01 -0.46544681088E+02  0.20430819064E+03  0.22877815542E+03  0.91798947362E+02 0.  0.
         23    2    1    2    0    0 -0.19405478462E+02  0.12815985852E+02  0.83978648353E+02  0.11680051080E+03  0.77776113669E+02 0.  0.
        -11    1    3    3    0    0 -0.21194723130E+02 -0.65276625685E+02  0.17985168379E+03  0.19250164236E+03  0.00000000000E+00 0.  1.
         11    1    3    3    0    0  0.19156693983E+02  0.18731944597E+02  0.24456506846E+02  0.36276513061E+02  0.00000000000E+00 0. -1.
        -13    1    4    4    0    0  0.17587691993E+02 -0.22262323404E+02  0.42390478520E+02  0.51008730842E+02  0.00000000000E+00 0.  1.
         13    1    4    4    0    0 -0.36993170455E+02  0.35078309256E+02  0.41588169833E+02  0.65791779962E+02  0.00000000000E+00 0. -1.
          3    1    1    2  501    0  0.21443507610E+02  0.33728695236E+02  0.10635185468E+03  0.11361410958E+03  0.00000000000E+00 0. -1.
<scales pt_clust_5="13000.00000" pt_clust_6="13000.00000" pt_clust_7="13000.00000" pt_clust_8="13000.00000" pt_clust_9="39.96812"></scales>
<clustering>
<clus scale="   39.968">  2  9  1 -1</clus>
<clus scale="   77.776">  7  8 -1 -1</clus>
<clus scale="   84.455">  2  7  1 -1</clus>
<clus scale="   91.799">  5  6 -1 -1</clus>
<clus scale="   39.968">  2  5  1 -1</clus>
</clustering>
</event>
<event>
 9    1  0.1426358E-005  0.1483682E+03  0.7546771E-02  0.1203142E+00
         -3   -1    0    0    0  501 -0.00000000000E+00  0.00000000000E+00  0.81715288647E+02  0.81715288647E+02  0.00000000000E+00 0.  1.
         21   -1    0    0  501  502  0.00000000000E+00 -0.00000000000E+00 -0.86584001541E+03  0.86584001541E+03  0.00000000000E+00 0.  1.
         23    2    1    2    0    0  0.99260542100E+02 -0.48328216253E+02 -0.20266405107E+02  0.14430654023E+03  0.90693873398E+02 0.  0.
         23    2    1    2    0    0 -0.99013403490E+02  0.11133663333E+03 -0.45258035576E+03  0.48565768437E+03  0.93994191188E+02 0.  0.
        -11    1    4    4    0    0 -0.11011810503E+03  0.63760861384E+02 -0.33288596082E+03  0.35637691762E+03  0.00000000000E+00 0.  1.
         11    1    4    4    0    0  0.11104701538E+02  0.47575771943E+02 -0.11969439494E+03  0.12928076675E+03  0.00000000000E+00 0. -1.
        -11    1    3    3    0    0  0.59060001371E+02 -0.27349028044E+02  0.34128158272E+02  0.73490028466E+02  0.00000000000E+00 0.  1.
         11    1    3    3    0    0  0.40200540729E+02 -0.20979188209E+02 -0.54394563379E+02  0.70816511761E+02  0.00000000000E+00 0. -1.
         -3    1    1    2    0  502 -0.24713861005E+00 -0.63008417074E+02 -0.31127796589E+03  0.31759107945E+03  0.00000000000E+00 0.  1.
<scales pt_clust_5="13000.00000" pt_clust_6="13000.00000" pt_clust_7="13000.00000" pt_clust_8="13000.00000" pt_clust_9="63.00890"></scales>
<clustering>
<clus scale="   63.009">  2  9  1 -1</clus>
<clus scale="   90.694">  7  8 -1 -1</clus>
<clus scale="   93.994">  5  6 -1 -1</clus>
<clus scale="  146.300">  1  7  2 -1</clus>
<clus scale="   63.009">  2  5  1 -1</clus>
</clustering>
</event>
<event>
 9    1  0.1426358E-005  0.1456886E+03  0.7546771E-02  0.1206037E+00
          1   -1    0    0  502    0 -0.00000000000E+00  0.00000000000E+00  0.11115103985E+03  0.11115103985E+03  0.00000000000E+00 0. -1.
         21   -1    0    0  501  502  0.00000000000E+00 -0.00000000000E+00 -0.59674714002E+03  0.59674714002E+03  0.00000000000E+00 0.  1.
         23    2    1    2    0    0  0.10161956694E+03  0.54369656606E+02  0.39874761090E+02  0.15217966679E+03  0.91027789525E+02 0.  0.
         23    2    1    2    0    0 -0.10318699700E+03 -0.19942602318E+02 -0.47365152392E+03  0.49348570319E+03  0.90205927793E+02 0.  0.
        -13    1    3    3    0    0  0.76933060512E+02  0.38142015590E+02 -0.17510598785E+02  0.87636352177E+02  0.00000000000E+00 0.  1.
         13    1    3    3    0    0  0.24686506432E+02  0.16227641015E+02  0.57385359875E+02  0.64543314609E+02  0.00000000000E+00 0. -1.
        -13    1    4    4    0    0 -0.14317747773E+02 -0.28737271126E+02 -0.42953547626E+02  0.53626820777E+02  0.00000000000E+00 0. -1.
         13    1    4    4    0    0 -0.88869249227E+02  0.87946688079E+01 -0.43069797629E+03  0.43985888242E+03  0.00000000000E+00 0.  1.
          1    1    1    2  501    0  0.15674300560E+01 -0.34427054287E+02 -0.51819337349E+02  0.62232809893E+02  0.00000000000E+00 0. -1.
<scales pt_clust_5="13000.00000" pt_clust_6="13000.00000" pt_clust_7="13000.00000" pt_clust_8="13000.00000" pt_clust_9="34.46272"></scales>
<clustering>
<clus scale="   34.463">  2  9  1 -1</clus>
<clus scale="   90.206">  7  8 -1 -1</clus>
<clus scale="   91.028">  5  6 -1 -1</clus>
<clus scale="  145.177">  2  7  1 -1</clus>
<clus scale="   34.463">  2  5  1 -1</clus>
</clustering>
</event>
<event>
 9    1  0.1426358E-005  0.9559183E+02  0.7546771E-02  0.1290328E+00
         21   -1    0    0  501  502  0.00000000000E+00  0.00000000000E+00  0.15248892084E+03  0.15248892084E+03  0.00000000000E+00 0. -1.
          2   -1    0    0  502    0 -0.00000000000E+00 -0.00000000000E+00 -0.49993135315E+03  0.49993135315E+03  0.00000000000E+00 0. -1.
         23    2    1    2    0    0 -0.54073811363E+01  0.29442007289E+02 -0.45107902578E+03  0.46130714729E+03  0.91847292177E+02 0.  0.
         23    2    1    2    0    0 -0.96377079627E+01  0.79991491414E+01  0.14084871180E+02  0.92890390707E+02  0.90958063347E+02 0.  0.
        -13    1    3    3    0    0  0.43044535246E+02  0.14481758595E+02 -0.19035969998E+03  0.19570224507E+03  0.00000000000E+00 0.  1.
         13    1    3    3    0    0 -0.48451916383E+02  0.14960248694E+02 -0.26071932580E+03  0.26560490222E+03  0.00000000000E+00 0. -1.
        -13    1    4    4    0    0 -0.10996189443E+02  0.45321974041E+02 -0.10979587975E+02  0.47911886473E+02  0.00000000000E+00 0. -1.
         13    1    4    4    0    0  0.13584814798E+01 -0.37322824900E+02  0.25064459155E+02  0.44978504234E+02  0.00000000000E+00 0.  1.
          2    1    1    2  501    0  0.15045089099E+02 -0.37441156431E+02  0.89551722286E+02  0.98222735990E+02  0.00000000000E+00 0. -1.
<scales pt_clust_5="13000.00000" pt_clust_6="13000.00000" pt_clust_7="13000.00000" pt_clust_8="13000.00000" pt_clust_9="40.35090"></scales>
<clustering>
<clus scale="   40.351">  1  9  2 -1</clus>
<clus scale="   90.958">  7  8 -1 -1</clus>
<clus scale="   91.847">  5  6 -1 -1</clus>
<clus scale="   94.738">  1  7  2 -1</clus>
<clus scale="   40.351">  1  5  2 -1</clus>
</clustering>
</event>
<event>
 9    1  0.1426358E-005  0.1168178E+03  0.7546771E-02  0.1250671E+00
         21   -1    0    0  501  502  0.00000000000E+00  0.00000000000E+00  0.12910558739E+03  0.12910558739E+03  0.00000000000E+00 0. -1.
         -3   -1    0    0    0  501 -0.00000000000E+00 -0.00000000000E+00 -0.22588840670E+03  0.22588840670E+03  0.00000000000E+00 0.  1.
         23    2    1    2    0    0 -0.40476025431E+02  0.52054719161E+02 -0.14553455838E+03  0.18149595893E+03  0.86095720005E+02 0.  0.
         23    2    1    2    0    0  0.61993286359E+02 -0.75541469909E+02  0.40482888625E+02  0.14058916301E+03  0.92610837677E+02 0.  0.
        -11    1    4    4    0    0  0.50282641901E+02 -0.35489585363E+02 -0.22080273228E+02  0.65386491048E+02  0.00000000000E+00 0.  1.
         11    1    4    4    0    0  0.11710644457E+02 -0.40051884546E+02  0.62563161853E+02  0.75202671963E+02  0.00000000000E+00 0. -1.
        -13    1    3    3    0    0 -0.39359304222E+02  0.29147882339E+02 -0.15029432138E+03  0.15807320112E+03  0.00000000000E+00 0.  1.
         13    1    3    3    0    0 -0.11167212087E+01  0.22906836822E+02  0.47597630016E+01  0.23422757807E+02  0.00000000000E+00 0. -1.
         -3    1    1    2    0  502 -0.21517260928E+02  0.23486750748E+02  0.82688504481E+01  0.32908872151E+02  0.00000000000E+00 0.  1.
<scales pt_clust_5="13000.00000" pt_clust_6="13000.00000" pt_clust_7="13000.00000" pt_clust_8="13000.00000" pt_clust_9="31.85310"></scales>
<clustering>
<clus scale="   31.853">  1  9  2 -1</clus>
<clus scale="   86.096">  7  8 -1 -1</clus>
<clus scale="   92.611">  5  6 -1 -1</clus>
<clus scale="  111.723">  2  7  1 -1</clus>
<clus scale="   31.853">  1  5  2 -1</clus>
</clustering>
</event>
<event>
 9    1  0.1426358E-005  0.2254699E+03  0.7546771E-02  0.1160091E+00
         -1   -1    0    0    0  501 -0.00000000000E+00  0.00000000000E+00  0.40345378887E+03  0.40345378887E+03  0.00000000000E+00 0.  1.
         21   -1    0    0  501  502  0.00000000000E+00 -0.00000000000E+00 -0.21224028041E+03  0.21224028041E+03  0.00000000000E+00 0. -1.
         23    2    1    2    0    0 -0.52111517037E+02 -0.55269411012E+01  0.11881824895E+03  0.16155154355E+03  0.96098739081E+02 0.  0.
         23    2    1    2    0    0 -0.13765764750E+03 -0.12973986650E+03 -0.26826548037E+00  0.21003305662E+03  0.91278431348E+02 0.  0.
        -11    1    3    3    0    0  0.41258436052E+00  0.36504423095E+02  0.68226047781E+02  0.77379175023E+02  0.00000000000E+00 0.  1.
         11    1    3    3    0    0 -0.52524101397E+02 -0.42031364197E+02  0.50592201172E+02  0.84172368526E+02  0.00000000000E+00 0. -1.
        -13    1    4    4    0    0 -0.69710989635E+02 -0.10146316461E+03  0.35620537263E+02  0.12815310579E+03  0.00000000000E+00 0. -1.
         13    1    4    4    0    0 -0.67946657868E+02 -0.28276701894E+02 -0.35888802744E+02  0.81879950829E+02  0.00000000000E+00 0.  1.
         -1    1    1    2    0  502  0.18976916454E+03  0.13526680760E+03  0.72663524983E+02  0.24410946912E+03  0.00000000000E+00 0.  1.
<scales pt_clust_5="13000.00000" pt_clust_6="13000.00000" pt_clust_7="13000.00000" pt_clust_8="13000.00000" pt_clust_9="206.16729"></scales>
<clustering>
<clus scale="   91.278">  7  8 -1 -1</clus>
<clus scale="   96.099">  5  6 -1 -1</clus>
<clus scale="  109.458">  1  5  2 -1</clus>
<clus scale="  206.167">  2  9  1 -1</clus>
<clus scale="  206.167">  2  5  1 -1</clus>
</clustering>
</event>
<event>
 9    1  0.1426358E-005  0.1610350E+03  0.7546771E-02  0.1188164E+00
          4   -1    0    0  502    0 -0.00000000000E+00  0.00000000000E+00  0.15817614197E+03  0.15817614197E+03  0.00000000000E+00 0. -1.
         21   -1    0    0  501  502  0.00000000000E+00 -0.00000000000E+00 -0.25911754568E+03  0.25911754568E+03  0.00000000000E+00 0.  1.
         23    2    1    2    0    0 -0.10194837180E+03  0.48213431792E+02 -0.14210141592E+02  0.14581834788E+03  0.91340335754E+02 0.  0.
         23    2    1    2    0    0  0.15633925391E+03 -0.16700426021E+02 -0.28880485969E+02  0.18604612996E+03  0.95174647140E+02 0.  0.
        -13    1    3    3    0    0 -0.40820387155E+02 -0.19677617325E+02 -0.28235553677E+02  0.53392500621E+02  0.00000000000E+00 0.  1.
         13    1    3    3    0    0 -0.61127984647E+02  0.67891049116E+02  0.14025412085E+02  0.92425847258E+02  0.00000000000E+00 0. -1.
        -13    1    4    4    0    0  0.14293880232E+03 -0.37038119169E+02 -0.47802086229E+02  0.15520426195E+03  0.00000000000E+00 0.  1.
         13    1    4    4    0    0  0.13400451592E+02  0.20337693148E+02  0.18921600260E+02  0.30841868002E+02  0.00000000000E+00 0. -1.
          4    1    1    2  501    0 -0.54390882110E+02 -0.31513005771E+02 -0.57850776151E+02  0.85429209821E+02  0.00000000000E+00 0. -1.
<scales pt_clust_5="13000.00000" pt_clust_6="13000.00000" pt_clust_7="13000.00000" pt_clust_8="13000.00000" pt_clust_9="62.86046"></scales>
<clustering>
<clus scale="   62.860">  2  9  1 -1</clus>
<clus scale="   91.340">  5  6 -1 -1</clus>
<clus scale="   95.175">  7  8 -1 -1</clus>
<clus scale="  158.799">  1  5  2 -1</clus>
<clus scale="   62.860">  2  5  1 -1</clus>
</clustering>
</event>
<event>
 9    1  0.1426358E-005  0.1104778E+03  0.7546771E-02  0.1260053E+00
         -1   -1    0    0    0  501 -0.00000000000E+00  0.00000000000E+00  0.26506183911E+03  0.26506183911E+03  0.00000000000E+00 0.  1.
         21   -1    0    0  501  502  0.00000000000E+00 -0.00000000000E+00 -0.82665419878E+02  0.82665419878E+02  0.00000000000E+00 0.  1.
         23    2    1    2    0    0  0.32730436116E+02 -0.62298476631E+02  0.17924826605E+03  0.21275675344E+03  0.90460563842E+02 0.  0.
         23    2    1    2    0    0 -0.16700124189E+02  0.37764358390E+02  0.18319677245E+02  0.10196946009E+03  0.91417281217E+02 0.  0.
        -11    1    4    4    0    0 -0.14467612376E+02 -0.18467340406E+02 -0.22455067877E+02  0.32474367475E+02  0.00000000000E+00 0.  1.
         11    1    4    4    0    0 -0.22325118130E+01  0.56231698795E+02  0.40774745122E+02  0.69495092620E+02  0.00000000000E+00 0. -1.
        -13    1    3    3    0    0  0.52935072262E+02 -0.24903748270E+02  0.15042841256E+03  0.16140330188E+03  0.00000000000E+00 0. -1.
         13    1    3    3    0    0 -0.20204636146E+02 -0.37394728362E+02  0.28819853493E+02  0.51353451553E+02  0.00000000000E+00 0.  1.
         -1    1    1    2    0  502 -0.16030311927E+02  0.24534118242E+02 -0.15171524071E+02  0.33001045453E+02  0.00000000000E+00 0.  1.
<scales pt_clust_5="13000.00000" pt_clust_6="13000.00000" pt_clust_7="13000.00000" pt_clust_8="13000.00000" pt_clust_9="29.30689"></scales>
<clustering>
<clus scale="   29.307">  2  9  1 -1</clus>
<clus scale="   90.461">  7  8 -1 -1</clus>
<clus scale="   91.417">  5  6 -1 -1</clus>
<clus scale="  109.687">  1  7  2 -1</clus>
<clus scale="   29.307">  2  5  1 -1</clus>
</clustering>
</event>
<event>
 9    1  0.1426358E-005  0.1584109E+03  0.7546771E-02  0.1191506E+00
         21   -1    0    0  501  502  0.00000000000E+00  0.00000000000E+00  0.33230951421E+03  0.33230951421E+03  0.00000000000E+00 0.  1.
         -1   -1    0    0    0  501 -0.00000000000E+00 -0.00000000000E+00 -0.11449685347E+03  0.11449685347E+03  0.00000000000E+00 0.  1.
         23    2    1    2    0    0  0.86054211475E+01 -0.13336544697E+03  0.13291264420E+02  0.16273302928E+03  0.91896601625E+02 0.  0.
         23    2    1    2    0    0 -0.26752242914E+01  0.11047726500E+03  0.10308594454E+03  0.17991870823E+03  0.97630152630E+02 0.  0.
        -13    1    3    3    0    0  0.16969588589E+02 -0.57958828382E+02 -0.37817011438E+02  0.71255309124E+02  0.00000000000E+00 0.  1.
         13    1    3    3    0    0 -0.83641674413E+01 -0.75406618585E+02  0.51108275857E+02  0.91477720153E+02  0.00000000000E+00 0. -1.
        -13    1    4    4    0    0 -0.50147648475E+02  0.55458331516E+02  0.53794439506E+02  0.92110015220E+02  0.00000000000E+00 0.  1.
         13    1    4    4    0    0  0.47472424183E+02  0.55018933486E+02  0.49291505032E+02  0.87808693010E+02  0.00000000000E+00 0. -1.
         -1    1    1    2    0  502 -0.59301968561E+01  0.22888181965E+02  0.10143545178E+03  0.10415463017E+03  0.00000000000E+00 0.  1.
<scales pt_clust_5="13000.00000" pt_clust_6="13000.00000" pt_clust_7="13000.00000" pt_clust_8="13000.00000" pt_clust_9="23.64394"></scales>
<clustering>
<clus scale="   23.644">  1  9  2 -1</clus>
<clus scale="   91.897">  5  6 -1 -1</clus>
<clus scale="   97.630">  7  8 -1 -1</clus>
<clus scale="  154.943">  2  5  1 -1</clus>
<clus scale="   23.644">  1  5  2 -1</clus>
</clustering>
</event>
<event>
 9    1  0.1426358E-005  0.1310863E+03  0.7546771E-02  0.1233922E+00
          1   -1    0    0  502    0 -0.00000000000E+00  0.00000000000E+00  0.59831342956E+03  0.59831342956E+03  0.00000000000E+00 0. -1.
         21   -1    0    0  501  502  0.00000000000E+00 -0.00000000000E+00 -0.34868614915E+02  0.34868614915E+02  0.00000000000E+00 0. -1.
         23    2    1    2    0    0  0.15294957077E+02  0.99549335706E+02  0.23264000255E+03  0.26063517384E+03  0.60541862410E+02 0.  0.
         23    2    1    2    0    0 -0.48397171940E+02 -0.73894452476E+02  0.22531178552E+03  0.25904485163E+03  0.92391331319E+02 0.  0.
        -13    1    3    3    0    0 -0.12423777395E+02  0.85365910212E+02  0.17584028294E+03  0.19586090467E+03  0.00000000000E+00 0. -1.
         13    1    3    3    0    0  0.27718734472E+02  0.14183425495E+02  0.56799719603E+02  0.64774269170E+02  0.00000000000E+00 0.  1.
        -13    1    4    4    0    0 -0.17357946762E+02 -0.76861518058E+02  0.21002174787E+03  0.22431702087E+03  0.00000000000E+00 0.  1.
         13    1    4    4    0    0 -0.31039225177E+02  0.29670655826E+01  0.15290037649E+02  0.34727830757E+02  0.00000000000E+00 0. -1.
          1    1    1    2  501    0  0.33102214863E+02 -0.25654883231E+02  0.10549302657E+03  0.11350201900E+03  0.00000000000E+00 0. -1.
<scales pt_clust_5="13000.00000" pt_clust_6="13000.00000" pt_clust_7="13000.00000" pt_clust_8="13000.00000" pt_clust_9="41.87996"></scales>
<clustering>
<clus scale="   41.880">  2  9  1 -1</clus>
<clus scale="   60.542">  5  6 -1 -1</clus>
<clus scale="   92.391">  7  8 -1 -1</clus>
<clus scale="  110.963">  1  5  2 -1</clus>
<clus scale="   41.880">  2  5  1 -1</clus>
</clustering>
</event>
<event>
 9    1  0.1426358E-005  0.9651796E+02  0.7546771E-02  0.1288037E+00
         21   -1    0    0  501  502  0.00000000000E+00  0.00000000000E+00  0.19732642735E+03  0.19732642735E+03  0.00000000000E+00 0. -1.
         -3   -1    0    0    0  501 -0.00000000000E+00 -0.00000000000E+00 -0.18497926802E+03  0.18497926802E+03  0.00000000000E+00 0.  1.
         23    2    1    2    0    0 -0.87767266910E+01  0.23698955520E+02 -0.99607148613E+02  0.13700965270E+03  0.90616717299E+02 0.  0.
         23    2    1    2    0    0  0.12892753130E+02 -0.44230376710E+02 -0.26347846751E+02  0.10541764218E+03  0.91083044239E+02 0.  0.
        -11    1    4    4    0    0 -0.12784585659E+02 -0.37682520107E+02 -0.54026564649E+02  0.67099088219E+02  0.00000000000E+00 0.  1.
         11    1    4    4    0    0  0.25677338790E+02 -0.65478566035E+01  0.27678717898E+02  0.38318553964E+02  0.00000000000E+00 0. -1.
        -13    1    3    3    0    0  0.27180155161E+02  0.41805303019E+02 -0.35130619171E+02  0.60996758918E+02  0.00000000000E+00 0.  1.
         13    1    3    3    0    0 -0.35956881852E+02 -0.18106347499E+02 -0.64476529442E+02  0.76012893783E+02  0.00000000000E+00 0. -1.
         -3    1    1    2    0  502 -0.41160264393E+01  0.20531421190E+02  0.13830215469E+03  0.13987840048E+03  0.00000000000E+00 0.  1.
<scales pt_clust_5="13000.00000" pt_clust_6="13000.00000" pt_clust_7="13000.00000" pt_clust_8="13000.00000" pt_clust_9="20.93994"></scales>
<clustering>
<clus scale="   20.940">  1  9  2 -1</clus>
<clus scale="   90.617">  7  8 -1 -1</clus>
<clus scale="   91.083">  5  6 -1 -1</clus>
<clus scale="   96.078">  2  7  1 -1</clus>
<clus scale="   20.940">  1  5  2 -1</clus>
</clustering>
</event>
<event>
 9    1  0.1426358E-005  0.1146212E+03  0.7546771E-02  0.1252612E+00
         21   -1    0    0  501  502  0.00000000000E+00  0.00000000000E+00  0.44456306795E+02  0.44456306795E+02  0.00000000000E+00 0.  1.
         -4   -1    0    0    0  501 -0.00000000000E+00 -0.00000000000E+00 -0.61075386044E+03  0.61075386044E+03  0.00000000000E+00 0.  1.
         23    2    1    2    0    0 -0.62277678789E+02 -0.31455535509E+02 -0.43249696821E+03  0.44767295232E+03  0.92138399897E+02 0.  0.
         23    2    1    2    0    0  0.37098157754E+02  0.58989576907E+02 -0.72226969256E+02  0.13554109055E+03  0.91096699425E+02 0.  0.
        -11    1    3    3    0    0 -0.45933163023E+02 -0.63765300310E+02 -0.31914579683E+03  0.32867903588E+03  0.00000000000E+00 0.  1.
         11    1    3    3    0    0 -0.16344515766E+02  0.32309764801E+02 -0.11335117138E+03  0.11899391644E+03  0.00000000000E+00 0. -1.
        -13    1    4    4    0    0  0.56341487295E+02  0.39288323572E+02 -0.12561431509E+02  0.69826392727E+02  0.00000000000E+00 0.  1.
         13    1    4    4    0    0 -0.19243329541E+02  0.19701253335E+02 -0.59665537747E+02  0.65714697819E+02  0.00000000000E+00 0. -1.
         -4    1    1    2    0  502  0.25179521035E+02 -0.27534041398E+02 -0.61573616175E+02  0.71996124369E+02  0.00000000000E+00 0.  1.
<scales pt_clust_5="13000.00000" pt_clust_6="13000.00000" pt_clust_7="13000.00000" pt_clust_8="13000.00000" pt_clust_9="37.31128"></scales>
<clustering>
<clus scale="   37.311">  1  9  2 -1</clus>
<clus scale="   91.097">  7  8 -1 -1</clus>
<clus scale="   92.138">  5  6 -1 -1</clus>
<clus scale="  113.786">  1  7  2 -1</clus>
<clus scale="   37.311">  1  5  2 -1</clus>
</clustering>
</event>
<event>
 9    1  0.1426358E-005  0.9631627E+02  0.7546771E-02  0.1289467E+00
         -1   -1    0    0    0  501 -0.00000000000E+00  0.00000000000E+00  0.22345029297E+03  0.22345029297E+03  0.00000000000E+00 0.  1.
         21   -1    0    0  501  502  0.00000000000E+00 -0.00000000000E+00 -0.67224577851E+02  0.67224577851E+02  0.00000000000E+00 0. -1.
         23    2    1    2    0    0  0.11973913944E+02 -0.66541094568E+01  0.93497423357E+02  0.13324008406E+03  0.93933487311E+02 0.  0.
         23    2    1    2    0    0  0.86711157369E+01  0.42670402059E+01  0.83758086681E+02  0.12786846091E+03  0.96132878511E+02 0.  0.
        -13    1    4    4    0    0 -0.10606708826E+02  0.28138319528E+02  0.91423521415E+02  0.96242025986E+02  0.00000000000E+00 0.  1.
         13    1    4    4    0    0  0.19277824563E+02 -0.23871279322E+02 -0.76654347338E+01  0.31626434924E+02  0.00000000000E+00 0. -1.
        -13    1    3    3    0    0  0.28866767215E+02  0.35768841840E+02  0.64305850975E+02  0.79043929341E+02  0.00000000000E+00 0. -1.
         13    1    3    3    0    0 -0.16892853270E+02 -0.42422951297E+02  0.29191572382E+02  0.54196154720E+02  0.00000000000E+00 0.  1.
         -1    1    1    2    0  502 -0.20645029681E+02  0.23870692509E+01 -0.21029794917E+02  0.29566325852E+02  0.00000000000E+00 0.  1.
<scales pt_clust_5="13000.00000" pt_clust_6="13000.00000" pt_clust_7="13000.00000" pt_clust_8="13000.00000" pt_clust_9="20.78257"></scales>
<clustering>
<clus scale="   20.783">  2  9  1 -1</clus>
<clus scale="   93.933">  7  8 -1 -1</clus>
<clus scale="   94.121">  1  7  2 -1</clus>
<clus scale="   96.133">  5  6 -1 -1</clus>
<clus scale="   20.783">  2  5  1 -1</clus>
</clustering>
</event>
<event>
 9    1  0.1426358E-005  0.9923206E+02  0.7546771E-02  0.1282103E+00
         21   -1    0    0  501  502  0.00000000000E+00  0.00000000000E+00  0.26742851677E+03  0.26742851677E+03  0.00000000000E+00 0.  1.
          3   -1    0    0  502    0 -0.00000000000E+00 -0.00000000000E+00 -0.78746003507E+02  0.78746003507E+02  0.00000000000E+00 0. -1.
         23    2    1    2    0    0  0.94930188200E+01  0.44037421290E+02 -0.90044191934E+01  0.10190922073E+03  0.90967015035E+02 0.  0.
         23    2    1    2    0    0 -0.19408769708E+02 -0.23340718434E+02  0.80742208261E+02  0.12509003306E+03  0.90590963668E+02 0.  0.
        -11    1    4    4    0    0  0.30501844102E+02 -0.28650488031E+02  0.53688448536E+02  0.68071010454E+02  0.00000000000E+00 0.  1.
         11    1    4    4    0    0 -0.49910613810E+02  0.53097695969E+01  0.27053759724E+02  0.57019022609E+02  0.00000000000E+00 0. -1.
        -13    1    3    3    0    0 -0.35931060191E+02  0.22731914555E+02  0.16523453677E+02  0.45615847544E+02  0.00000000000E+00 0.  1.
         13    1    3    3    0    0  0.45424079011E+02  0.21305506734E+02 -0.25527872870E+02  0.56293373184E+02  0.00000000000E+00 0. -1.
          3    1    1    2  501    0  0.99157508875E+01 -0.20696702855E+02  0.11694472419E+03  0.11917526648E+03  0.00000000000E+00 0. -1.
<scales pt_clust_5="13000.00000" pt_clust_6="13000.00000" pt_clust_7="13000.00000" pt_clust_8="13000.00000" pt_clust_9="22.94941"></scales>
<clustering>
<clus scale="   22.949">  1  9  2 -1</clus>
<clus scale="   90.591">  5  6 -1 -1</clus>
<clus scale="   90.967">  7  8 -1 -1</clus>
<clus scale="   98.887">  1  5  2 -1</clus>
<clus scale="   22.949">  1  5  2 -1</clus>
</clustering>
</event>
<event>
 9    1  0.1426358E-005  0.9272184E+02  0.7546771E-02  0.1297506E+00
         21   -1    0    0  501  502  0.00000000000E+00  0.00000000000E+00  0.49842568434E+02  0.49842568434E+02  0.00000000000E+00 0.  1.
          1   -1    0    0  502    0 -0.00000000000E+00 -0.00000000000E+00 -0.50002705208E+03  0.50002705208E+03  0.00000000000E+00 0. -1.
         23    2    1    2    0    0 -0.11815416166E+02 -0.15625929130E+02 -0.27699263640E+03  0.29193036622E+03  0.90081320950E+02 0.  0.
         23    2    1    2    0    0  0.11243908167E+02 -0.21409153675E+02 -0.19356026955E+03  0.21566873730E+03  0.91992657130E+02 0.  0.
        -11    1    4    4    0    0 -0.22328211600E+02 -0.43572229364E+02 -0.14243176098E+03  0.15061173507E+03  0.00000000000E+00 0.  1.
         11    1    4    4    0    0  0.33572119768E+02  0.22163075689E+02 -0.51128508567E+02  0.65057002221E+02  0.00000000000E+00 0. -1.
        -13    1    3    3    0    0  0.10178750603E+02 -0.41107825540E+02 -0.23148171823E+03  0.23532370505E+03  0.00000000000E+00 0.  1.
         13    1    3    3    0    0 -0.21994166768E+02  0.25481896410E+02 -0.45510918167E+02  0.56606661171E+02  0.00000000000E+00 0. -1.
          1    1    1    2  501    0  0.57150799821E+00  0.37035082805E+02  0.20368422305E+02  0.42270516994E+02  0.00000000000E+00 0. -1.
<scales pt_clust_5="13000.00000" pt_clust_6="13000.00000" pt_clust_7="13000.00000" pt_clust_8="13000.00000" pt_clust_9="37.03949"></scales>
<clustering>
<clus scale="   37.039">  1  9  2 -1</clus>
<clus scale="   90.081">  7  8 -1 -1</clus>
<clus scale="   90.826">  2  7  1 -1</clus>
<clus scale="   91.993">  5  6 -1 -1</clus>
<clus scale="   37.039">  1  5  2 -1</clus>
</clustering>
</event>
<event>
 9    1  0.1426358E-005  0.1511866E+03  0.7546771E-02  0.1199941E+00
         21   -1    0    0  501  502  0.00000000000E+00  0.00000000000E+00  0.25010664895E+03  0.25010664895E+03  0.00000000000E+00 0. -1.
         -1   -1    0    0    0  501 -0.00000000000E+00 -0.00000000000E+00 -0.38458400779E+03  0.38458400779E+03  0.00000000000E+00 0.  1.
         23    2    1    2    0    0  0.45239122972E+02  0.10872223258E+03 -0.17808497674E+03  0.23084003880E+03  0.87782472436E+02 0.  0.
         23    2    1    2    0    0 -0.17010017127E+02 -0.13650412798E+03  0.18997551558E+03  0.25221857120E+03  0.92740463145E+02 0.  0.
        -11    1    4    4    0    0  0.21165262717E+02 -0.10990362750E+03  0.96406494568E+02  0.14771928743E+03  0.00000000000E+00 0. -1.
         11    1    4    4    0    0 -0.38175279844E+02 -0.26600500473E+02  0.93569021007E+02  0.10449928377E+03  0.00000000000E+00 0.  1.
        -13    1    3    3    0    0  0.33243927509E+02  0.28430760606E+02 -0.11043201945E+02  0.45115620068E+02  0.00000000000E+00 0. -1.
         13    1    3    3    0    0  0.11995195463E+02  0.80291471975E+02 -0.16704177479E+03  0.18572441873E+03  0.00000000000E+00 0.  1.
         -1    1    1    2    0  502 -0.28229105845E+02  0.27781895395E+02 -0.14636789768E+03  0.15163204674E+03  0.00000000000E+00 0.  1.
<scales pt_clust_5="13000.00000" pt_clust_6="13000.00000" pt_clust_7="13000.00000" pt_clust_8="13000.00000" pt_clust_9="39.60704"></scales>
<clustering>
<clus scale="   39.607">  1  9  2 -1</clus>
<clus scale="   87.782">  7  8 -1 -1</clus>
<clus scale="   92.740">  5  6 -1 -1</clus>
<clus scale="  148.197">  2  7  1 -1</clus>
<clus scale="   39.607">  1  5  2 -1</clus>
</clustering>
</event>
<event>
 9    1  0.1426358E-005  0.1266367E+03  0.7546771E-02  0.1233577E+00
         -2   -1    0    0    0  501 -0.00000000000E+00  0.00000000000E+00  0.84059875822E+03  0.84059875822E+03  0.00000000000E+00 0.  1.
         21   -1    0    0  501  502  0.00000000000E+00 -0.00000000000E+00 -0.48607902306E+02  0.48607902306E+02  0.00000000000E+00 0.  1.
         23    2    1    2    0    0  0.47396210462E+02 -0.79216874547E+02  0.45272621224E+03  0.47099853184E+03  0.91415971056E+02 0.  0.
         23    2    1    2    0    0  0.24209875874E+02  0.85511918151E+02  0.31746563416E+03  0.34309317684E+03  0.95026800902E+02 0.  0.
        -13    1    3    3    0    0 -0.27785623513E+02 -0.21920534025E+02  0.12367324708E+03  0.12863756345E+03  0.00000000000E+00 0. -1.
         13    1    3    3    0    0  0.75181833975E+02 -0.57296340522E+02  0.32905296516E+03  0.34236096839E+03  0.00000000000E+00 0.  1.
        -13    1    4    4    0    0  0.50458455310E+02  0.44415773357E+02  0.25575375586E+03  0.26444054203E+03  0.00000000000E+00 0.  1.
         13    1    4    4    0    0 -0.26248579436E+02  0.41096144794E+02  0.61711878298E+02  0.78652634809E+02  0.00000000000E+00 0. -1.
         -2    1    1    2    0  502 -0.71606086336E+02 -0.62950436047E+01  0.21799009511E+02  0.75114951841E+02  0.00000000000E+00 0.  1.
<scales pt_clust_5="13000.00000" pt_clust_6="13000.00000" pt_clust_7="13000.00000" pt_clust_8="13000.00000" pt_clust_9="71.88226"></scales>
<clustering>
<clus scale="   71.882">  2  9  1 -1</clus>
<clus scale="   91.416">  5  6 -1 -1</clus>
<clus scale="   95.027">  7  8 -1 -1</clus>
<clus scale="  123.950">  1  5  2 -1</clus>
<clus scale="   71.882">  2  5  1 -1</clus>
</clustering>
</event>
<event>
 9    1  0.2142804E-005  0.9464802E+02  0.7546771E-02  0.1293218E+00
         21   -1    0    0  501  502  0.00000000000E+00  0.00000000000E+00  0.33306890798E+02  0.33306890798E+02  0.00000000000E+00 0.  1.
          1   -1    0    0  502    0 -0.00000000000E+00 -0.00000000000E+00 -0.62438680346E+03  0.62438680346E+03  0.00000000000E+00 0. -1.
         23    2    1    2    0    0 -0.12158080053E+02  0.71470048518E+01 -0.47976064923E+03  0.48889430880E+03  0.92997129192E+02 0.  0.
         23    2    1    2    0    0  0.35292094234E+02 -0.13058493430E+02 -0.68557571402E+02  0.11982295628E+03  0.90781848903E+02 0.  0.
        -13    1    3    3    0    0 -0.24432907450E+02 -0.38874830770E+02 -0.26105579580E+03  0.26506291320E+03  0.00000000000E+00 0. -1.
         13    1    3    3    0    0  0.12274827397E+02  0.46021835622E+02 -0.21870485342E+03  0.22383139559E+03  0.00000000000E+00 0.  1.
        -13    1    4    4    0    0  0.54735907271E+02  0.19993911370E+02 -0.30402540643E+02  0.65727395462E+02  0.00000000000E+00 0.  1.
         13    1    4    4    0    0 -0.19443813037E+02 -0.33052404800E+02 -0.38155030759E+02  0.54095560823E+02  0.00000000000E+00 0. -1.
          1    1    1    2  501    0 -0.23134014181E+02  0.59114885785E+01 -0.42761692028E+02  0.48976429172E+02  0.00000000000E+00 0. -1.
<scales pt_clust_5="13000.00000" pt_clust_6="13000.00000" pt_clust_7="13000.00000" pt_clust_8="13000.00000" pt_clust_9="23.87736"></scales>
<clustering>
<clus scale="   23.877">  1  9  2 -1</clus>
<clus scale="   90.782">  7  8 -1 -1</clus>
<clus scale="   92.472">  1  7  2 -1</clus>
<clus scale="   92.997">  5  6 -1 -1</clus>
<clus scale="   23.877">  1  5  2 -1</clus>
</clustering>
</event>
<event>
 9    1  0.1426358E-005  0.1486736E+03  0.7546771E-02  0.1205286E+00
          1   -1    0    0  502    0 -0.00000000000E+00  0.00000000000E+00  0.20192585927E+03  0.20192585927E+03  0.00000000000E+00 0. -1.
         21   -1    0    0  501  502  0.00000000000E+00 -0.00000000000E+00 -0.41139851736E+03  0.41139851736E+03  0.00000000000E+00 0. -1.
         23    2    1    2    0    0  0.60520953759E+02  0.12516389642E+03  0.10707569818E+03  0.18939158353E+03  0.71240297295E+02 0.  0.
         23    2    1    2    0    0 -0.24850664760E+02 -0.80565399934E+02 -0.22734071970E+02  0.12461986477E+03  0.88909692729E+02 0.  0.
        -11    1    4    4    0    0 -0.40822717939E+02 -0.98799420659E+01  0.12801099673E+02  0.43908720182E+02  0.00000000000E+00 0.  1.
         11    1    4    4    0    0  0.15972053179E+02 -0.70685457868E+02 -0.35535171644E+02  0.80711144587E+02  0.00000000000E+00 0. -1.
        -13    1    3    3    0    0  0.29956610367E+02  0.60354853066E+02  0.95394012578E+02  0.11679094327E+03  0.00000000000E+00 0. -1.
         13    1    3    3    0    0  0.30564343393E+02  0.64809043356E+02  0.11681685601E+02  0.72600640260E+02  0.00000000000E+00 0.  1.
          1    1    1    2  501    0 -0.35670288999E+02 -0.44598496488E+02 -0.29381428430E+03  0.29931292833E+03  0.00000000000E+00 0. -1.
<scales pt_clust_5="13000.00000" pt_clust_6="13000.00000" pt_clust_7="13000.00000" pt_clust_8="13000.00000" pt_clust_9="57.10863"></scales>
<clustering>
<clus scale="   57.109">  2  9  1 -1</clus>
<clus scale="   71.240">  7  8 -1 -1</clus>
<clus scale="   88.910">  5  6 -1 -1</clus>
<clus scale="  138.831">  1  7  2 -1</clus>
<clus scale="   57.109">  2  5  1 -1</clus>
</clustering>
</event>
<event>
 9    1  0.1426358E-005  0.1154192E+03  0.7546771E-02  0.1251023E+00
          2   -1    0    0  502    0 -0.00000000000E+00  0.00000000000E+00  0.27804133830E+03  0.27804133830E+03  0.00000000000E+00 0. -1.
         21   -1    0    0  501  502  0.00000000000E+00 -0.00000000000E+00 -0.60978962205E+02  0.60978962205E+02  0.00000000000E+00 0. -1.
         23    2    1    2    0    0 -0.13029212716E+02  0.76370411808E+02  0.13301491630E+03  0.17945911868E+03  0.92251867927E+02 0.  0.
         23    2    1    2    0    0 -0.55500049155E+01 -0.60317122230E+02  0.76246011307E+02  0.13379767987E+03  0.91757327286E+02 0.  0.
        -11    1    4    4    0    0  0.41735773831E+02 -0.19385526641E+02  0.42943236008E+02  0.62942791322E+02  0.00000000000E+00 0.  1.
         11    1    4    4    0    0 -0.47285778747E+02 -0.40931595588E+02  0.33302775299E+02  0.70854888552E+02  0.00000000000E+00 0. -1.
        -11    1    3    3    0    0 -0.14232602044E+02  0.31870507645E+02 -0.42446425350E+01  0.35161245837E+02  0.00000000000E+00 0.  1.
         11    1    3    3    0    0  0.12033893279E+01  0.44499904163E+02  0.13725955883E+03  0.14429787284E+03  0.00000000000E+00 0. -1.
          2    1    1    2  501    0  0.18579217632E+02 -0.16053289579E+02  0.78014484869E+01  0.25763501948E+02  0.00000000000E+00 0. -1.
<scales pt_clust_5="13000.00000" pt_clust_6="13000.00000" pt_clust_7="13000.00000" pt_clust_8="13000.00000" pt_clust_9="24.55393"></scales>
<clustering>
<clus scale="   24.554">  2  9  1 -1</clus>
<clus scale="   91.757">  5  6 -1 -1</clus>
<clus scale="   92.252">  7  8 -1 -1</clus>
<clus scale="  115.024">  2  5  1 -1</clus>
<clus scale="   24.554">  2  5  1 -1</clus>
</clustering>
</event>
<event>
 9    1  0.1426358E-005  0.1170789E+03  0.7546771E-02  0.1248041E+00
         -3   -1    0    0    0  501 -0.00000000000E+00  0.00000000000E+00  0.13379703642E+03  0.13379703642E+03  0.00000000000E+00 0.  1.
         21   -1    0    0  501  502  0.00000000000E+00 -0.00000000000E+00 -0.32188388225E+03  0.32188388225E+03  0.00000000000E+00 0. -1.
         23    2    1    2    0    0 -0.38483268265E+02 -0.55524649230E+02  0.76398477001E+02  0.13784787855E+03  0.92743526584E+02 0.  0.
         23    2    1    2    0    0  0.57590494360E+02  0.85404542480E+02 -0.22919493000E+03  0.26779999169E+03  0.92606256253E+02 0.  0.
        -11    1    4    4    0    0  0.14474690198E+02 -0.16916081517E+02 -0.71869343584E+02  0.75238773365E+02  0.00000000000E+00 0.  1.
         11    1    4    4    0    0  0.43115804162E+02  0.10232062400E+03 -0.15732558641E+03  0.19256121833E+03  0.00000000000E+00 0. -1.
        -13    1    3    3    0    0 -0.66194309010E+02 -0.27350784461E+02  0.32106841926E+02  0.78489497733E+02  0.00000000000E+00 0.  1.
         13    1    3    3    0    0  0.27711040745E+02 -0.28173864769E+02  0.44291635075E+02  0.59358380814E+02  0.00000000000E+00 0. -1.
         -3    1    1    2    0  502 -0.19107226095E+02 -0.29879893250E+02 -0.35290392831E+02  0.50033048436E+02  0.00000000000E+00 0.  1.
<scales pt_clust_5="13000.00000" pt_clust_6="13000.00000" pt_clust_7="13000.00000" pt_clust_8="13000.00000" pt_clust_9="35.46680"></scales>
<clustering>
<clus scale="   35.467">  2  9  1 -1</clus>
<clus scale="   92.606">  5  6 -1 -1</clus>
<clus scale="   92.744">  7  8 -1 -1</clus>
<clus scale="  116.970">  2  5  1 -1</clus>
<clus scale="   35.467">  2  5  1 -1</clus>
</clustering>
</event>
<event>
 9    1  0.1426358E-005  0.9428578E+02  0.7546771E-02  0.1292851E+00
         21   -1    0    0  501  502  0.00000000000E+00  0.00000000000E+00  0.19566774949E+02  0.19566774949E+02  0.00000000000E+00 0.  1.
          1   -1    0    0  502    0 -0.00000000000E+00 -0.00000000000E+00 -0.74831319683E+03  0.74831319683E+03  0.00000000000E+00 0. -1.
         23    2    1    2    0    0 -0.96566038090E+01 -0.12400533072E+01 -0.40009741211E+03  0.41061692939E+03  0.91834284421E+02 0.  0.
         23    2    1    2    0    0  0.37085500358E+02 -0.17206610848E+02 -0.28677372977E+03  0.30391360134E+03  0.91939671549E+02 0.  0.
        -11    1    3    3    0    0  0.30148538104E+02 -0.28350058237E+02 -0.23589308445E+03  0.23949573575E+03  0.00000000000E+00 0.  1.
         11    1    3    3    0    0 -0.39805141913E+02  0.27110004930E+02 -0.16420432766E+03  0.17112119364E+03  0.00000000000E+00 0. -1.
        -13    1    4    4    0    0  0.63744663322E+02 -0.22108347169E+02 -0.14993670066E+03  0.16441768555E+03  0.00000000000E+00 0.  1.
         13    1    4    4    0    0 -0.26659162964E+02  0.49017363214E+01 -0.13683702911E+03  0.13949591580E+03  0.00000000000E+00 0. -1.
          1    1    1    2  501    0 -0.27428896549E+02  0.18446664155E+02 -0.41875280005E+02  0.53349441045E+02  0.00000000000E+00 0. -1.
<scales pt_clust_5="13000.00000" pt_clust_6="13000.00000" pt_clust_7="13000.00000" pt_clust_8="13000.00000" pt_clust_9="33.05486"></scales>
<clustering>
<clus scale="   33.055">  1  9  2 -1</clus>
<clus scale="   91.834">  5  6 -1 -1</clus>
<clus scale="   91.940">  7  8 -1 -1</clus>
<clus scale="   94.183">  2  5  1 -1</clus>
<clus scale="   33.055">  1  5  2 -1</clus>
</clustering>
</event>
<event>
 9    1  0.1426358E-005  0.1594245E+03  0.7546771E-02  0.1189811E+00
          2   -1    0    0  502    0 -0.00000000000E+00  0.00000000000E+00  0.14680703888E+04  0.14680703888E+04  0.00000000000E+00 0. -1.
         21   -1    0    0  501  502  0.00000000000E+00 -0.00000000000E+00 -0.28180880925E+02  0.28180880925E+02  0.00000000000E+00 0. -1.
         23    2    1    2    0    0 -0.11482252588E+03 -0.42818837373E+01  0.72837987084E+03  0.74333370671E+03  0.93836114095E+02 0.  0.
         23    2    1    2    0    0  0.14902642633E+03  0.49355742567E+02  0.61315633477E+03  0.63944980715E+03  0.91052182380E+02 0.  0.
        -11    1    3    3    0    0 -0.72008460391E+02 -0.48355533053E+02  0.40884917383E+03  0.41794870844E+03  0.00000000000E+00 0. -1.
         11    1    3    3    0    0 -0.42814065485E+02  0.44073649316E+02  0.31953069701E+03  0.32538499827E+03  0.00000000000E+00 0.  1.
        -11    1    4    4    0    0  0.37115412703E+02 -0.22752848844E+02  0.22286909456E+03  0.22708121741E+03  0.00000000000E+00 0.  1.
         11    1    4    4    0    0  0.11191101363E+03  0.72108591412E+02  0.39028724022E+03  0.41236858974E+03  0.00000000000E+00 0. -1.
          2    1    1    2  501    0 -0.34203900455E+02 -0.45073858830E+02  0.98353302251E+02  0.11346775586E+03  0.00000000000E+00 0. -1.
<scales pt_clust_5="13000.00000" pt_clust_6="13000.00000" pt_clust_7="13000.00000" pt_clust_8="13000.00000" pt_clust_9="56.58233"></scales>
<clustering>
<clus scale="   56.582">  2  9  1 -1</clus>
<clus scale="   91.052">  7  8 -1 -1</clus>
<clus scale="   93.836">  5  6 -1 -1</clus>
<clus scale="  157.802">  2  7  1 -1</clus>
<clus scale="   56.582">  2  5  1 -1</clus>
</clustering>
</event>
<event>
 9    1  0.1426358E-005  0.9374898E+02  0.7546771E-02  0.1294295E+00
          2   -1    0    0  502    0 -0.00000000000E+00  0.00000000000E+00  0.45848260192E+03  0.45848260192E+03  0.00000000000E+00 0. -1.
         21   -1    0    0  501  502  0.00000000000E+00 -0.00000000000E+00 -0.62153140826E+02  0.62153140826E+02  0.00000000000E+00 0. -1.
         23    2    1    2    0    0 -0.27281247171E+02  0.35495164870E+02  0.28131772999E+03  0.29915200854E+03  0.91367859942E+02 0.  0.
         23    2    1    2    0    0 -0.60785671221E+01  0.26770507182E+02  0.11718465037E+03  0.15081116029E+03  0.90874389977E+02 0.  0.
        -11    1    3    3    0    0 -0.51671933936E+02  0.64386493155E+00  0.96106815477E+02  0.10911884943E+03  0.00000000000E+00 0.  1.
         11    1    3    3    0    0  0.24390686766E+02  0.34851299938E+02  0.18521091451E+03  0.19003315911E+03  0.00000000000E+00 0. -1.
        -11    1    4    4    0    0 -0.39733673519E+02 -0.76260090568E+01  0.27154046205E+02  0.48726410197E+02  0.00000000000E+00 0.  1.
         11    1    4    4    0    0  0.33655106396E+02  0.34396516239E+02  0.90030604163E+02  0.10208475009E+03  0.00000000000E+00 0. -1.
          2    1    1    2  501    0  0.33359814293E+02 -0.62265672052E+02 -0.21729192636E+01  0.70672573916E+02  0.00000000000E+00 0. -1.
<scales pt_clust_5="13000.00000" pt_clust_6="13000.00000" pt_clust_7="13000.00000" pt_clust_8="13000.00000" pt_clust_9="70.63916"></scales>
<clustering>
<clus scale="   70.639">  2  9  1 -1</clus>
<clus scale="   90.874">  7  8 -1 -1</clus>
<clus scale="   91.368">  5  6 -1 -1</clus>
<clus scale="   93.268">  2  7  1 -1</clus>
<clus scale="   70.639">  2  5  1 -1</clus>
</clustering>
</event>
<event>
 9    1  0.1426358E-005  0.1238316E+03  0.7546771E-02  0.1239694E+00
         -1   -1    0    0    0  501 -0.00000000000E+00  0.00000000000E+00  0.51986810026E+02  0.51986810026E+02  0.00000000000E+00 0.  1.
         21   -1    0    0  501  502  0.00000000000E+00 -0.00000000000E+00 -0.36506636114E+03  0.36506636114E+03  0.00000000000E+00 0. -1.
         23    2    1    2    0    0 -0.65063094018E+02 -0.13703225597E+02 -0.95678190994E+02  0.15253688582E+03  0.98448975148E+02 0.  0.
         23    2    1    2    0    0  0.87334917142E+02  0.11833811369E+02 -0.16428765924E+03  0.20689168959E+03  0.89701222961E+02 0.  0.
        -11    1    3    3    0    0 -0.90588863186E+02 -0.19390961202E+02 -0.73967887899E+02  0.11854788041E+03  0.00000000000E+00 0.  1.
         11    1    3    3    0    0  0.25525769168E+02  0.56877356054E+01 -0.21710303094E+02  0.33989005405E+02  0.00000000000E+00 0. -1.
        -11    1    4    4    0    0  0.47322881355E+02 -0.19998692183E+02 -0.14219784281E+03  0.15119401208E+03  0.00000000000E+00 0. -1.
         11    1    4    4    0    0  0.40012035787E+02  0.31832503552E+02 -0.22089816423E+02  0.55697677508E+02  0.00000000000E+00 0.  1.
         -1    1    1    2    0  502 -0.22271823124E+02  0.18694142276E+01 -0.53113700888E+02  0.57624595762E+02  0.00000000000E+00 0.  1.
<scales pt_clust_5="13000.00000" pt_clust_6="13000.00000" pt_clust_7="13000.00000" pt_clust_8="13000.00000" pt_clust_9="22.35014"></scales>
<clustering>
<clus scale="   22.350">  2  9  1 -1</clus>
<clus scale="   89.701">  7  8 -1 -1</clus>
<clus scale="   98.449">  5  6 -1 -1</clus>
<clus scale="  116.997">  2  7  1 -1</clus>
<clus scale="   22.350">  2  5  1 -1</clus>
</clustering>
</event>
<event>
 9    1  0.1426358E-005  0.9367469E+02  0.7546771E-02  0.1294857E+00
         21   -1    0    0  501  502  0.00000000000E+00  0.00000000000E+00  0.11968438440E+03  0.11968438440E+03  0.00000000000E+00 0.  1.
          1   -1    0    0  502    0 -0.00000000000E+00 -0.00000000000E+00 -0.11284140843E+03  0.11284140843E+03  0.00000000000E+00 0. -1.
         23    2    1    2    0    0  0.64320364123E+01  0.82280085877E+01 -0.14071537057E+02  0.93916872101E+02  0.92267543006E+02 0.  0.
         23    2    1    2    0    0 -0.26111250039E+02  0.21690915139E+02  0.14963075868E+00  0.97213343894E+02  0.91094010031E+02 0.  0.
        -11    1    4    4    0    0 -0.48586311908E+02  0.40206819423E+02 -0.14359069815E+02  0.64679215509E+02  0.00000000000E+00 0.  1.
         11    1    4    4    0    0  0.22475061869E+02 -0.18515904284E+02  0.14508700574E+02  0.32534128385E+02  0.00000000000E+00 0. -1.
        -13    1    3    3    0    0  0.16104237436E+02  0.29418438730E+02  0.29398706825E+02  0.44599046668E+02  0.00000000000E+00 0.  1.
         13    1    3    3    0    0 -0.96722010241E+01 -0.21190430143E+02 -0.43470243882E+02  0.49317825433E+02  0.00000000000E+00 0. -1.
          1    1    1    2  501    0  0.19679213626E+02 -0.29918923726E+02  0.20764882262E+02  0.41395576832E+02  0.00000000000E+00 0. -1.
<scales pt_clust_5="13000.00000" pt_clust_6="13000.00000" pt_clust_7="13000.00000" pt_clust_8="13000.00000" pt_clust_9="35.81080"></scales>
<clustering>
<clus scale="   35.811">  1  9  2 -1</clus>
<clus scale="   91.094">  5  6 -1 -1</clus>
<clus scale="   92.268">  7  8 -1 -1</clus>
<clus scale="   92.519">  1  5  2 -1</clus>
<clus scale="   35.811">  1  5  2 -1</clus>
</clustering>
</event>
<event>
 9    1  0.1426358E-005  0.9486511E+02  0.7546771E-02  0.1292725E+00
          1   -1    0    0  502    0 -0.00000000000E+00  0.00000000000E+00  0.20332638657E+03  0.20332638657E+03  0.00000000000E+00 0. -1.
         21   -1    0    0  501  502  0.00000000000E+00 -0.00000000000E+00 -0.65539517802E+02  0.65539517802E+02  0.00000000000E+00 0.  1.
         23    2    1    2    0    0  0.11001866571E+02 -0.85795196252E+01  0.73826602577E+02  0.11789250522E+03  0.90849470625E+02 0.  0.
         23    2    1    2    0    0 -0.40741261796E+02  0.26209940780E+02  0.38537795834E+02  0.10805993533E+03  0.88571871987E+02 0.  0.
        -11    1    3    3    0    0 -0.30571518597E+02  0.95104583323E+01  0.90988977441E+00  0.32029587360E+02  0.00000000000E+00 0.  1.
         11    1    3    3    0    0  0.41573385168E+02 -0.18089977958E+02  0.72916712803E+02  0.85862917856E+02  0.00000000000E+00 0. -1.
        -13    1    4    4    0    0 -0.32009839671E+02 -0.12935846698E+02 -0.17847429112E+02  0.38865108921E+02  0.00000000000E+00 0.  1.
         13    1    4    4    0    0 -0.87314221253E+01  0.39145787478E+02  0.56385224946E+02  0.69194826409E+02  0.00000000000E+00 0. -1.
          1    1    1    2  501    0  0.29739395225E+02 -0.17630421155E+02  0.25422470356E+02  0.42913463825E+02  0.00000000000E+00 0. -1.
<scales pt_clust_5="13000.00000" pt_clust_6="13000.00000" pt_clust_7="13000.00000" pt_clust_8="13000.00000" pt_clust_9="34.57260"></scales>
<clustering>
<clus scale="   34.573">  2  9  1 -1</clus>
<clus scale="   88.572">  7  8 -1 -1</clus>
<clus scale="   90.849">  5  6 -1 -1</clus>
<clus scale="   92.686">  2  7  1 -1</clus>
<clus scale="   34.573">  2  5  1 -1</clus>
</clustering>
</event>
<event>
 9    1  0.1426358E-005  0.1575290E+03  0.7546771E-02  0.1206887E+00
         21   -1    0    0  501  502  0.00000000000E+00  0.00000000000E+00  0.15529474147E+03  0.15529474147E+03  0.00000000000E+00 0. -1.
          2   -1    0    0  502    0 -0.00000000000E+00 -0.00000000000E+00 -0.46904486132E+03  0.46904486132E+03  0.00000000000E+00 0. -1.
         23    2    1    2    0    0 -0.67539791015E+02 -0.98369246854E+01 -0.29643276559E+03  0.31715523372E+03  0.89758951082E+02 0.  0.
         23    2    1    2    0    0  0.14335727628E+03 -0.78375828342E+02 -0.33563332028E+02  0.18973773156E+03  0.90442414771E+02 0.  0.
        -13    1    3    3    0    0 -0.59670548670E+02 -0.39895860830E+02 -0.13639834467E+03  0.15413228902E+03  0.00000000000E+00 0. -1.
         13    1    3    3    0    0 -0.78692423447E+01  0.30058936145E+02 -0.16003442093E+03  0.16302294470E+03  0.00000000000E+00 0.  1.
        -13    1    4    4    0    0  0.12056722290E+03 -0.76925463741E+02 -0.59746114275E+02  0.15499542052E+03  0.00000000000E+00 0. -1.
         13    1    4    4    0    0  0.22790053382E+02 -0.14503646003E+01  0.26182782247E+02  0.34742311046E+02  0.00000000000E+00 0.  1.
          2    1    1    2  501    0 -0.75817485269E+02  0.88212753027E+02  0.16245977776E+02  0.11744663751E+03  0.00000000000E+00 0. -1.
<scales pt_clust_5="13000.00000" pt_clust_6="13000.00000" pt_clust_7="13000.00000" pt_clust_8="13000.00000" pt_clust_9="128.97887"></scales>
<clustering>
<clus scale="   89.759">  5  6 -1 -1</clus>
<clus scale="   90.442">  7  8 -1 -1</clus>
<clus scale="  112.761">  2  5  1 -1</clus>
<clus scale="  128.979">  1  9  2 -1</clus>
<clus scale="  128.979">  1  5  2 -1</clus>
</clustering>
</event>
<event>
 9    1  0.1426358E-005  0.1049168E+03  0.7546771E-02  0.1271944E+00
          2   -1    0    0  502    0 -0.00000000000E+00  0.00000000000E+00  0.33481652400E+03  0.33481652400E+03  0.00000000000E+00 0. -1.
         21   -1    0    0  501  502  0.00000000000E+00 -0.00000000000E+00 -0.52249157844E+02  0.52249157844E+02  0.00000000000E+00 0. -1.
         23    2    1    2    0    0 -0.14826279151E+02  0.49303224352E+02  0.17734034861E+03  0.20650530572E+03  0.92434926087E+02 0.  0.
         23    2    1    2    0    0  0.23063823752E+02 -0.14056702961E+02  0.43181291826E+02  0.10872830466E+03  0.96060863028E+02 0.  0.
        -13    1    3    3    0    0 -0.36756865728E+02 -0.10799904700E+02  0.93481015630E+02  0.10102675588E+03  0.00000000000E+00 0.  1.
         13    1    3    3    0    0  0.21930586576E+02  0.60103129052E+02  0.83859332982E+02  0.10547854985E+03  0.00000000000E+00 0. -1.
        -13    1    4    4    0    0 -0.29482026195E+02  0.10231808655E+02  0.40026883360E+02  0.50754617213E+02  0.00000000000E+00 0. -1.
         13    1    4    4    0    0  0.52545849947E+02 -0.24288511616E+02  0.31544084666E+01  0.57973687444E+02  0.00000000000E+00 0.  1.
          2    1    1    2  501    0 -0.82375446003E+01 -0.35246521391E+02  0.62045725718E+02  0.71832071466E+02  0.00000000000E+00 0. -1.
<scales pt_clust_5="13000.00000" pt_clust_6="13000.00000" pt_clust_7="13000.00000" pt_clust_8="13000.00000" pt_clust_9="36.19635"></scales>
<clustering>
<clus scale="   36.196">  2  9  1 -1</clus>
<clus scale="   92.435">  5  6 -1 -1</clus>
<clus scale="   96.061">  7  8 -1 -1</clus>
<clus scale="  101.607">  1  5  2 -1</clus>
<clus scale="   36.196">  2  5  1 -1</clus>
</clustering>
</event>
<event>
 9    1  0.1426358E-005  0.1297988E+03  0.7546771E-02  0.1228073E+00
         21   -1    0    0  501  502  0.00000000000E+00  0.00000000000E+00  0.25224574538E+03  0.25224574538E+03  0.00000000000E+00 0.  1.
          2   -1    0    0  502    0 -0.00000000000E+00 -0.00000000000E+00 -0.94074036449E+02  0.94074036449E+02  0.00000000000E+00 0. -1.
         23    2    1    2    0    0 -0.69825474402E+02 -0.65369558639E+02  0.21580017734E+02  0.13329934207E+03  0.90300838083E+02 0.  0.
         23    2    1    2    0    0  0.82477815620E+02  0.39142447210E+02  0.13197564923E+03  0.18353737758E+03  0.89071183530E+02 0.  0.
        -11    1    4    4    0    0  0.95354281389E+02  0.17718689852E+02  0.12374091274E+03  0.15722024181E+03  0.00000000000E+00 0.  1.
         11    1    4    4    0    0 -0.12876465768E+02  0.21423757358E+02  0.82347364937E+01  0.26317135770E+02  0.00000000000E+00 0. -1.
        -13    1    3    3    0    0 -0.59393478035E+02 -0.31298439784E+01 -0.13652224603E+02  0.61022654753E+02  0.00000000000E+00 0. -1.
         13    1    3    3    0    0 -0.10431996367E+02 -0.62239714661E+02  0.35232242338E+02  0.72276687316E+02  0.00000000000E+00 0.  1.
          2    1    1    2  501    0 -0.12652341218E+02  0.26227111430E+02  0.46160419668E+01  0.29483062183E+02  0.00000000000E+00 0. -1.
<scales pt_clust_5="13000.00000" pt_clust_6="13000.00000" pt_clust_7="13000.00000" pt_clust_8="13000.00000" pt_clust_9="29.11948"></scales>
<clustering>
<clus scale="   29.119">  1  9  2 -1</clus>
<clus scale="   89.071">  5  6 -1 -1</clus>
<clus scale="   90.301">  7  8 -1 -1</clus>
<clus scale="  128.946">  1  5  2 -1</clus>
<clus scale="   29.119">  1  5  2 -1</clus>
</clustering>
</event>
<event>
 9    1  0.1426358E-005  0.1327237E+03  0.7546771E-02  0.1239737E+00
         21   -1    0    0  501  502  0.00000000000E+00  0.00000000000E+00  0.25535856892E+03  0.25535856892E+03  0.00000000000E+00 0.  1.
          2   -1    0    0  502    0 -0.00000000000E+00 -0.00000000000E+00 -0.22458008795E+03  0.22458008795E+03  0.00000000000E+00 0. -1.
         23    2    1    2    0    0  0.25942883296E+02  0.14347302779E+01 -0.21083834981E+02  0.97252368233E+02  0.91314858510E+02 0.  0.
         23    2    1    2    0    0  0.71385558852E+02  0.67948022839E+01 -0.13101045424E+03  0.17536286755E+03  0.91903910922E+02 0.  0.
        -11    1    4    4    0    0  0.83481353419E+02  0.28704802542E+02 -0.11735954010E+03  0.14685490700E+03  0.00000000000E+00 0.  1.
         11    1    4    4    0    0 -0.12095794567E+02 -0.21910000258E+02 -0.13650914138E+02  0.28507960543E+02  0.00000000000E+00 0. -1.
        -11    1    3    3    0    0  0.33480750101E+02  0.28164652122E+02  0.19641876801E+02  0.47958435970E+02  0.00000000000E+00 0.  1.
         11    1    3    3    0    0 -0.75378668048E+01 -0.26729921844E+02 -0.40725711782E+02  0.49293932262E+02  0.00000000000E+00 0. -1.
          2    1    1    2  501    0 -0.97328442148E+02 -0.82295325618E+01  0.18287277019E+03  0.20732342110E+03  0.00000000000E+00 0. -1.
<scales pt_clust_5="13000.00000" pt_clust_6="13000.00000" pt_clust_7="13000.00000" pt_clust_8="13000.00000" pt_clust_9="95.75625"></scales>
<clustering>
<clus scale="   91.315">  7  8 -1 -1</clus>
<clus scale="   91.904">  5  6 -1 -1</clus>
<clus scale="   94.939">  2  7  1 -1</clus>
<clus scale="   95.756">  1  9  2 -1</clus>
<clus scale="   95.756">  1  5  2 -1</clus>
</clustering>
</event>
<event>
 9    1  0.1426358E-005  0.9952849E+02  0.7546771E-02  0.1282997E+00
         21   -1    0    0  501  502  0.00000000000E+00  0.00000000000E+00  0.17157292413E+03  0.17157292413E+03  0.00000000000E+00 0.  1.
         -2   -1    0    0    0  501 -0.00000000000E+00 -0.00000000000E+00 -0.19134163228E+03  0.19134163228E+03  0.00000000000E+00 0.  1.
         23    2    1    2    0    0  0.42593923816E+02 -0.13732173628E+02 -0.65842960800E+02  0.12446028876E+03  0.95667408520E+02 0.  0.
         23    2    1    2    0    0 -0.49463572374E+01 -0.41135736547E+02 -0.56692278013E+02  0.11602556733E+03  0.92365050838E+02 0.  0.
        -11    1    4    4    0    0  0.11412781407E+02  0.25525500836E+02 -0.15914227679E+01  0.28005988624E+02  0.00000000000E+00 0.  1.
         11    1    4    4    0    0 -0.16359138644E+02 -0.66661237383E+02 -0.55100855245E+02  0.88019578705E+02  0.00000000000E+00 0. -1.
        -11    1    3    3    0    0  0.39947404616E+02  0.16677483987E+02 -0.79885533744E+02  0.90860509074E+02  0.00000000000E+00 0.  1.
         11    1    3    3    0    0  0.26465192006E+01 -0.30409657615E+02  0.14042572944E+02  0.33599779687E+02  0.00000000000E+00 0. -1.
         -2    1    1    2    0  502 -0.37647566579E+02  0.54867910175E+02  0.10276653067E+03  0.12242870032E+03  0.00000000000E+00 0.  1.
<scales pt_clust_5="13000.00000" pt_clust_6="13000.00000" pt_clust_7="13000.00000" pt_clust_8="13000.00000" pt_clust_9="66.54192"></scales>
<clustering>
<clus scale="   66.542">  1  9  2 -1</clus>
<clus scale="   92.365">  5  6 -1 -1</clus>
<clus scale="   95.667">  7  8 -1 -1</clus>
<clus scale="   96.359">  1  5  2 -1</clus>
<clus scale="   66.542">  1  5  2 -1</clus>
</clustering>
</event>
<event>
 9    1  0.1426358E-005  0.9961362E+02  0.7546771E-02  0.1291528E+00
          1   -1    0    0  502    0 -0.00000000000E+00  0.00000000000E+00  0.20078759916E+03  0.20078759916E+03  0.00000000000E+00 0. -1.
         21   -1    0    0  501  502  0.00000000000E+00 -0.00000000000E+00 -0.71199288191E+02  0.71199288191E+02  0.00000000000E+00 0.  1.
         23    2    1    2    0    0  0.20213428145E+02  0.27828742714E+02  0.93258113362E+02  0.12247641563E+03  0.71556796186E+02 0.  0.
         23    2    1    2    0    0 -0.46443346450E+02 -0.28273321178E+02  0.52646355251E+02  0.11861673020E+03  0.91334138432E+02 0.  0.
        -11    1    4    4    0    0 -0.67321150333E+01 -0.48177521569E+02  0.55869539244E+02  0.74079689340E+02  0.00000000000E+00 0. -1.
         11    1    4    4    0    0 -0.39711231416E+02  0.19904200391E+02 -0.32231839935E+01  0.44537040863E+02  0.00000000000E+00 0.  1.
        -13    1    3    3    0    0 -0.20893870999E+02 -0.88509607238E+01  0.16783729834E+02  0.28223871779E+02  0.00000000000E+00 0. -1.
         13    1    3    3    0    0  0.41107299144E+02  0.36679703437E+02  0.76474383529E+02  0.94252543855E+02  0.00000000000E+00 0.  1.
          1    1    1    2  501    0  0.26229918305E+02  0.44457846451E+00 -0.16316157645E+02  0.30893741512E+02  0.00000000000E+00 0. -1.
<scales pt_clust_5="13000.00000" pt_clust_6="13000.00000" pt_clust_7="13000.00000" pt_clust_8="13000.00000" pt_clust_9="26.23369"></scales>
<clustering>
<clus scale="   26.234">  2  9  1 -1</clus>
<clus scale="   71.557">  7  8 -1 -1</clus>
<clus scale="   81.862">  1  7  2 -1</clus>
<clus scale="   91.334">  5  6 -1 -1</clus>
<clus scale="   26.234">  2  5  1 -1</clus>
</clustering>
</event>
<event>
 9    1  0.1426358E-005  0.9888096E+02  0.7546771E-02  0.1285907E+00
          2   -1    0    0  502    0 -0.00000000000E+00  0.00000000000E+00  0.40839820501E+03  0.40839820501E+03  0.00000000000E+00 0. -1.
         21   -1    0    0  501  502  0.00000000000E+00 -0.00000000000E+00 -0.71395895358E+02  0.71395895358E+02  0.00000000000E+00 0. -1.
         23    2    1    2    0    0 -0.14993587650E+00  0.38715128534E+02  0.29344475625E+03  0.31106383074E+03  0.95666076359E+02 0.  0.
         23    2    1    2    0    0  0.72815404142E+01  0.10402096071E+02  0.68215184535E+02  0.11331041479E+03  0.89580769508E+02 0.  0.
        -11    1    3    3    0    0 -0.29233929389E+02 -0.17911222263E+02  0.60097982962E+02  0.69189609527E+02  0.00000000000E+00 0.  1.
         11    1    3    3    0    0  0.29083993513E+02  0.56626350797E+02  0.23334677329E+03  0.24187422122E+03  0.00000000000E+00 0. -1.
        -13    1    4    4    0    0  0.42384197827E+01  0.46231406340E+02  0.14437243456E+02  0.48618320961E+02  0.00000000000E+00 0. -1.
         13    1    4    4    0    0  0.30431206315E+01 -0.35829310269E+02  0.53777941079E+02  0.64692093831E+02  0.00000000000E+00 0.  1.
          2    1    1    2  501    0 -0.71316045377E+01 -0.49117224605E+02 -0.24657631138E+02  0.55419854832E+02  0.00000000000E+00 0. -1.
<scales pt_clust_5="13000.00000" pt_clust_6="13000.00000" pt_clust_7="13000.00000" pt_clust_8="13000.00000" pt_clust_9="49.63226"></scales>
<clustering>
<clus scale="   49.632">  2  9  1 -1</clus>
<clus scale="   89.581">  7  8 -1 -1</clus>
<clus scale="   93.006">  2  7  1 -1</clus>
<clus scale="   95.666">  5  6 -1 -1</clus>
<clus scale="   49.632">  2  5  1 -1</clus>
</clustering>
</event>
<event>
 9    1  0.1426358E-005  0.2302770E+03  0.7546771E-02  0.1127674E+00
         21   -1    0    0  501  502  0.00000000000E+00  0.00000000000E+00  0.88222669473E+02  0.88222669473E+02  0.00000000000E+00 0. -1.
          1   -1    0    0  502    0 -0.00000000000E+00 -0.00000000000E+00 -0.11462730765E+04  0.11462730765E+04  0.00000000000E+00 0. -1.
         23    2    1    2    0    0  0.25709270236E+03  0.60993084202E+02 -0.76838471373E+03  0.81880904350E+03  0.10107604813E+03 0.  0.
         23    2    1    2    0    0 -0.12462612072E+03 -0.63345752072E+02 -0.18604539966E+03  0.24749010453E+03  0.84226520986E+02 0.  0.
        -13    1    4    4    0    0 -0.77754585662E+02 -0.33565618494E+01 -0.52855958057E+02  0.94078660710E+02  0.00000000000E+00 0.  1.
         13    1    4    4    0    0 -0.46871535056E+02 -0.59989190223E+02 -0.13318944160E+03  0.15341144382E+03  0.00000000000E+00 0. -1.
        -13    1    3    3    0    0  0.18028512939E+03  0.86486471354E+02 -0.58895652051E+03  0.62197461416E+03  0.00000000000E+00 0.  1.
         13    1    3    3    0    0  0.76807572969E+02 -0.25493387152E+02 -0.17942819322E+03  0.19683442934E+03  0.00000000000E+00 0. -1.
          1    1    1    2  501    0 -0.13246658164E+03  0.23526678704E+01 -0.10362029360E+03  0.16819659790E+03  0.00000000000E+00 0. -1.
<scales pt_clust_5="13000.00000" pt_clust_6="13000.00000" pt_clust_7="13000.00000" pt_clust_8="13000.00000" pt_clust_9="132.48747"></scales>
<clustering>
<clus scale="   84.227">  5  6 -1 -1</clus>
<clus scale="  101.076">  7  8 -1 -1</clus>
<clus scale="  132.487">  1  9  2 -1</clus>
<clus scale="  223.395">  1  5  2 -1</clus>
<clus scale="  132.487">  1  5  2 -1</clus>
</clustering>
</event>
<event>
 9    1  0.1426358E-005  0.1604516E+03  0.7546771E-02  0.1205491E+00
          3   -1    0    0  502    0 -0.00000000000E+00  0.00000000000E+00  0.84823354035E+03  0.84823354035E+03  0.00000000000E+00 0. -1.
         21   -1    0    0  501  502  0.00000000000E+00 -0.00000000000E+00 -0.70556470744E+02  0.70556470744E+02  0.00000000000E+00 0. -1.
         23    2    1    2    0    0 -0.23479260988E+02 -0.53927157466E+02  0.39456147550E+03  0.40959743063E+03  0.92907928735E+02 0.  0.
         23    2    1    2    0    0  0.18961182206E+02 -0.11564624219E+03  0.97727799022E+02  0.17719597733E+03  0.90078365422E+02 0.  0.
        -11    1    3    3    0    0  0.66907522398E+01 -0.64047139535E+02  0.34310753829E+03  0.34909824560E+03  0.00000000000E+00 0. -1.
         11    1    3    3    0    0 -0.30170013228E+02  0.10119982069E+02  0.51453937212E+02  0.60499185035E+02  0.00000000000E+00 0.  1.
        -11    1    4    4    0    0  0.47167237198E+02 -0.26117034387E+02  0.34022156291E+02  0.63752293047E+02  0.00000000000E+00 0.  1.
         11    1    4    4    0    0 -0.28206054992E+02 -0.89529207804E+02  0.63705642731E+02  0.11344368428E+03  0.00000000000E+00 0. -1.
          3    1    1    2  501    0  0.45180787828E+01  0.16957339966E+03  0.28538779508E+03  0.33199660313E+03  0.00000000000E+00 0. -1.
<scales pt_clust_5="13000.00000" pt_clust_6="13000.00000" pt_clust_7="13000.00000" pt_clust_8="13000.00000" pt_clust_9="132.78037"></scales>
<clustering>
<clus scale="   90.078">  7  8 -1 -1</clus>
<clus scale="   92.908">  5  6 -1 -1</clus>
<clus scale="  109.960">  1  5  2 -1</clus>
<clus scale="  132.780">  2  9  1 -1</clus>
<clus scale="  132.780">  2  5  1 -1</clus>
</clustering>
</event>
<event>
 9    1  0.1426358E-005  0.1921245E+03  0.7546771E-02  0.1156647E+00
         21   -1    0    0  501  502  0.00000000000E+00  0.00000000000E+00  0.17308492878E+03  0.17308492878E+03  0.00000000000E+00 0.  1.
          1   -1    0    0  502    0 -0.00000000000E+00 -0.00000000000E+00 -0.29736237080E+03  0.29736237080E+03  0.00000000000E+00 0. -1.
         23    2    1    2    0    0  0.17509202209E+03  0.13596862585E+01 -0.15598957258E+03  0.25091618036E+03  0.89258713116E+02 0.  0.
         23    2    1    2    0    0 -0.15858274199E+03 -0.17980389757E+02  0.41055036648E+01  0.18332435242E+03  0.90106506742E+02 0.  0.
        -13    1    4    4    0    0 -0.14273957688E+03 -0.54065719463E+01  0.34374157139E+02  0.14691970769E+03  0.00000000000E+00 0.  1.
         13    1    4    4    0    0 -0.15843165110E+02 -0.12573817810E+02 -0.30268653474E+02  0.36404644733E+02  0.00000000000E+00 0. -1.
        -13    1    3    3    0    0  0.17365709225E+03 -0.19647348092E+02 -0.14543246040E+03  0.22736183610E+03  0.00000000000E+00 0. -1.
         13    1    3    3    0    0  0.14349298340E+01  0.21007034350E+02 -0.10557112172E+02  0.23554344254E+02  0.00000000000E+00 0.  1.
          1    1    1    2  501    0 -0.16509280099E+02  0.16620703498E+02  0.27606626892E+02  0.36206766805E+02  0.00000000000E+00 0. -1.
<scales pt_clust_5="13000.00000" pt_clust_6="13000.00000" pt_clust_7="13000.00000" pt_clust_8="13000.00000" pt_clust_9="23.42657"></scales>
<clustering>
<clus scale="   23.427">  1  9  2 -1</clus>
<clus scale="   89.259">  7  8 -1 -1</clus>
<clus scale="   90.107">  5  6 -1 -1</clus>
<clus scale="  191.728">  2  7  1 -1</clus>
<clus scale="   23.427">  1  5  2 -1</clus>
</clustering>
</event>
<event>
 9    1  0.1426358E-005  0.1682397E+03  0.7546771E-02  0.1180084E+00
         21   -1    0    0  501  502  0.00000000000E+00  0.00000000000E+00  0.14541439516E+03  0.14541439516E+03  0.00000000000E+00 0. -1.
         -3   -1    0    0    0  501 -0.00000000000E+00 -0.00000000000E+00 -0.48903585797E+03  0.48903585797E+03  0.00000000000E+00 0.  1.
         23    2    1    2    0    0 -0.11015164868E+03  0.40558683217E+02 -0.13235799665E+03  0.19910035666E+03  0.91345061463E+02 0.  0.
         23    2    1    2    0    0  0.97798425626E+02 -0.15807824177E+03 -0.23745789480E+03  0.31431437749E+03  0.88622872426E+02 0.  0.
        -13    1    4    4    0    0 -0.88934727932E+01 -0.53044023030E+02 -0.85363739598E+02  0.10089464939E+03  0.00000000000E+00 0.  1.
         13    1    4    4    0    0  0.10669189842E+03 -0.10503421874E+03 -0.15209415520E+03  0.21341972810E+03  0.00000000000E+00 0. -1.
        -13    1    3    3    0    0 -0.81306891882E+02  0.35136198618E+02 -0.14272302890E+03  0.16797388517E+03  0.00000000000E+00 0.  1.
         13    1    3    3    0    0 -0.28844756801E+02  0.54224845994E+01  0.10365032247E+02  0.31126471493E+02  0.00000000000E+00 0. -1.
         -3    1    1    2    0  502  0.12353223057E+02  0.11751955855E+03  0.26194428651E+02  0.12103551898E+03  0.00000000000E+00 0.  1.
<scales pt_clust_5="13000.00000" pt_clust_6="13000.00000" pt_clust_7="13000.00000" pt_clust_8="13000.00000" pt_clust_9="118.16704"></scales>
<clustering>
<clus scale="   88.623">  5  6 -1 -1</clus>
<clus scale="   91.345">  7  8 -1 -1</clus>
<clus scale="  118.167">  1  9  2 -1</clus>
<clus scale="  166.777">  1  5  2 -1</clus>
<clus scale="  118.167">  1  5  2 -1</clus>
</clustering>
</event>
<event>
 9    1  0.1426358E-005  0.9850975E+02  0.7546771E-02  0.1284709E+00
         21   -1    0    0  501  502  0.00000000000E+00  0.00000000000E+00  0.15386055993E+03  0.15386055993E+03  0.00000000000E+00 0.  1.
          3   -1    0    0  502    0 -0.00000000000E+00 -0.00000000000E+00 -0.10030621024E+03  0.10030621024E+03  0.00000000000E+00 0. -1.
         23    2    1    2    0    0 -0.30602320991E+02 -0.22976023254E+02 -0.39446153462E+02  0.10760090366E+03  0.92507057839E+02 0.  0.
         23    2    1    2    0    0  0.22759753222E+02  0.42589676435E+01  0.76252687754E+02  0.12025382819E+03  0.90057568438E+02 0.  0.
        -11    1    3    3    0    0 -0.54297025171E+02  0.13605457569E+02 -0.27735010654E+02  0.62470042693E+02  0.00000000000E+00 0. -1.
         11    1    3    3    0    0  0.23694704180E+02 -0.36581480823E+02 -0.11711142808E+02  0.45130860963E+02  0.00000000000E+00 0.  1.
        -13    1    4    4    0    0  0.56313653965E+02  0.13074398198E+02  0.53481789825E+02  0.78755757593E+02  0.00000000000E+00 0.  1.
         13    1    4    4    0    0 -0.33553900743E+02 -0.88154305546E+01  0.22770897929E+02  0.41498070599E+02  0.00000000000E+00 0. -1.
          3    1    1    2  501    0  0.78425677694E+01  0.18717055610E+02  0.16747815397E+02  0.26312038319E+02  0.00000000000E+00 0. -1.
<scales pt_clust_5="13000.00000" pt_clust_6="13000.00000" pt_clust_7="13000.00000" pt_clust_8="13000.00000" pt_clust_9="20.29369"></scales>
<clustering>
<clus scale="   20.294">  1  9  2 -1</clus>
<clus scale="   90.058">  7  8 -1 -1</clus>
<clus scale="   92.507">  5  6 -1 -1</clus>
<clus scale="   96.213">  1  7  2 -1</clus>
<clus scale="   20.294">  1  5  2 -1</clus>
</clustering>
</event>
<event>
 9    1  0.1426358E-005  0.1023797E+03  0.7546771E-02  0.1275722E+00
          3   -1    0    0  502    0 -0.00000000000E+00  0.00000000000E+00  0.30244075771E+02  0.30244075771E+02  0.00000000000E+00 0. -1.
         21   -1    0    0  501  502  0.00000000000E+00 -0.00000000000E+00 -0.49831884243E+03  0.49831884243E+03  0.00000000000E+00 0.  1.
         23    2    1    2    0    0 -0.27963974312E+02  0.17644162684E+02 -0.15544778340E+03  0.18345075461E+03  0.91634413113E+02 0.  0.
         23    2    1    2    0    0  0.46422183805E+02 -0.40048144066E+02 -0.19243033813E+03  0.22145991986E+03  0.90863568496E+02 0.  0.
        -11    1    3    3    0    0 -0.46118842334E+02  0.44776307584E+02 -0.94126810284E+02  0.11398123422E+03  0.00000000000E+00 0. -1.
         11    1    3    3    0    0  0.18154868022E+02 -0.27132144900E+02 -0.61320973119E+02  0.69469520396E+02  0.00000000000E+00 0.  1.
        -13    1    4    4    0    0 -0.27174256832E+02 -0.39206280213E+01 -0.43046007893E+02  0.51056540756E+02  0.00000000000E+00 0. -1.
         13    1    4    4    0    0  0.73596440637E+02 -0.36127516045E+02 -0.14938433024E+03  0.17040337911E+03  0.00000000000E+00 0.  1.
          3    1    1    2  501    0 -0.18458209494E+02  0.22403981383E+02 -0.12019664512E+03  0.12365224372E+03  0.00000000000E+00 0. -1.
<scales pt_clust_5="13000.00000" pt_clust_6="13000.00000" pt_clust_7="13000.00000" pt_clust_8="13000.00000" pt_clust_9="29.02833"></scales>
<clustering>
<clus scale="   29.028">  2  9  1 -1</clus>
<clus scale="   90.864">  7  8 -1 -1</clus>
<clus scale="   91.634">  5  6 -1 -1</clus>
<clus scale="  101.690">  2  7  1 -1</clus>
<clus scale="   29.028">  2  5  1 -1</clus>
</clustering>
</event>
<event>
 9    1  0.1426358E-005  0.1425947E+03  0.7546771E-02  0.1212162E+00
         21   -1    0    0  501  502  0.00000000000E+00  0.00000000000E+00  0.25878586733E+03  0.25878586733E+03  0.00000000000E+00 0. -1.
          2   -1    0    0  502    0 -0.00000000000E+00 -0.00000000000E+00 -0.22562852665E+03  0.22562852665E+03  0.00000000000E+00 0. -1.
         23    2    1    2    0    0 -0.10122551984E+03 -0.67061509733E+02 -0.15541192212E+03  0.21447208416E+03  0.84270738639E+02 0.  0.
         23    2    1    2    0    0  0.41954273735E+02  0.42414537581E+02  0.61994599155E+02  0.12802085504E+03  0.94799023818E+02 0.  0.
        -11    1    3    3    0    0 -0.32642302419E+02 -0.11907258633E+02  0.12643573089E+01  0.34769258186E+02  0.00000000000E+00 0.  1.
         11    1    3    3    0    0 -0.68583217425E+02 -0.55154251099E+02 -0.15667627943E+03  0.17970282597E+03  0.00000000000E+00 0. -1.
        -11    1    4    4    0    0 -0.20008761171E+02  0.45144059444E+02  0.34126012131E+02  0.60024339486E+02  0.00000000000E+00 0. -1.
         11    1    4    4    0    0  0.61963034905E+02 -0.27295218632E+01  0.27868587024E+02  0.67996515550E+02  0.00000000000E+00 0.  1.
          2    1    1    2  501    0  0.59271246109E+02  0.24646972152E+02  0.12657466364E+03  0.14192145478E+03  0.00000000000E+00 0. -1.
<scales pt_clust_5="13000.00000" pt_clust_6="13000.00000" pt_clust_7="13000.00000" pt_clust_8="13000.00000" pt_clust_9="64.19154"></scales>
<clustering>
<clus scale="   64.192">  1  9  2 -1</clus>
<clus scale="   84.271">  5  6 -1 -1</clus>
<clus scale="   94.799">  7  8 -1 -1</clus>
<clus scale="  135.823">  2  5  1 -1</clus>
<clus scale="   64.192">  1  5  2 -1</clus>
</clustering>
</event>
<event>
 9    1  0.1426358E-005  0.1129991E+03  0.7546771E-02  0.1255412E+00
          2   -1    0    0  502    0 -0.00000000000E+00  0.00000000000E+00  0.50388003863E+03  0.50388003863E+03  0.00000000000E+00 0. -1.
         21   -1    0    0  501  502  0.00000000000E+00 -0.00000000000E+00 -0.71416767581E+02  0.71416767581E+02  0.00000000000E+00 0.  1.
         23    2    1    2    0    0 -0.48304021939E+02 -0.41312318364E+02  0.38931095235E+03  0.40507063917E+03  0.92082674341E+02 0.  0.
         23    2    1    2    0    0  0.76860530377E+02  0.31875633835E+02  0.77111119213E+01  0.12374386582E+03  0.91266017327E+02 0.  0.
        -11    1    4    4    0    0  0.85292185205E+02  0.46987229334E+01  0.26744266077E+02  0.89510282215E+02  0.00000000000E+00 0.  1.
         11    1    4    4    0    0 -0.84316548279E+01  0.27176910902E+02 -0.19033154156E+02  0.34233583604E+02  0.00000000000E+00 0. -1.
        -11    1    3    3    0    0 -0.66394206402E+02 -0.10511687695E+02  0.32122875396E+03  0.32818683489E+03  0.00000000000E+00 0. -1.
         11    1    3    3    0    0  0.18090184463E+02 -0.30800630668E+02  0.68082198387E+02  0.76883804281E+02  0.00000000000E+00 0.  1.
          2    1    1    2  501    0 -0.28556508438E+02  0.94366845285E+01  0.35441206782E+02  0.46482301225E+02  0.00000000000E+00 0. -1.
<scales pt_clust_5="13000.00000" pt_clust_6="13000.00000" pt_clust_7="13000.00000" pt_clust_8="13000.00000" pt_clust_9="30.07534"></scales>
<clustering>
<clus scale="   30.075">  2  9  1 -1</clus>
<clus scale="   91.266">  5  6 -1 -1</clus>
<clus scale="   92.083">  7  8 -1 -1</clus>
<clus scale="  112.335">  2  5  1 -1</clus>
<clus scale="   30.075">  2  5  1 -1</clus>
</clustering>
</event>
<event>
 9    1  0.1426358E-005  0.1021243E+03  0.7546771E-02  0.1276059E+00
          1   -1    0    0  502    0 -0.00000000000E+00  0.00000000000E+00  0.15035847134E+03  0.15035847134E+03  0.00000000000E+00 0. -1.
         21   -1    0    0  501  502  0.00000000000E+00 -0.00000000000E+00 -0.18192066682E+03  0.18192066682E+03  0.00000000000E+00 0. -1.
         23    2    1    2    0    0  0.25054389290E+02 -0.57183036779E+02  0.49317432579E+02  0.12137908512E+03  0.91668157121E+02 0.  0.
         23    2    1    2    0    0 -0.19639990606E+02  0.20468377050E+02  0.24901948873E+02  0.98797314582E+02  0.91302347291E+02 0.  0.
        -11    1    4    4    0    0  0.25385012392E+02  0.34879086064E+02  0.27986720215E+02  0.51421843677E+02  0.00000000000E+00 0. -1.
         11    1    4    4    0    0 -0.45025002998E+02 -0.14410709014E+02 -0.30847713417E+01  0.47375470905E+02  0.00000000000E+00 0.  1.
        -13    1    3    3    0    0  0.13621051562E+02 -0.14660176013E+02  0.69946829828E+02  0.72753094844E+02  0.00000000000E+00 0. -1.
         13    1    3    3    0    0  0.11433337728E+02 -0.42522860766E+02 -0.20629397249E+02  0.48625990274E+02  0.00000000000E+00 0.  1.
          1    1    1    2  501    0 -0.54143986842E+01  0.36714659729E+02 -0.10578157693E+03  0.11210273846E+03  0.00000000000E+00 0. -1.
<scales pt_clust_5="13000.00000" pt_clust_6="13000.00000" pt_clust_7="13000.00000" pt_clust_8="13000.00000" pt_clust_9="37.11175"></scales>
<clustering>
<clus scale="   37.112">  2  9  1 -1</clus>
<clus scale="   91.302">  5  6 -1 -1</clus>
<clus scale="   91.668">  7  8 -1 -1</clus>
<clus scale="  101.796">  2  5  1 -1</clus>
<clus scale="   37.112">  2  5  1 -1</clus>
</clustering>
</event>
<event>
 9    1  0.1426358E-005  0.9580632E+02  0.7546771E-02  0.1290300E+00
         21   -1    0    0  501  502  0.00000000000E+00  0.00000000000E+00  0.80057991027E+02  0.80057991027E+02  0.00000000000E+00 0. -1.
         -1   -1    0    0    0  501 -0.00000000000E+00 -0.00000000000E+00 -0.27836283747E+03  0.27836283747E+03  0.00000000000E+00 0.  1.
         23    2    1    2    0    0  0.12063367078E+02  0.22598924774E+01 -0.13367482998E+03  0.16296812667E+03  0.92406808198E+02 0.  0.
         23    2    1    2    0    0 -0.21856774709E+02 -0.69316739805E+02 -0.47504174200E+02  0.12555401744E+03  0.90689777321E+02 0.  0.
        -11    1    4    4    0    0 -0.40084853902E+02 -0.34021734459E+02 -0.63752252270E+02  0.82635486308E+02  0.00000000000E+00 0.  1.
         11    1    4    4    0    0  0.18228079192E+02 -0.35295005346E+02  0.16248078069E+02  0.42918531130E+02  0.00000000000E+00 0. -1.
        -11    1    3    3    0    0  0.40330047059E+02 -0.27145371853E+02 -0.49226853063E+02  0.69185742543E+02  0.00000000000E+00 0. -1.
         11    1    3    3    0    0 -0.28266679981E+02  0.29405264330E+02 -0.84447976914E+02  0.93782384126E+02  0.00000000000E+00 0.  1.
         -1    1    1    2    0  502  0.97934076315E+01  0.67056847327E+02 -0.17125842270E+02  0.69898684394E+02  0.00000000000E+00 0.  1.
<scales pt_clust_5="13000.00000" pt_clust_6="13000.00000" pt_clust_7="13000.00000" pt_clust_8="13000.00000" pt_clust_9="67.76822"></scales>
<clustering>
<clus scale="   67.768">  1  9  2 -1</clus>
<clus scale="   90.690">  5  6 -1 -1</clus>
<clus scale="   92.407">  7  8 -1 -1</clus>
<clus scale="   94.151">  1  5  2 -1</clus>
<clus scale="   67.768">  1  5  2 -1</clus>
</clustering>
</event>
<event>
 9    1  0.1426358E-005  0.1088275E+03  0.7546771E-02  0.1262844E+00
          1   -1    0    0  502    0 -0.00000000000E+00  0.00000000000E+00  0.10114510004E+03  0.10114510004E+03  0.00000000000E+00 0. -1.
         21   -1    0    0  501  502  0.00000000000E+00 -0.00000000000E+00 -0.32079936540E+03  0.32079936540E+03  0.00000000000E+00 0. -1.
         23    2    1    2    0    0  0.51308400570E+02  0.11293564605E+02  0.41578269463E+02  0.11433716651E+03  0.92650626463E+02 0.  0.
         23    2    1    2    0    0 -0.77874763135E+02 -0.35920468151E+02 -0.19823581075E+03  0.23493788829E+03  0.92431682470E+02 0.  0.
        -11    1    4    4    0    0 -0.65065614771E+02 -0.59133767056E+02 -0.99851579189E+02  0.13304388185E+03  0.00000000000E+00 0. -1.
         11    1    4    4    0    0 -0.12809148364E+02  0.23213298904E+02 -0.98384231562E+02  0.10189400644E+03  0.00000000000E+00 0.  1.
        -13    1    3    3    0    0 -0.24391429955E+02  0.11304472170E+02 -0.20557148506E+01  0.26962175540E+02  0.00000000000E+00 0.  1.
         13    1    3    3    0    0  0.75699830525E+02 -0.10907564830E-01  0.43633984313E+02  0.87374990973E+02  0.00000000000E+00 0. -1.
          1    1    1    2  501    0  0.26566362565E+02  0.24626903546E+02 -0.62996724073E+02  0.72669410636E+02  0.00000000000E+00 0. -1.
<scales pt_clust_5="13000.00000" pt_clust_6="13000.00000" pt_clust_7="13000.00000" pt_clust_8="13000.00000" pt_clust_9="36.22507"></scales>
<clustering>
<clus scale="   36.225">  2  9  1 -1</clus>
<clus scale="   92.432">  5  6 -1 -1</clus>
<clus scale="   92.651">  7  8 -1 -1</clus>
<clus scale="  108.641">  2  5  1 -1</clus>
<clus scale="   36.225">  2  5  1 -1</clus>
</clustering>
</event>
<event>
 9    1  0.1426358E-005  0.2137711E+03  0.7546771E-02  0.1161168E+00
          1   -1    0    0  502    0 -0.00000000000E+00  0.00000000000E+00  0.98140317414E+03  0.98140317414E+03  0.00000000000E+00 0. -1.
         21   -1    0    0  501  502  0.00000000000E+00 -0.00000000000E+00 -0.93095455985E+02  0.93095455985E+02  0.00000000000E+00 0. -1.
         23    2    1    2    0    0  0.89810711985E+01  0.83125548900E+02  0.34049376488E+03  0.36280125579E+03  0.93264305937E+02 0.  0.
         23    2    1    2    0    0  0.16183796209E+03 -0.12844420892E+03  0.13535532031E+03  0.26297134769E+03  0.90240934122E+02 0.  0.
        -11    1    3    3    0    0 -0.39323407098E+02  0.48166449977E+02  0.13136433878E+03  0.14533728617E+03  0.00000000000E+00 0. -1.
         11    1    3    3    0    0  0.48304478296E+02  0.34959098922E+02  0.20912942610E+03  0.21746396962E+03  0.00000000000E+00 0.  1.
        -13    1    4    4    0    0  0.15874800182E+03 -0.89825754936E+02  0.90230924293E+02  0.20349745461E+03  0.00000000000E+00 0. -1.
         13    1    4    4    0    0  0.30899602649E+01 -0.38618453985E+02  0.45124396012E+02  0.59473893080E+02  0.00000000000E+00 0.  1.
          1    1    1    2  501    0 -0.17081903329E+03  0.45318660021E+02  0.41245863297E+03  0.44872602664E+03  0.00000000000E+00 0. -1.
<scales pt_clust_5="13000.00000" pt_clust_6="13000.00000" pt_clust_7="13000.00000" pt_clust_8="13000.00000" pt_clust_9="193.79031"></scales>
<clustering>
<clus scale="   90.241">  7  8 -1 -1</clus>
<clus scale="   93.264">  5  6 -1 -1</clus>
<clus scale="  125.255">  1  5  2 -1</clus>
<clus scale="  193.790">  2  9  1 -1</clus>
<clus scale="  193.790">  2  5  1 -1</clus>
</clustering>
</event>
<event>
 9    1  0.1426358E-005  0.2181266E+03  0.7546771E-02  0.1136079E+00
         21   -1    0    0  501  502  0.00000000000E+00  0.00000000000E+00  0.91992434108E+02  0.91992434108E+02  0.00000000000E+00 0. -1.
          1   -1    0    0  502    0 -0.00000000000E+00 -0.00000000000E+00 -0.95593983913E+03  0.95593983913E+03  0.00000000000E+00 0. -1.
         23    2    1    2    0    0 -0.13321794432E+03 -0.15195015588E+03 -0.70309603134E+03  0.73719751988E+03  0.90996062931E+02 0.  0.
         23    2    1    2    0    0  0.67957257248E+02  0.15918089475E+03 -0.12505173394E+03  0.23594935995E+03  0.10038634484E+03 0.  0.
        -11    1    3    3    0    0 -0.19250861650E+02 -0.27110547794E+02 -0.35946894369E+02  0.48966893824E+02  0.00000000000E+00 0.  1.
         11    1    3    3    0    0 -0.11396708267E+03 -0.12483960808E+03 -0.66714913697E+03  0.68823062605E+03  0.00000000000E+00 0. -1.
        -13    1    4    4    0    0  0.87913115594E+02  0.13467338728E+03 -0.12603519200E+03  0.20432940748E+03  0.00000000000E+00 0.  1.
         13    1    4    4    0    0 -0.19955858346E+02  0.24507507470E+02  0.98345805902E+00  0.31619952474E+02  0.00000000000E+00 0. -1.
          1    1    1    2  501    0  0.65260687075E+02 -0.72307388776E+01 -0.35799639741E+02  0.74785393412E+02  0.00000000000E+00 0. -1.
<scales pt_clust_5="13000.00000" pt_clust_6="13000.00000" pt_clust_7="13000.00000" pt_clust_8="13000.00000" pt_clust_9="65.66004"></scales>
<clustering>
<clus scale="   65.660">  1  9  2 -1</clus>
<clus scale="   90.996">  5  6 -1 -1</clus>
<clus scale="  100.386">  7  8 -1 -1</clus>
<clus scale="  213.967">  2  5  1 -1</clus>
<clus scale="   65.660">  1  5  2 -1</clus>
</clustering>
</event>
<event>
 9    1  0.1426358E-005  0.1384078E+03  0.7546771E-02  0.1229924E+00
         21   -1    0    0  501  502  0.00000000000E+00  0.00000000000E+00  0.73400315867E+03  0.73400315867E+03  0.00000000000E+00 0. -1.
          1   -1    0    0  502    0 -0.00000000000E+00 -0.00000000000E+00 -0.19454475441E+03  0.19454475441E+03  0.00000000000E+00 0. -1.
         23    2    1    2    0    0 -0.10957376558E+02  0.22439741862E+02 -0.21049731828E+02  0.10449709429E+03  0.99262003753E+02 0.  0.
         23    2    1    2    0    0  0.11380049033E+03 -0.41039268445E+02 -0.82928554364E+02  0.17218164245E+03  0.90192015798E+02 0.  0.
        -13    1    4    4    0    0  0.35905990611E+02  0.28984270265E+02 -0.26218905501E+02  0.53073148486E+02  0.00000000000E+00 0.  1.
         13    1    4    4    0    0  0.77894499724E+02 -0.70023538710E+02 -0.56709648863E+02  0.11910849397E+03  0.00000000000E+00 0. -1.
        -13    1    3    3    0    0 -0.26661087567E+02 -0.33004875511E+02  0.18979222499E+01  0.42470430968E+02  0.00000000000E+00 0.  1.
         13    1    3    3    0    0  0.15703711009E+02  0.55444617373E+02 -0.22947654078E+02  0.62026663322E+02  0.00000000000E+00 0. -1.
          1    1    1    2  501    0 -0.10284311378E+03  0.18599526583E+02  0.64343669045E+03  0.65186917634E+03  0.00000000000E+00 0. -1.
<scales pt_clust_5="13000.00000" pt_clust_6="13000.00000" pt_clust_7="13000.00000" pt_clust_8="13000.00000" pt_clust_9="104.98623"></scales>
<clustering>
<clus scale="   90.192">  5  6 -1 -1</clus>
<clus scale="   99.262">  7  8 -1 -1</clus>
<clus scale="  102.355">  2  7  1 -1</clus>
<clus scale="  104.986">  1  9  2 -1</clus>
<clus scale="  104.986">  1  5  2 -1</clus>
</clustering>
</event>
<event>
 9    1  0.1426358E-005  0.1016329E+03  0.7546771E-02  0.1278949E+00
          2   -1    0    0  502    0 -0.00000000000E+00  0.00000000000E+00  0.24873702865E+03  0.24873702865E+03  0.00000000000E+00 0. -1.
         21   -1    0    0  501  502  0.00000000000E+00 -0.00000000000E+00 -0.60623827715E+02  0.60623827715E+02  0.00000000000E+00 0.  1.
         23    2    1    2    0    0 -0.52102641764E+02 -0.19981356717E+02  0.12451267432E+03  0.16457268924E+03  0.92015346979E+02 0.  0.
         23    2    1    2    0    0  0.14898667805E+02  0.24878903154E+02  0.41651496970E+02  0.10131539931E+03  0.87687130261E+02 0.  0.
        -11    1    3    3    0    0  0.17761489551E+02  0.13287423985E+02  0.59037330040E+01  0.22953871365E+02  0.00000000000E+00 0.  1.
         11    1    3    3    0    0 -0.69864131316E+02 -0.33268780702E+02  0.11860894132E+03  0.14161881787E+03  0.00000000000E+00 0. -1.
        -11    1    4    4    0    0 -0.16454168386E+02  0.43216731532E+02  0.45395557357E+02  0.64801096976E+02  0.00000000000E+00 0. -1.
         11    1    4    4    0    0  0.31352836191E+02 -0.18337828378E+02 -0.37440603868E+01  0.36514302335E+02  0.00000000000E+00 0.  1.
          2    1    1    2  501    0  0.37203973960E+02 -0.48975464371E+01  0.21949029638E+02  0.43472767816E+02  0.00000000000E+00 0. -1.
<scales pt_clust_5="13000.00000" pt_clust_6="13000.00000" pt_clust_7="13000.00000" pt_clust_8="13000.00000" pt_clust_9="37.52495"></scales>
<clustering>
<clus scale="   37.525">  2  9  1 -1</clus>
<clus scale="   87.687">  7  8 -1 -1</clus>
<clus scale="   92.015">  5  6 -1 -1</clus>
<clus scale="   97.732">  2  7  1 -1</clus>
<clus scale="   37.525">  2  5  1 -1</clus>
</clustering>
</event>
<event>
 9    1  0.1426358E-005  0.9891365E+02  0.7546771E-02  0.1283027E+00
         21   -1    0    0  501  502  0.00000000000E+00  0.00000000000E+00  0.25055510945E+03  0.25055510945E+03  0.00000000000E+00 0.  1.
         -1   -1    0    0    0  501 -0.00000000000E+00 -0.00000000000E+00 -0.11135700713E+03  0.11135700713E+03  0.00000000000E+00 0.  1.
         23    2    1    2    0    0 -0.24013658344E+02 -0.17698971927E+02 -0.40032215431E+02  0.10375031382E+03  0.90948556618E+02 0.  0.
         23    2    1    2    0    0  0.75564555939E+02 -0.12879819574E+02  0.85952356535E+02  0.14728648728E+03  0.91812906916E+02 0.  0.
        -11    1    3    3    0    0  0.22748922026E+02  0.15220170408E+02  0.85896002807E+01  0.28687075026E+02  0.00000000000E+00 0.  1.
         11    1    3    3    0    0 -0.46762580370E+02 -0.32919142335E+02 -0.48621815712E+02  0.75063238793E+02  0.00000000000E+00 0. -1.
        -11    1    4    4    0    0  0.65947525346E+02 -0.39884714174E+02  0.26875610079E+02  0.81622086111E+02  0.00000000000E+00 0.  1.
         11    1    4    4    0    0  0.96170305931E+01  0.27004894600E+02  0.59076746456E+02  0.65664401174E+02  0.00000000000E+00 0. -1.
         -1    1    1    2    0  502 -0.51550897595E+02  0.30578791502E+02  0.93277961220E+02  0.11087531548E+03  0.00000000000E+00 0.  1.
<scales pt_clust_5="13000.00000" pt_clust_6="13000.00000" pt_clust_7="13000.00000" pt_clust_8="13000.00000" pt_clust_9="59.93795"></scales>
<clustering>
<clus scale="   59.938">  1  9  2 -1</clus>
<clus scale="   90.949">  5  6 -1 -1</clus>
<clus scale="   91.813">  7  8 -1 -1</clus>
<clus scale="   98.112">  2  5  1 -1</clus>
<clus scale="   59.938">  1  5  2 -1</clus>
</clustering>
</event>
<event>
 9    1  0.1426358E-005  0.1383373E+03  0.7546771E-02  0.1216569E+00
         -3   -1    0    0    0  501 -0.00000000000E+00  0.00000000000E+00  0.11660116951E+04  0.11660116951E+04  0.00000000000E+00 0.  1.
         21   -1    0    0  501  502  0.00000000000E+00 -0.00000000000E+00 -0.29311711822E+02  0.29311711822E+02  0.00000000000E+00 0.  1.
         23    2    1    2    0    0  0.94648750968E+02 -0.31692781875E+02  0.42686961191E+03  0.44850406049E+03  0.94738631094E+02 0.  0.
         23    2    1    2    0    0 -0.10617704111E+03 -0.49985835625E+02  0.49435491055E+03  0.51609446211E+03  0.90523855491E+02 0.  0.
        -11    1    3    3    0    0  0.59751569420E+02 -0.65335159357E+02  0.29540391112E+03  0.30838677631E+03  0.00000000000E+00 0.  1.
         11    1    3    3    0    0  0.34897181548E+02  0.33642377482E+02  0.13146570079E+03  0.14011728419E+03  0.00000000000E+00 0. -1.
        -13    1    4    4    0    0 -0.87575894164E+02 -0.75947337905E+02  0.37222006453E+03  0.38985293613E+03  0.00000000000E+00 0.  1.
         13    1    4    4    0    0 -0.18601146949E+02  0.25961502280E+02  0.12213484602E+03  0.12624152598E+03  0.00000000000E+00 0. -1.
         -3    1    1    2    0  502  0.11528290145E+02  0.81678617500E+02  0.21547546081E+03  0.23072488431E+03  0.00000000000E+00 0.  1.
<scales pt_clust_5="13000.00000" pt_clust_6="13000.00000" pt_clust_7="13000.00000" pt_clust_8="13000.00000" pt_clust_9="82.48817"></scales>
<clustering>
<clus scale="   82.488">  2  9  1 -1</clus>
<clus scale="   90.524">  7  8 -1 -1</clus>
<clus scale="   94.739">  5  6 -1 -1</clus>
<clus scale="  135.486">  2  7  1 -1</clus>
<clus scale="   82.488">  2  5  1 -1</clus>
</clustering>
</event>
<event>
 9    1  0.1426358E-005  0.1066073E+03  0.7546771E-02  0.1267897E+00
          1   -1    0    0  502    0 -0.00000000000E+00  0.00000000000E+00  0.26659755191E+03  0.26659755191E+03  0.00000000000E+00 0. -1.
         21   -1    0    0  501  502  0.00000000000E+00 -0.00000000000E+00 -0.11164603576E+03  0.11164603576E+03  0.00000000000E+00 0.  1.
         23    2    1    2    0    0 -0.95953653647E+01 -0.45802904546E+02  0.19509366444E+03  0.22264495290E+03  0.96536314640E+02 0.  0.
         23    2    1    2    0    0  0.26046332474E+02  0.10117796102E+02 -0.44999648802E+01  0.10254746588E+03  0.98564455259E+02 0.  0.
        -11    1    3    3    0    0 -0.49158102158E+02 -0.51809313903E+01  0.10719901162E+03  0.11804655501E+03  0.00000000000E+00 0. -1.
         11    1    3    3    0    0  0.39562736793E+02 -0.40621973156E+02  0.87894652820E+02  0.10459839788E+03  0.00000000000E+00 0.  1.
        -11    1    4    4    0    0  0.87783435760E+01  0.54134075753E+02 -0.64863347241E+01  0.55223455268E+02  0.00000000000E+00 0.  1.
         11    1    4    4    0    0  0.17267988898E+02 -0.44016279651E+02  0.19863698439E+01  0.47324010609E+02  0.00000000000E+00 0. -1.
          1    1    1    2  501    0 -0.16450967109E+02  0.35685108444E+02 -0.35642183404E+02  0.53051168897E+02  0.00000000000E+00 0. -1.
<scales pt_clust_5="13000.00000" pt_clust_6="13000.00000" pt_clust_7="13000.00000" pt_clust_8="13000.00000" pt_clust_9="39.29455"></scales>
<clustering>
<clus scale="   39.295">  2  9  1 -1</clus>
<clus scale="   96.536">  5  6 -1 -1</clus>
<clus scale="   98.564">  7  8 -1 -1</clus>
<clus scale="  104.735">  1  5  2 -1</clus>
<clus scale="   39.295">  2  5  1 -1</clus>
</clustering>
</event>
<event>
 9    1  0.1426358E-005  0.9526989E+02  0.7546771E-02  0.1290957E+00
         21   -1    0    0  501  502  0.00000000000E+00  0.00000000000E+00  0.32169273386E+02  0.32169273386E+02  0.00000000000E+00 0. -1.
          1   -1    0    0  502    0 -0.00000000000E+00 -0.00000000000E+00 -0.63699246689E+03  0.63699246689E+03  0.00000000000E+00 0. -1.
         23    2    1    2    0    0  0.34107799923E+02 -0.25259854201E+02 -0.40403797818E+03  0.41648593798E+03  0.91719389857E+02 0.  0.
         23    2    1    2    0    0 -0.67832831428E+00 -0.20258865481E+02 -0.15060097119E+03  0.17712488057E+03  0.91003785828E+02 0.  0.
        -13    1    3    3    0    0 -0.17992072434E+02  0.12652382909E+02 -0.31515548293E+02  0.38432112198E+02  0.00000000000E+00 0.  1.
         13    1    3    3    0    0  0.52099872357E+02 -0.37912237110E+02 -0.37252242989E+03  0.37805382578E+03  0.00000000000E+00 0. -1.
        -13    1    4    4    0    0 -0.65977561694E+01  0.33340108509E+02 -0.31304241099E+02  0.46206587546E+02  0.00000000000E+00 0.  1.
         13    1    4    4    0    0  0.59194278551E+01 -0.53598973990E+02 -0.11929673009E+03  0.13091829303E+03  0.00000000000E+00 0. -1.
          1    1    1    2  501    0 -0.33429471609E+02  0.45518719682E+02 -0.50184244140E+02  0.75550921725E+02  0.00000000000E+00 0. -1.
<scales pt_clust_5="13000.00000" pt_clust_6="13000.00000" pt_clust_7="13000.00000" pt_clust_8="13000.00000" pt_clust_9="56.47551"></scales>
<clustering>
<clus scale="   56.476">  1  9  2 -1</clus>
<clus scale="   91.004">  7  8 -1 -1</clus>
<clus scale="   91.719">  5  6 -1 -1</clus>
<clus scale="   94.581">  1  7  2 -1</clus>
<clus scale="   56.476">  1  5  2 -1</clus>
</clustering>
</event>
<event>
 9    1  0.1426358E-005  0.1215410E+03  0.7546771E-02  0.1242048E+00
          1   -1    0    0  502    0 -0.00000000000E+00  0.00000000000E+00  0.24260100044E+03  0.24260100044E+03  0.00000000000E+00 0. -1.
         21   -1    0    0  501  502  0.00000000000E+00 -0.00000000000E+00 -0.20100669075E+03  0.20100669075E+03  0.00000000000E+00 0. -1.
         23    2    1    2    0    0  0.63977444732E+02 -0.54724614887E+02  0.18660328326E+03  0.22487804657E+03  0.93066930730E+02 0.  0.
         23    2    1    2    0    0 -0.56578201407E+02  0.96499288833E+01 -0.57523869069E+02  0.12003760020E+03  0.88350528848E+02 0.  0.
        -13    1    4    4    0    0  0.13606969613E+02  0.29053461356E+02 -0.12540972935E+02  0.34446033748E+02  0.00000000000E+00 0.  1.
         13    1    4    4    0    0 -0.70185171020E+02 -0.19403532473E+02 -0.44982896134E+02  0.85591566454E+02  0.00000000000E+00 0. -1.
        -13    1    3    3    0    0  0.34587017399E+02  0.19813795233E+02  0.33466002477E+02  0.52046340657E+02  0.00000000000E+00 0.  1.
         13    1    3    3    0    0  0.29390427334E+02 -0.74538410119E+02  0.15313728079E+03  0.17283170591E+03  0.00000000000E+00 0. -1.
          1    1    1    2  501    0 -0.73992433255E+01  0.45074686003E+02 -0.87485104506E+02  0.98692044413E+02  0.00000000000E+00 0. -1.
<scales pt_clust_5="13000.00000" pt_clust_6="13000.00000" pt_clust_7="13000.00000" pt_clust_8="13000.00000" pt_clust_9="45.67796"></scales>
<clustering>
<clus scale="   45.678">  2  9  1 -1</clus>
<clus scale="   88.351">  5  6 -1 -1</clus>
<clus scale="   93.067">  7  8 -1 -1</clus>
<clus scale="  117.969">  2  5  1 -1</clus>
<clus scale="   45.678">  2  5  1 -1</clus>
</clustering>
</event>
<event>
 9    1  0.1426358E-005  0.9302579E+02  0.7546771E-02  0.1296241E+00
          2   -1    0    0  502    0 -0.00000000000E+00  0.00000000000E+00  0.25595614222E+02  0.25595614222E+02  0.00000000000E+00 0. -1.
         21   -1    0    0  501  502  0.00000000000E+00 -0.00000000000E+00 -0.54966021880E+03  0.54966021880E+03  0.00000000000E+00 0. -1.
         23    2    1    2    0    0  0.75805314679E+00  0.73893056900E+01 -0.16016476021E+03  0.18399919586E+03  0.90265038523E+02 0.  0.
         23    2    1    2    0    0  0.20490901616E+02 -0.35068498980E+02 -0.31973946143E+03  0.33497346703E+03  0.91237184006E+02 0.  0.
        -11    1    3    3    0    0 -0.29665462208E+02  0.38160864221E+00 -0.14725710739E+03  0.15021598100E+03  0.00000000000E+00 0.  1.
         11    1    3    3    0    0  0.30423515355E+02  0.70076970478E+01 -0.12907652827E+02  0.33783214855E+02  0.00000000000E+00 0. -1.
        -13    1    4    4    0    0  0.34116968610E+02  0.17066187849E+02 -0.72431396841E+02  0.81862870480E+02  0.00000000000E+00 0.  1.
         13    1    4    4    0    0 -0.13626066994E+02 -0.52134686830E+02 -0.24730806459E+03  0.25311059655E+03  0.00000000000E+00 0. -1.
          2    1    1    2  501    0 -0.21248954762E+02  0.27679193290E+02 -0.44160382930E+02  0.56283170133E+02  0.00000000000E+00 0. -1.
<scales pt_clust_5="13000.00000" pt_clust_6="13000.00000" pt_clust_7="13000.00000" pt_clust_8="13000.00000" pt_clust_9="34.89494"></scales>
<clustering>
<clus scale="   34.895">  2  9  1 -1</clus>
<clus scale="   90.265">  5  6 -1 -1</clus>
<clus scale="   91.237">  7  8 -1 -1</clus>
<clus scale="   92.073">  1  5  2 -1</clus>
<clus scale="   34.895">  2  5  1 -1</clus>
</clustering>
</event>
<event>
 9    1  0.1426358E-005  0.1505482E+03  0.7546771E-02  0.1201514E+00
         21   -1    0    0  501  502  0.00000000000E+00  0.00000000000E+00  0.36766799546E+02  0.36766799546E+02  0.00000000000E+00 0.  1.
          2   -1    0    0  502    0 -0.00000000000E+00 -0.00000000000E+00 -0.89483761756E+03  0.89483761756E+03  0.00000000000E+00 0. -1.
         23    2    1    2    0    0  0.44084518055E+02 -0.91679673950E+02 -0.33364568391E+03  0.36035434044E+03  0.90483152747E+02 0.  0.
         23    2    1    2    0    0 -0.96242424573E+02  0.87390092103E+02 -0.46046099931E+03  0.48860470012E+03  0.99048415489E+02 0.  0.
        -13    1    4    4    0    0  0.29030318359E+01  0.55518645697E+02 -0.11405792289E+03  0.12688560749E+03  0.00000000000E+00 0.  1.
         13    1    4    4    0    0 -0.99145456409E+02  0.31871446406E+02 -0.34640307641E+03  0.36171909263E+03  0.00000000000E+00 0. -1.
        -13    1    3    3    0    0  0.45755296815E+02 -0.13900891080E+01 -0.10703327503E+03  0.11641134609E+03  0.00000000000E+00 0.  1.
         13    1    3    3    0    0 -0.16707787603E+01 -0.90289584842E+02 -0.22661240889E+03  0.24394299435E+03  0.00000000000E+00 0. -1.
          2    1    1    2  501    0  0.52157906518E+02  0.42895818469E+01 -0.63964134790E+02  0.82645376544E+02  0.00000000000E+00 0. -1.
<scales pt_clust_5="13000.00000" pt_clust_6="13000.00000" pt_clust_7="13000.00000" pt_clust_8="13000.00000" pt_clust_9="52.33400"></scales>
<clustering>
<clus scale="   52.334">  1  9  2 -1</clus>
<clus scale="   90.483">  7  8 -1 -1</clus>
<clus scale="   99.048">  5  6 -1 -1</clus>
<clus scale="  145.056">  2  7  1 -1</clus>
<clus scale="   52.334">  1  5  2 -1</clus>
</clustering>
</event>
<event>
 9    1  0.1426358E-005  0.1706408E+03  0.7546771E-02  0.1178242E+00
         21   -1    0    0  501  502  0.00000000000E+00  0.00000000000E+00  0.70633218369E+02  0.70633218369E+02  0.00000000000E+00 0. -1.
          1   -1    0    0  502    0 -0.00000000000E+00 -0.00000000000E+00 -0.12266448880E+04  0.12266448880E+04  0.00000000000E+00 0. -1.
         23    2    1    2    0    0  0.99078798807E+01 -0.98550261572E+02 -0.34223268606E+03  0.36891398202E+03  0.95728755259E+02 0.  0.
         23    2    1    2    0    0 -0.87048262981E+02  0.16670036274E+03 -0.79753829993E+03  0.82415839127E+03  0.88336306392E+02 0.  0.
        -11    1    3    3    0    0 -0.23509066045E+02  0.19194184896E+01 -0.24523195990E+02  0.34025688754E+02  0.00000000000E+00 0. -1.
         11    1    3    3    0    0  0.33416945926E+02 -0.10046968006E+03 -0.31770949007E+03  0.33488829326E+03  0.00000000000E+00 0.  1.
        -13    1    4    4    0    0 -0.33997195785E+02  0.68845199393E+01 -0.81281779584E+02  0.88373828865E+02  0.00000000000E+00 0.  1.
         13    1    4    4    0    0 -0.53051067196E+02  0.15981584280E+03 -0.71625652034E+03  0.73578456241E+03  0.00000000000E+00 0. -1.
          1    1    1    2  501    0  0.77140383100E+02 -0.68150101169E+02 -0.16240683607E+02  0.10420573304E+03  0.00000000000E+00 0. -1.
<scales pt_clust_5="13000.00000" pt_clust_6="13000.00000" pt_clust_7="13000.00000" pt_clust_8="13000.00000" pt_clust_9="102.93238"></scales>
<clustering>
<clus scale="   88.336">  7  8 -1 -1</clus>
<clus scale="   95.729">  5  6 -1 -1</clus>
<clus scale="  102.932">  1  9  2 -1</clus>
<clus scale="  166.606">  1  7  2 -1</clus>
<clus scale="  102.932">  1  5  2 -1</clus>
</clustering>
</event>
<event>
 9    1  0.1426358E-005  0.9213107E+02  0.7546771E-02  0.1299447E+00
         21   -1    0    0  501  502  0.00000000000E+00  0.00000000000E+00  0.34747373489E+02  0.34747373489E+02  0.00000000000E+00 0. -1.
         -2   -1    0    0    0  501 -0.00000000000E+00 -0.00000000000E+00 -0.39288296879E+03  0.39288296879E+03  0.00000000000E+00 0.  1.
         23    2    1    2    0    0 -0.80456618741E+01  0.94868465406E+01 -0.23030510918E+03  0.24801909623E+03  0.91204692006E+02 0.  0.
         23    2    1    2    0    0 -0.17634049655E+02 -0.19150743517E+02 -0.11959903287E+03  0.15096521123E+03  0.88367729702E+02 0.  0.
        -11    1    3    3    0    0 -0.21178866339E+01  0.50527112220E+02 -0.12848585811E+03  0.13808001393E+03  0.00000000000E+00 0.  1.
         11    1    3    3    0    0 -0.59277752403E+01 -0.41040265679E+02 -0.10181925108E+03  0.10993908230E+03  0.00000000000E+00 0. -1.
        -13    1    4    4    0    0 -0.34352870515E+02  0.25613983204E+02 -0.70135435853E+02  0.82189872920E+02  0.00000000000E+00 0.  1.
         13    1    4    4    0    0  0.16718820860E+02 -0.44764726721E+02 -0.49463597016E+02  0.68775338307E+02  0.00000000000E+00 0. -1.
         -2    1    1    2    0  502  0.25679711529E+02  0.96638969764E+01 -0.82314532519E+01  0.28646034832E+02  0.00000000000E+00 0.  1.
<scales pt_clust_5="13000.00000" pt_clust_6="13000.00000" pt_clust_7="13000.00000" pt_clust_8="13000.00000" pt_clust_9="27.43790"></scales>
<clustering>
<clus scale="   27.438">  1  9  2 -1</clus>
<clus scale="   88.368">  7  8 -1 -1</clus>
<clus scale="   89.324">  1  7  2 -1</clus>
<clus scale="   91.205">  5  6 -1 -1</clus>
<clus scale="   27.438">  1  5  2 -1</clus>
</clustering>
</event>
<event>
 9    1  0.1426358E-005  0.1029897E+03  0.7546771E-02  0.1276379E+00
         -1   -1    0    0    0  501 -0.00000000000E+00  0.00000000000E+00  0.17434599058E+03  0.17434599058E+03  0.00000000000E+00 0.  1.
         21   -1    0    0  501  502  0.00000000000E+00 -0.00000000000E+00 -0.28815756943E+03  0.28815756943E+03  0.00000000000E+00 0.  1.
         23    2    1    2    0    0 -0.47221160382E+02  0.17843564103E+00  0.13190209100E+03  0.16503808552E+03  0.87232667243E+02 0.  0.
         23    2    1    2    0    0  0.34170747232E+02  0.45979662010E+02 -0.11434644950E+03  0.15761473319E+03  0.92116905717E+02 0.  0.
        -11    1    4    4    0    0 -0.16660085680E+02 -0.17268519991E+02 -0.11487624633E+02  0.26603115555E+02  0.00000000000E+00 0. -1.
         11    1    4    4    0    0  0.50830832912E+02  0.63248182001E+02 -0.10285882487E+03  0.13101161763E+03  0.00000000000E+00 0.  1.
        -13    1    3    3    0    0 -0.49633388015E+01  0.30377845498E+02  0.98711514617E+02  0.10339928117E+03  0.00000000000E+00 0.  1.
         13    1    3    3    0    0 -0.42257821580E+02 -0.30199409857E+02  0.33190576381E+02  0.61638804344E+02  0.00000000000E+00 0. -1.
         -1    1    1    2    0  502  0.13050413150E+02 -0.46158097651E+02 -0.13136722035E+03  0.13985074130E+03  0.00000000000E+00 0.  1.
<scales pt_clust_5="13000.00000" pt_clust_6="13000.00000" pt_clust_7="13000.00000" pt_clust_8="13000.00000" pt_clust_9="47.96752"></scales>
<clustering>
<clus scale="   47.968">  2  9  1 -1</clus>
<clus scale="   87.233">  7  8 -1 -1</clus>
<clus scale="   92.117">  5  6 -1 -1</clus>
<clus scale="   98.645">  1  7  2 -1</clus>
<clus scale="   47.968">  2  5  1 -1</clus>
</clustering>
</event>
<event>
 9    1  0.1426358E-005  0.4375818E+03  0.7546771E-02  0.1069140E+00
         21   -1    0    0  501  502  0.00000000000E+00  0.00000000000E+00  0.73905705095E+03  0.73905705095E+03  0.00000000000E+00 0. -1.
         -1   -1    0    0    0  501 -0.00000000000E+00 -0.00000000000E+00 -0.51321581812E+03  0.51321581812E+03  0.00000000000E+00 0.  1.
         23    2    1    2    0    0 -0.10341187537E+03 -0.58631637257E+02 -0.12311307578E+03  0.19367667266E+03  0.90676012540E+02 0.  0.
         23    2    1    2    0    0  0.35085541004E+03 -0.26468653728E+03  0.45381485218E+03  0.63816941511E+03  0.90298397247E+02 0.  0.
        -13    1    4    4    0    0  0.17427580675E+03 -0.15829133060E+03  0.29786100644E+03  0.37967009537E+03  0.00000000000E+00 0. -1.
         13    1    4    4    0    0  0.17657960329E+03 -0.10639520669E+03  0.15595384575E+03  0.25849931974E+03  0.00000000000E+00 0.  1.
        -13    1    3    3    0    0 -0.77144754271E+02 -0.91620850602E+01 -0.11242524433E+03  0.13665537851E+03  0.00000000000E+00 0. -1.
         13    1    3    3    0    0 -0.26267121100E+02 -0.49469552196E+02 -0.10687831454E+02  0.57021294150E+02  0.00000000000E+00 0.  1.
         -1    1    1    2    0  502 -0.24744353467E+03  0.32331817454E+03 -0.10486054356E+03  0.42042678130E+03  0.00000000000E+00 0.  1.
<scales pt_clust_5="13000.00000" pt_clust_6="13000.00000" pt_clust_7="13000.00000" pt_clust_8="13000.00000" pt_clust_9="428.16378"></scales>
<clustering>
<clus scale="   90.298">  5  6 -1 -1</clus>
<clus scale="   90.676">  7  8 -1 -1</clus>
<clus scale="  149.512">  2  7  1 -1</clus>
<clus scale="  428.164">  1  9  2 -1</clus>
<clus scale="  428.164">  1  5  2 -1</clus>
</clustering>
</event>
<event>
 9    1  0.1426358E-005  0.1664997E+03  0.7546771E-02  0.1200252E+00
          2   -1    0    0  502    0 -0.00000000000E+00  0.00000000000E+00  0.37316622427E+03  0.37316622427E+03  0.00000000000E+00 0. -1.
         21   -1    0    0  501  502  0.00000000000E+00 -0.00000000000E+00 -0.26387528282E+03  0.26387528282E+03  0.00000000000E+00 0. -1.
         23    2    1    2    0    0 -0.45530998614E+02  0.43536187739E+02  0.89667533403E+02  0.14207754240E+03  0.90428369608E+02 0.  0.
         23    2    1    2    0    0  0.17979341451E+03 -0.22969604920E+02  0.18943667847E+03  0.27751068818E+03  0.90954121698E+02 0.  0.
        -11    1    3    3    0    0 -0.58265202787E+02  0.16205247299E+02  0.16118531190E+02  0.62587945672E+02  0.00000000000E+00 0.  1.
         11    1    3    3    0    0  0.12734204172E+02  0.27330940440E+02  0.73549002213E+02  0.79489596727E+02  0.00000000000E+00 0. -1.
        -13    1    4    4    0    0  0.71173548163E+02  0.23953202248E+02  0.34715219698E+02  0.82731954738E+02  0.00000000000E+00 0.  1.
         13    1    4    4    0    0  0.10861986635E+03 -0.46922807167E+02  0.15472145877E+03  0.19477873344E+03  0.00000000000E+00 0. -1.
          2    1    1    2  501    0 -0.13426241590E+03 -0.20566582820E+02 -0.16981327042E+03  0.21745327650E+03  0.00000000000E+00 0. -1.
<scales pt_clust_5="13000.00000" pt_clust_6="13000.00000" pt_clust_7="13000.00000" pt_clust_8="13000.00000" pt_clust_9="139.46145"></scales>
<clustering>
<clus scale="   90.428">  5  6 -1 -1</clus>
<clus scale="   90.954">  7  8 -1 -1</clus>
<clus scale="  110.208">  1  5  2 -1</clus>
<clus scale="  139.461">  2  9  1 -1</clus>
<clus scale="  139.461">  2  5  1 -1</clus>
</clustering>
</event>
<event>
 9    1  0.1426358E-005  0.1164595E+03  0.7546771E-02  0.1250463E+00
         21   -1    0    0  501  502  0.00000000000E+00  0.00000000000E+00  0.27734915674E+03  0.27734915674E+03  0.00000000000E+00 0. -1.
          1   -1    0    0  502    0 -0.00000000000E+00 -0.00000000000E+00 -0.43187965018E+03  0.43187965018E+03  0.00000000000E+00 0. -1.
         23    2    1    2    0    0  0.33491413118E+02  0.61443643007E+02 -0.29898074002E+03  0.32035362401E+03  0.91323411537E+02 0.  0.
         23    2    1    2    0    0 -0.68366867992E+01 -0.83577347544E+02 -0.90702617691E+02  0.15118369191E+03  0.87164387996E+02 0.  0.
        -11    1    4    4    0    0  0.10244335197E+02 -0.27355690888E+02 -0.87600810915E+02  0.92342743627E+02  0.00000000000E+00 0. -1.
         11    1    4    4    0    0 -0.17081021996E+02 -0.56221656656E+02 -0.31018067761E+01  0.58840948283E+02  0.00000000000E+00 0.  1.
        -13    1    3    3    0    0  0.29995892208E+02 -0.96048330471E+01 -0.17150965775E+03  0.17437766218E+03  0.00000000000E+00 0.  1.
         13    1    3    3    0    0  0.34955209101E+01  0.71048476055E+02 -0.12747108228E+03  0.14597596183E+03  0.00000000000E+00 0. -1.
          1    1    1    2  501    0 -0.26654726319E+02  0.22133704537E+02  0.23515286428E+03  0.23769149099E+03  0.00000000000E+00 0. -1.
<scales pt_clust_5="13000.00000" pt_clust_6="13000.00000" pt_clust_7="13000.00000" pt_clust_8="13000.00000" pt_clust_9="34.64643"></scales>
<clustering>
<clus scale="   34.646">  1  9  2 -1</clus>
<clus scale="   87.164">  5  6 -1 -1</clus>
<clus scale="   91.323">  7  8 -1 -1</clus>
<clus scale="  113.228">  1  5  2 -1</clus>
<clus scale="   34.646">  1  5  2 -1</clus>
</clustering>
</event>
<event>
 9    1  0.1426358E-005  0.9572948E+02  0.7546771E-02  0.1290877E+00
         -3   -1    0    0    0  501 -0.00000000000E+00  0.00000000000E+00  0.36052994308E+03  0.36052994308E+03  0.00000000000E+00 0.  1.
         21   -1    0    0  501  502  0.00000000000E+00 -0.00000000000E+00 -0.15276909528E+03  0.15276909528E+03  0.00000000000E+00 0.  1.
         23    2    1    2    0    0  0.18490699271E+02 -0.14073037795E+02  0.32000753431E+03  0.33326726140E+03  0.90123743545E+02 0.  0.
         23    2    1    2    0    0 -0.47594339570E+02  0.14390412259E+02 -0.10788556907E+03  0.15060148728E+03  0.92570010443E+02 0.  0.
        -11    1    4    4    0    0 -0.71952951415E+02  0.25672110951E+02 -0.66567464486E+02  0.10132873149E+03  0.00000000000E+00 0.  1.
         11    1    4    4    0    0  0.24358611845E+02 -0.11281698692E+02 -0.41318104586E+02  0.49272755789E+02  0.00000000000E+00 0. -1.
        -13    1    3    3    0    0  0.55161104231E+02 -0.67862871822E+01  0.19906645879E+03  0.20667911392E+03  0.00000000000E+00 0.  1.
         13    1    3    3    0    0 -0.36670404960E+02 -0.72867506125E+01  0.12094107552E+03  0.12658814748E+03  0.00000000000E+00 0. -1.
         -3    1    1    2    0  502  0.29103640299E+02 -0.31737446409E+00 -0.43611174408E+01  0.29430289678E+02  0.00000000000E+00 0.  1.
<scales pt_clust_5="13000.00000" pt_clust_6="13000.00000" pt_clust_7="13000.00000" pt_clust_8="13000.00000" pt_clust_9="29.10537"></scales>
<clustering>
<clus scale="   29.105">  2  9  1 -1</clus>
<clus scale="   90.124">  7  8 -1 -1</clus>
<clus scale="   92.570">  5  6 -1 -1</clus>
<clus scale="   93.366">  1  7  2 -1</clus>
<clus scale="   29.105">  2  5  1 -1</clus>
</clustering>
</event>
<event>
 9    1  0.1426358E-005  0.1119597E+03  0.7546771E-02  0.1263304E+00
         21   -1    0    0  501  502  0.00000000000E+00  0.00000000000E+00  0.21948213554E+03  0.21948213554E+03  0.00000000000E+00 0. -1.
          4   -1    0    0  502    0 -0.00000000000E+00 -0.00000000000E+00 -0.15530727574E+03  0.15530727574E+03  0.00000000000E+00 0. -1.
         23    2    1    2    0    0 -0.51215996692E+01  0.73471482274E+02 -0.64446852519E+02  0.12389770653E+03  0.75979967054E+02 0.  0.
         23    2    1    2    0    0 -0.71301924686E+02 -0.27405318020E+02  0.43311889946E+02  0.12743963973E+03  0.92357598732E+02 0.  0.
        -13    1    4    4    0    0 -0.43578272311E+02 -0.55479999547E+02  0.23822516662E+01  0.70588747619E+02  0.00000000000E+00 0.  1.
         13    1    4    4    0    0 -0.27723652376E+02  0.28074681528E+02  0.40929638280E+02  0.56850892110E+02  0.00000000000E+00 0. -1.
        -13    1    3    3    0    0 -0.35962924895E+02  0.61836758189E+02 -0.52906149565E+02  0.88972902010E+02  0.00000000000E+00 0.  1.
         13    1    3    3    0    0  0.30841325226E+02  0.11634724085E+02 -0.11540702954E+02  0.34924804522E+02  0.00000000000E+00 0. -1.
          4    1    1    2  501    0  0.76423524356E+02 -0.46066164254E+02  0.85309822372E+02  0.12345206502E+03  0.00000000000E+00 0. -1.
<scales pt_clust_5="13000.00000" pt_clust_6="13000.00000" pt_clust_7="13000.00000" pt_clust_8="13000.00000" pt_clust_9="89.23366"></scales>
<clustering>
<clus scale="   75.980">  7  8 -1 -1</clus>
<clus scale="   89.234">  1  9  2 -1</clus>
<clus scale="   92.358">  5  6 -1 -1</clus>
<clus scale="   98.884">  2  7  1 -1</clus>
<clus scale="   89.234">  1  5  2 -1</clus>
</clustering>
</event>
<event>
 9    1  0.1426358E-005  0.1000178E+03  0.7546771E-02  0.1282107E+00
          1   -1    0    0  502    0 -0.00000000000E+00  0.00000000000E+00  0.32078411997E+03  0.32078411997E+03  0.00000000000E+00 0. -1.
         21   -1    0    0  501  502  0.00000000000E+00 -0.00000000000E+00 -0.45191288241E+02  0.45191288241E+02  0.00000000000E+00 0.  1.
         23    2    1    2    0    0 -0.35849115819E+02  0.20555144182E+02  0.16466220646E+03  0.19143955876E+03  0.88474795081E+02 0.  0.
         23    2    1    2    0    0  0.19222615787E+02 -0.32964559477E+02  0.11614768017E+03  0.15314305270E+03  0.92229820792E+02 0.  0.
        -11    1    4    4    0    0  0.21385006919E+02 -0.28111516566E+00  0.11839499587E+03  0.12031114908E+03  0.00000000000E+00 0. -1.
         11    1    4    4    0    0 -0.21623911328E+01 -0.32683444311E+02 -0.22473157013E+01  0.32831903620E+02  0.00000000000E+00 0.  1.
        -13    1    3    3    0    0 -0.14424320979E+02  0.36262055122E+02  0.15971948171E+03  0.16441809667E+03  0.00000000000E+00 0.  1.
         13    1    3    3    0    0 -0.21424794840E+02 -0.15706910940E+02  0.49427247519E+01  0.27021462085E+02  0.00000000000E+00 0. -1.
          1    1    1    2  501    0  0.16626500033E+02  0.12409415295E+02 -0.52170548922E+01  0.21392796756E+02  0.00000000000E+00 0. -1.
<scales pt_clust_5="13000.00000" pt_clust_6="13000.00000" pt_clust_7="13000.00000" pt_clust_8="13000.00000" pt_clust_9="20.74691"></scales>
<clustering>
<clus scale="   20.747">  2  9  1 -1</clus>
<clus scale="   88.475">  7  8 -1 -1</clus>
<clus scale="   92.230">  5  6 -1 -1</clus>
<clus scale="   96.566">  1  7  2 -1</clus>
<clus scale="   20.747">  2  5  1 -1</clus>
</clustering>
</event>
<event>
 9    1  0.1426358E-005  0.1243663E+03  0.7546771E-02  0.1236082E+00
          2   -1    0    0  502    0 -0.00000000000E+00  0.00000000000E+00  0.24020371792E+03  0.24020371792E+03  0.00000000000E+00 0. -1.
         21   -1    0    0  501  502  0.00000000000E+00 -0.00000000000E+00 -0.29400051579E+03  0.29400051579E+03  0.00000000000E+00 0.  1.
         23    2    1    2    0    0 -0.86113886349E+02 -0.11020513205E+02  0.13037885614E+03  0.18132572087E+03  0.91341763659E+02 0.  0.
         23    2    1    2    0    0  0.81266389063E+02 -0.22471200660E+02  0.36589711486E+02  0.12953451868E+03  0.91275427648E+02 0.  0.
        -11    1    4    4    0    0  0.84617719405E+02 -0.45753281148E+02  0.42677712631E+02  0.10523739035E+03  0.00000000000E+00 0.  1.
         11    1    4    4    0    0 -0.33513303424E+01  0.23282080488E+02 -0.60880011448E+01  0.24297128325E+02  0.00000000000E+00 0. -1.
        -11    1    3    3    0    0 -0.26979510894E+02  0.38054351322E+02  0.67409659095E+02  0.81976153862E+02  0.00000000000E+00 0.  1.
         11    1    3    3    0    0 -0.59134375455E+02 -0.49074864527E+02  0.62969197041E+02  0.99349567009E+02  0.00000000000E+00 0. -1.
          2    1    1    2  501    0  0.48474972861E+01  0.33491713865E+02 -0.22076536549E+03  0.22334399416E+03  0.00000000000E+00 0. -1.
<scales pt_clust_5="13000.00000" pt_clust_6="13000.00000" pt_clust_7="13000.00000" pt_clust_8="13000.00000" pt_clust_9="33.84070"></scales>
<clustering>
<clus scale="   33.841">  2  9  1 -1</clus>
<clus scale="   91.275">  5  6 -1 -1</clus>
<clus scale="   91.342">  7  8 -1 -1</clus>
<clus scale="  124.318">  2  5  1 -1</clus>
<clus scale="   33.841">  2  5  1 -1</clus>
</clustering>
</event>
<event>
 9    1  0.1426358E-005  0.1050885E+03  0.7546771E-02  0.1270065E+00
         21   -1    0    0  501  502  0.00000000000E+00  0.00000000000E+00  0.58492697880E+02  0.58492697880E+02  0.00000000000E+00 0. -1.
         -3   -1    0    0    0  501 -0.00000000000E+00 -0.00000000000E+00 -0.36017612485E+03  0.36017612485E+03  0.00000000000E+00 0.  1.
         23    2    1    2    0    0  0.30653975913E+02  0.38359928111E+02 -0.24877467133E+03  0.26955821964E+03  0.91442038251E+02 0.  0.
         23    2    1    2    0    0 -0.56176361470E+02 -0.28716743768E+02 -0.48677212435E+02  0.12150101912E+03  0.91720181406E+02 0.  0.
        -11    1    4    4    0    0 -0.45032806181E+02  0.28319382534E+02 -0.24164051057E+02  0.58428096179E+02  0.00000000000E+00 0. -1.
         11    1    4    4    0    0 -0.11143555289E+02 -0.57036126302E+02 -0.24513161378E+02  0.63072922945E+02  0.00000000000E+00 0.  1.
        -13    1    3    3    0    0 -0.16988286596E+02  0.29260156728E+02 -0.29206402716E+02  0.44696449667E+02  0.00000000000E+00 0. -1.
         13    1    3    3    0    0  0.47642262509E+02  0.90997713824E+01 -0.21956826861E+03  0.22486176998E+03  0.00000000000E+00 0.  1.
         -3    1    1    2    0  502  0.25522385557E+02 -0.96431843423E+01 -0.42315432094E+01  0.27609583965E+02  0.00000000000E+00 0.  1.
<scales pt_clust_5="13000.00000" pt_clust_6="13000.00000" pt_clust_7="13000.00000" pt_clust_8="13000.00000" pt_clust_9="27.28339"></scales>
<clustering>
<clus scale="   27.283">  1  9  2 -1</clus>
<clus scale="   91.442">  7  8 -1 -1</clus>
<clus scale="   91.720">  5  6 -1 -1</clus>
<clus scale="  104.846">  2  7  1 -1</clus>
<clus scale="   27.283">  1  5  2 -1</clus>
</clustering>
</event>
<event>
 9    1  0.1426358E-005  0.2345799E+03  0.7546771E-02  0.1147183E+00
         21   -1    0    0  501  502  0.00000000000E+00  0.00000000000E+00  0.15091742131E+03  0.15091742131E+03  0.00000000000E+00 0.  1.
         -4   -1    0    0    0  501 -0.00000000000E+00 -0.00000000000E+00 -0.59705063984E+03  0.59705063984E+03  0.00000000000E+00 0. -1.
         23    2    1    2    0    0  0.48314318077E+02  0.79959952090E+02 -0.15418331754E+03  0.20278052246E+03  0.92841680347E+02 0.  0.
         23    2    1    2    0    0  0.22252910123E+01 -0.25720870877E+03 -0.14302430062E+03  0.30822718699E+03  0.91579345063E+02 0.  0.
        -11    1    4    4    0    0  0.33452732140E+02 -0.60197422601E+02 -0.62886466397E+02  0.93260509495E+02  0.00000000000E+00 0. -1.
         11    1    4    4    0    0 -0.31227441127E+02 -0.19701128617E+03 -0.80137834221E+02  0.21496667749E+03  0.00000000000E+00 0.  1.
        -13    1    3    3    0    0 -0.17556339425E+02  0.13294443366E+02  0.37814642913E+00  0.22025219026E+02  0.00000000000E+00 0. -1.
         13    1    3    3    0    0  0.65870657502E+02  0.66665508724E+02 -0.15456146397E+03  0.18075530343E+03  0.00000000000E+00 0.  1.
         -4    1    1    2    0  502 -0.50539609089E+02  0.17724875668E+03 -0.14892560037E+03  0.23696035170E+03  0.00000000000E+00 0. -1.
<scales pt_clust_5="13000.00000" pt_clust_6="13000.00000" pt_clust_7="13000.00000" pt_clust_8="13000.00000" pt_clust_9="215.96511"></scales>
<clustering>
<clus scale="   91.579">  5  6 -1 -1</clus>
<clus scale="   92.842">  7  8 -1 -1</clus>
<clus scale="  131.710">  2  7  1 -1</clus>
<clus scale="  215.965">  1  9  2 -1</clus>
<clus scale="  215.965">  1  5  2 -1</clus>
</clustering>
</event>
<event>
 9    1  0.1426358E-005  0.1228677E+03  0.7546771E-02  0.1243682E+00
         -2   -1    0    0    0  501 -0.00000000000E+00  0.00000000000E+00  0.20242288028E+03  0.20242288028E+03  0.00000000000E+00 0.  1.
         21   -1    0    0  501  502  0.00000000000E+00 -0.00000000000E+00 -0.13363053547E+03  0.13363053547E+03  0.00000000000E+00 0. -1.
         23    2    1    2    0    0  0.52965710602E+02  0.31591639836E+02  0.13286048103E+03  0.18070963704E+03  0.10583320505E+03 0.  0.
         23    2    1    2    0    0 -0.43112781815E+02 -0.53720255134E+02 -0.64326643362E+02  0.13111935619E+03  0.91158053697E+02 0.  0.
        -13    1    3    3    0    0  0.74744029797E+02  0.41464135197E+02  0.61092386604E+02  0.10506295350E+03  0.00000000000E+00 0.  1.
         13    1    3    3    0    0 -0.21778319195E+02 -0.98724953612E+01  0.71768094429E+02  0.75646683533E+02  0.00000000000E+00 0. -1.
        -13    1    4    4    0    0  0.25341144271E+02 -0.10592385270E+01 -0.26962768559E+02  0.37017380615E+02  0.00000000000E+00 0.  1.
         13    1    4    4    0    0 -0.68453926086E+02 -0.52661016607E+02 -0.37363874803E+02  0.94101975574E+02  0.00000000000E+00 0. -1.
         -2    1    1    2    0  502 -0.98529287874E+01  0.22128615298E+02  0.25850713912E+00  0.24224422525E+02  0.00000000000E+00 0.  1.
<scales pt_clust_5="13000.00000" pt_clust_6="13000.00000" pt_clust_7="13000.00000" pt_clust_8="13000.00000" pt_clust_9="24.22304"></scales>
<clustering>
<clus scale="   24.223">  2  9  1 -1</clus>
<clus scale="   91.158">  7  8 -1 -1</clus>
<clus scale="  105.833">  5  6 -1 -1</clus>
<clus scale="  110.479">  2  7  1 -1</clus>
<clus scale="   24.223">  2  5  1 -1</clus>
</clustering>
</event>
<event>
 9    1  0.1426358E-005  0.1150248E+03  0.7546771E-02  0.1252331E+00
          1   -1    0    0  502    0 -0.00000000000E+00  0.00000000000E+00  0.49127005345E+02  0.49127005345E+02  0.00000000000E+00 0. -1.
         21   -1    0    0  501  502  0.00000000000E+00 -0.00000000000E+00 -0.54890265172E+03  0.54890265172E+03  0.00000000000E+00 0. -1.
         23    2    1    2    0    0 -0.81776527335E-01  0.73663248013E+02 -0.82100339746E+02  0.14349656388E+03  0.91785169080E+02 0.  0.
         23    2    1    2    0    0  0.40698367873E+02 -0.57316648788E+02 -0.18077623669E+03  0.21362213840E+03  0.89514327828E+02 0.  0.
        -13    1    3    3    0    0  0.23356316972E+02  0.22711433336E+02 -0.81105243820E+02  0.87403588723E+02  0.00000000000E+00 0.  1.
         13    1    3    3    0    0 -0.23438093499E+02  0.50951814678E+02 -0.99509592609E+00  0.56092975155E+02  0.00000000000E+00 0. -1.
        -13    1    4    4    0    0  0.48480502884E+02  0.69009141555E+01 -0.72303663978E+02  0.87325835815E+02  0.00000000000E+00 0. -1.
         13    1    4    4    0    0 -0.77821350110E+01 -0.64217562944E+02 -0.10847257271E+03  0.12629630258E+03  0.00000000000E+00 0.  1.
          1    1    1    2  501    0 -0.40616591346E+02 -0.16346599225E+02 -0.23689906995E+03  0.24091095480E+03  0.00000000000E+00 0. -1.
<scales pt_clust_5="13000.00000" pt_clust_6="13000.00000" pt_clust_7="13000.00000" pt_clust_8="13000.00000" pt_clust_9="43.78263"></scales>
<clustering>
<clus scale="   43.783">  2  9  1 -1</clus>
<clus scale="   89.514">  7  8 -1 -1</clus>
<clus scale="   91.785">  5  6 -1 -1</clus>
<clus scale="  113.221">  2  7  1 -1</clus>
<clus scale="   43.783">  2  5  1 -1</clus>
</clustering>
</event>
<event>
 9    1  0.1426358E-005  0.9940459E+02  0.7546771E-02  0.1282567E+00
         21   -1    0    0  501  502  0.00000000000E+00  0.00000000000E+00  0.12342026930E+03  0.12342026930E+03  0.00000000000E+00 0.  1.
          2   -1    0    0  502    0 -0.00000000000E+00 -0.00000000000E+00 -0.14466004090E+03  0.14466004090E+03  0.00000000000E+00 0. -1.
         23    2    1    2    0    0  0.32226100556E+02 -0.59272523392E+01 -0.75718187067E+02  0.12429794297E+03  0.92968171419E+02 0.  0.
         23    2    1    2    0    0 -0.34258291047E+02  0.35461641186E+02  0.43096111468E+02  0.11206538807E+03  0.90940738275E+02 0.  0.
        -13    1    3    3    0    0  0.39647702258E+02  0.25294995170E+02 -0.79103245706E+02  0.92027716240E+02  0.00000000000E+00 0.  1.
         13    1    3    3    0    0 -0.74216017019E+01 -0.31222247509E+02  0.33850586395E+01  0.32270226732E+02  0.00000000000E+00 0. -1.
        -13    1    4    4    0    0 -0.62603831664E+02  0.34693913189E+02  0.17082778177E+02  0.73584839890E+02  0.00000000000E+00 0. -1.
         13    1    4    4    0    0  0.28345540617E+02  0.76772799679E+00  0.26013333291E+02  0.38480548177E+02  0.00000000000E+00 0.  1.
          2    1    1    2  501    0  0.20321904906E+01 -0.29534388846E+02  0.11382303999E+02  0.31716979160E+02  0.00000000000E+00 0. -1.
<scales pt_clust_5="13000.00000" pt_clust_6="13000.00000" pt_clust_7="13000.00000" pt_clust_8="13000.00000" pt_clust_9="29.60422"></scales>
<clustering>
<clus scale="   29.604">  1  9  2 -1</clus>
<clus scale="   90.941">  7  8 -1 -1</clus>
<clus scale="   92.968">  5  6 -1 -1</clus>
<clus scale="   97.511">  1  7  2 -1</clus>
<clus scale="   29.604">  1  5  2 -1</clus>
</clustering>
</event>
<event>
 9    1  0.1426358E-005  0.1395581E+03  0.7546771E-02  0.1233665E+00
          2   -1    0    0  502    0 -0.00000000000E+00  0.00000000000E+00  0.10211721180E+03  0.10211721180E+03  0.00000000000E+00 0. -1.
         21   -1    0    0  501  502  0.00000000000E+00 -0.00000000000E+00 -0.31854410818E+03  0.31854410818E+03  0.00000000000E+00 0. -1.
         23    2    1    2    0    0 -0.16550519086E+02 -0.18284663331E+02 -0.52942036506E+01  0.92594662105E+02  0.89092616208E+02 0.  0.
         23    2    1    2    0    0  0.52019341371E+02 -0.84708313657E+02 -0.78242995737E+02  0.15623749205E+03  0.91687934108E+02 0.  0.
        -13    1    3    3    0    0  0.70970062201E+01  0.33786919582E+02 -0.76300604023E+01  0.35357336635E+02  0.00000000000E+00 0.  1.
         13    1    3    3    0    0 -0.23647525306E+02 -0.52071582913E+02  0.23358567517E+01  0.57237325470E+02  0.00000000000E+00 0. -1.
        -13    1    4    4    0    0  0.76511351951E+02 -0.76318872710E+02 -0.54162860024E+02  0.12088082029E+03  0.00000000000E+00 0. -1.
         13    1    4    4    0    0 -0.24492010580E+02 -0.83894409468E+01 -0.24080135713E+02  0.35356671755E+02  0.00000000000E+00 0.  1.
          2    1    1    2  501    0 -0.35468822284E+02  0.10299297699E+03 -0.13288969699E+03  0.17182916583E+03  0.00000000000E+00 0. -1.
<scales pt_clust_5="13000.00000" pt_clust_6="13000.00000" pt_clust_7="13000.00000" pt_clust_8="13000.00000" pt_clust_9="105.21304"></scales>
<clustering>
<clus scale="   89.093">  5  6 -1 -1</clus>
<clus scale="   91.688">  7  8 -1 -1</clus>
<clus scale="   92.443">  1  5  2 -1</clus>
<clus scale="  105.213">  2  9  1 -1</clus>
<clus scale="  105.213">  2  5  1 -1</clus>
</clustering>
</event>
<event>
 9    1  0.1426358E-005  0.1380615E+03  0.7546771E-02  0.1233266E+00
          2   -1    0    0  502    0 -0.00000000000E+00  0.00000000000E+00  0.75308433377E+03  0.75308433377E+03  0.00000000000E+00 0. -1.
         21   -1    0    0  501  502  0.00000000000E+00 -0.00000000000E+00 -0.40673538738E+02  0.40673538738E+02  0.00000000000E+00 0. -1.
         23    2    1    2    0    0  0.31001363430E+02  0.62379868461E+01  0.16179276794E+03  0.18826681126E+03  0.90925768910E+02 0.  0.
         23    2    1    2    0    0  0.74534852039E+02 -0.44168770803E+02  0.38900314402E+03  0.40877805309E+03  0.90938034654E+02 0.  0.
        -13    1    4    4    0    0  0.24331000796E+02 -0.64436476988E+02  0.17588370260E+03  0.18888921093E+03  0.00000000000E+00 0. -1.
         13    1    4    4    0    0  0.50203851242E+02  0.20267706185E+02  0.21311944142E+03  0.21988884216E+03  0.00000000000E+00 0.  1.
        -13    1    3    3    0    0 -0.25489480618E+02 -0.99957710581E+01  0.96982856795E+02  0.10077352615E+03  0.00000000000E+00 0.  1.
         13    1    3    3    0    0  0.56490844048E+02  0.16233757904E+02  0.64809911143E+02  0.87493285110E+02  0.00000000000E+00 0. -1.
          2    1    1    2  501    0 -0.10553621547E+03  0.37930783957E+02  0.16161488308E+03  0.19671300816E+03  0.00000000000E+00 0. -1.
<scales pt_clust_5="13000.00000" pt_clust_6="13000.00000" pt_clust_7="13000.00000" pt_clust_8="13000.00000" pt_clust_9="103.88095"></scales>
<clustering>
<clus scale="   90.926">  7  8 -1 -1</clus>
<clus scale="   90.938">  5  6 -1 -1</clus>
<clus scale="   96.268">  1  7  2 -1</clus>
<clus scale="  103.881">  2  9  1 -1</clus>
<clus scale="  103.881">  2  5  1 -1</clus>
</clustering>
</event>
<event>
 9    1  0.1426358E-005  0.1029230E+03  0.7546771E-02  0.1275135E+00
         21   -1    0    0  501  502  0.00000000000E+00  0.00000000000E+00  0.16943203576E+03  0.16943203576E+03  0.00000000000E+00 0.  1.
         -2   -1    0    0    0  501 -0.00000000000E+00 -0.00000000000E+00 -0.11262337298E+03  0.11262337298E+03  0.00000000000E+00 0.  1.
         23    2    1    2    0    0 -0.13819951007E+02 -0.32762207718E+02 -0.28706760607E+02  0.10077399574E+03  0.89816294799E+02 0.  0.
         23    2    1    2    0    0  0.25703953889E+02  0.67429047254E+02  0.41185224901E+02  0.12376458255E+03  0.91728291626E+02 0.  0.
        -11    1    3    3    0    0 -0.17904533137E+02 -0.60414272611E+02 -0.34573674641E+01  0.63106339077E+02  0.00000000000E+00 0.  1.
         11    1    3    3    0    0  0.40845821299E+01  0.27652064893E+02 -0.25249393143E+02  0.37667656658E+02  0.00000000000E+00 0. -1.
        -11    1    4    4    0    0  0.49076548640E+02  0.21855058097E+02  0.48065907567E+02  0.72086633026E+02  0.00000000000E+00 0.  1.
         11    1    4    4    0    0 -0.23372594752E+02  0.45573989157E+02 -0.68806826657E+01  0.51677949524E+02  0.00000000000E+00 0. -1.
         -2    1    1    2    0  502 -0.11884002882E+02 -0.34666839535E+02  0.44330198484E+02  0.57516830454E+02  0.00000000000E+00 0.  1.
<scales pt_clust_5="13000.00000" pt_clust_6="13000.00000" pt_clust_7="13000.00000" pt_clust_8="13000.00000" pt_clust_9="36.64723"></scales>
<clustering>
<clus scale="   36.647">  1  9  2 -1</clus>
<clus scale="   89.816">  5  6 -1 -1</clus>
<clus scale="   91.728">  7  8 -1 -1</clus>
<clus scale="  101.223">  2  5  1 -1</clus>
<clus scale="   36.647">  1  5  2 -1</clus>
</clustering>
</event>
<event>
 9    1  0.1426358E-005  0.1293471E+03  0.7546771E-02  0.1229564E+00
         21   -1    0    0  501  502  0.00000000000E+00  0.00000000000E+00  0.16684812496E+03  0.16684812496E+03  0.00000000000E+00 0. -1.
          3   -1    0    0  502    0 -0.00000000000E+00 -0.00000000000E+00 -0.21405723792E+03  0.21405723792E+03  0.00000000000E+00 0. -1.
         23    2    1    2    0    0  0.63842553875E+02 -0.75913876743E+02 -0.92383994008E+02  0.16536748343E+03  0.94724937902E+02 0.  0.
         23    2    1    2    0    0  0.16573859212E+02  0.88337244079E+02  0.13880888886E+02  0.12835729965E+03  0.90580107062E+02 0.  0.
        -11    1    4    4    0    0  0.43495615072E+02  0.10191926498E+02  0.83657367595E+00  0.44681581795E+02  0.00000000000E+00 0. -1.
         11    1    4    4    0    0 -0.26921755860E+02  0.78145317581E+02  0.13044315210E+02  0.83675717850E+02  0.00000000000E+00 0.  1.
        -13    1    3    3    0    0  0.41563357441E+02 -0.67829918033E+02 -0.11006105133E+03  0.13580075656E+03  0.00000000000E+00 0. -1.
         13    1    3    3    0    0  0.22279196434E+02 -0.80839587101E+01  0.17677057325E+02  0.29566726871E+02  0.00000000000E+00 0.  1.
          3    1    1    2  501    0 -0.80416413087E+02 -0.12423367336E+02  0.31293992165E+02  0.87180579806E+02  0.00000000000E+00 0. -1.
<scales pt_clust_5="13000.00000" pt_clust_6="13000.00000" pt_clust_7="13000.00000" pt_clust_8="13000.00000" pt_clust_9="81.37038"></scales>
<clustering>
<clus scale="   81.370">  1  9  2 -1</clus>
<clus scale="   90.580">  5  6 -1 -1</clus>
<clus scale="   94.725">  7  8 -1 -1</clus>
<clus scale="  126.343">  1  5  2 -1</clus>
<clus scale="   81.370">  1  5  2 -1</clus>
</clustering>
</event>
<event>
 9    1  0.1426358E-005  0.2187355E+03  0.7546771E-02  0.1135516E+00
         21   -1    0    0  501  502  0.00000000000E+00  0.00000000000E+00  0.92414327881E+02  0.92414327881E+02  0.00000000000E+00 0. -1.
          1   -1    0    0  502    0 -0.00000000000E+00 -0.00000000000E+00 -0.86822979008E+03  0.86822979008E+03  0.00000000000E+00 0. -1.
         23    2    1    2    0    0 -0.21865589226E+03  0.12958725847E+02 -0.48870930636E+03  0.54304518423E+03  0.89905273466E+02 0.  0.
         23    2    1    2    0    0  0.17155895531E+03  0.65411070281E+02 -0.24588745964E+03  0.31730472984E+03  0.80688075403E+02 0.  0.
        -11    1    3    3    0    0 -0.53088215936E+02 -0.27304415145E+02 -0.18995577176E+03  0.19911575775E+03  0.00000000000E+00 0.  1.
         11    1    3    3    0    0 -0.16556767633E+03  0.40263140991E+02 -0.29875353460E+03  0.34392942649E+03  0.00000000000E+00 0. -1.
        -11    1    4    4    0    0  0.64432492052E+02 -0.12900434993E+02 -0.60510327310E+02  0.89327862205E+02  0.00000000000E+00 0. -1.
         11    1    4    4    0    0  0.10712646325E+03  0.78311505274E+02 -0.18537713233E+03  0.22797686764E+03  0.00000000000E+00 0.  1.
          1    1    1    2  501    0  0.47096936959E+02 -0.78369796128E+02 -0.41218696198E+02  0.10029420388E+03  0.00000000000E+00 0. -1.
<scales pt_clust_5="13000.00000" pt_clust_6="13000.00000" pt_clust_7="13000.00000" pt_clust_8="13000.00000" pt_clust_9="91.43274"></scales>
<clustering>
<clus scale="   80.688">  7  8 -1 -1</clus>
<clus scale="   89.905">  5  6 -1 -1</clus>
<clus scale="   91.433">  1  9  2 -1</clus>
<clus scale="  215.111">  1  7  2 -1</clus>
<clus scale="   91.433">  1  5  2 -1</clus>
</clustering>
</event>
<event>
 9    1  0.1426358E-005  0.1376663E+03  0.7546771E-02  0.1233099E+00
         -2   -1    0    0    0  501 -0.00000000000E+00  0.00000000000E+00  0.15721693563E+03  0.15721693563E+03  0.00000000000E+00 0.  1.
         21   -1    0    0  501  502  0.00000000000E+00 -0.00000000000E+00 -0.19561249229E+03  0.19561249229E+03  0.00000000000E+00 0.  1.
         23    2    1    2    0    0 -0.30270032346E+02 -0.15583183323E+02  0.27717885279E+02  0.10129986893E+03  0.91292233073E+02 0.  0.
         23    2    1    2    0    0  0.98191416450E+01  0.11088279237E+03 -0.33994048112E+02  0.14890446520E+03  0.92873759833E+02 0.  0.
        -11    1    3    3    0    0  0.36699008280E+01 -0.49378039698E+02  0.15211197955E+02  0.51798064826E+02  0.00000000000E+00 0.  1.
         11    1    3    3    0    0 -0.33939933174E+02  0.33794856375E+02  0.12506687324E+02  0.49501804100E+02  0.00000000000E+00 0. -1.
        -13    1    4    4    0    0 -0.38743167090E+02  0.43392587660E+02 -0.30506404881E+02  0.65685541779E+02  0.00000000000E+00 0.  1.
         13    1    4    4    0    0  0.48562308736E+02  0.67490204706E+02 -0.34876432315E+01  0.83218923426E+02  0.00000000000E+00 0. -1.
         -2    1    1    2    0  502  0.20450890701E+02 -0.95299609043E+02 -0.32119393825E+02  0.10262509378E+03  0.00000000000E+00 0.  1.
<scales pt_clust_5="13000.00000" pt_clust_6="13000.00000" pt_clust_7="13000.00000" pt_clust_8="13000.00000" pt_clust_9="101.61928"></scales>
<clustering>
<clus scale="   91.292">  5  6 -1 -1</clus>
<clus scale="   92.874">  7  8 -1 -1</clus>
<clus scale="   97.434">  1  5  2 -1</clus>
<clus scale="  101.619">  2  9  1 -1</clus>
<clus scale="  101.619">  2  5  1 -1</clus>
</clustering>
</event>
<event>
 9    1  0.1426358E-005  0.1428707E+03  0.7546771E-02  0.1210098E+00
          4   -1    0    0  502    0 -0.00000000000E+00  0.00000000000E+00  0.67182236859E+02  0.67182236859E+02  0.00000000000E+00 0. -1.
         21   -1    0    0  501  502  0.00000000000E+00 -0.00000000000E+00 -0.73294944063E+03  0.73294944063E+03  0.00000000000E+00 0. -1.
         23    2    1    2    0    0  0.32563870360E+02 -0.12895595819E+03 -0.14440950200E+03  0.21528947942E+03  0.88348236412E+02 0.  0.
         23    2    1    2    0    0 -0.95612848355E+02  0.47581969558E+02 -0.17986667372E+03  0.22817285275E+03  0.91131607126E+02 0.  0.
        -11    1    3    3    0    0 -0.28907004350E+01 -0.12251661649E+03 -0.10051905782E+03  0.15850160394E+03  0.00000000000E+00 0.  1.
         11    1    3    3    0    0  0.35454570795E+02 -0.64393416948E+01 -0.43890444179E+02  0.56787875483E+02  0.00000000000E+00 0. -1.
        -13    1    4    4    0    0 -0.78301310104E+02  0.70808207312E+02 -0.16428389884E+03  0.19527953504E+03  0.00000000000E+00 0. -1.
         13    1    4    4    0    0 -0.17311538251E+02 -0.23226237754E+02 -0.15582774880E+02  0.32893317708E+02  0.00000000000E+00 0.  1.
          4    1    1    2  501    0  0.63048977995E+02  0.81373988630E+02 -0.34149102805E+03  0.35666934532E+03  0.00000000000E+00 0. -1.
<scales pt_clust_5="13000.00000" pt_clust_6="13000.00000" pt_clust_7="13000.00000" pt_clust_8="13000.00000" pt_clust_9="102.94124"></scales>
<clustering>
<clus scale="   88.348">  5  6 -1 -1</clus>
<clus scale="   91.132">  7  8 -1 -1</clus>
<clus scale="  102.941">  2  9  1 -1</clus>
<clus scale="  141.112">  1  5  2 -1</clus>
<clus scale="  102.941">  2  5  1 -1</clus>
</clustering>
</event>
<event>
 9    1  0.1426358E-005  0.1060336E+03  0.7546771E-02  0.1268747E+00
         -2   -1    0    0    0  501 -0.00000000000E+00  0.00000000000E+00  0.18224034197E+03  0.18224034197E+03  0.00000000000E+00 0.  1.
         21   -1    0    0  501  502  0.00000000000E+00 -0.00000000000E+00 -0.79083696104E+02  0.79083696104E+02  0.00000000000E+00 0.  1.
         23    2    1    2    0    0  0.41178619868E+02 -0.14600489349E+01  0.52373332317E+02  0.11374774464E+03  0.92183366152E+02 0.  0.
         23    2    1    2    0    0 -0.58528585624E+02 -0.11709838022E+02  0.57091429699E+02  0.12489900163E+03  0.93688919421E+02 0.  0.
        -11    1    3    3    0    0 -0.29059511705E+02  0.73605370510E+01  0.12301240589E+02  0.32402982058E+02  0.00000000000E+00 0.  1.
         11    1    3    3    0    0  0.70238131572E+02 -0.88205859860E+01  0.40072091728E+02  0.81344762581E+02  0.00000000000E+00 0. -1.
        -11    1    4    4    0    0 -0.78633690022E+02 -0.24385278263E+02  0.27188554988E+02  0.86701306361E+02  0.00000000000E+00 0.  1.
         11    1    4    4    0    0  0.20105104397E+02  0.12675440242E+02  0.29902874710E+02  0.38197695272E+02  0.00000000000E+00 0. -1.
         -2    1    1    2    0  502  0.17349965757E+02  0.13169886957E+02 -0.63081161487E+01  0.22677291804E+02  0.00000000000E+00 0.  1.
<scales pt_clust_5="13000.00000" pt_clust_6="13000.00000" pt_clust_7="13000.00000" pt_clust_8="13000.00000" pt_clust_9="21.78227"></scales>
<clustering>
<clus scale="   21.782">  2  9  1 -1</clus>
<clus scale="   92.183">  5  6 -1 -1</clus>
<clus scale="   93.689">  7  8 -1 -1</clus>
<clus scale="  104.706">  1  5  2 -1</clus>
<clus scale="   21.782">  2  5  1 -1</clus>
</clustering>
</event>
<event>
 9    1  0.1426358E-005  0.2045368E+03  0.7546771E-02  0.1150258E+00
         21   -1    0    0  501  502  0.00000000000E+00  0.00000000000E+00  0.52274071429E+03  0.52274071429E+03  0.00000000000E+00 0.  1.
         -1   -1    0    0    0  501 -0.00000000000E+00 -0.00000000000E+00 -0.16703087941E+03  0.16703087941E+03  0.00000000000E+00 0.  1.
         23    2    1    2    0    0 -0.15668727382E+03 -0.26856426321E+02 -0.35936436698E+02  0.18669951004E+03  0.91066515004E+02 0.  0.
         23    2    1    2    0    0  0.15671559292E+03  0.58992620297E+02  0.14681802435E+03  0.25614374100E+03  0.12654713536E+03 0.  0.
        -11    1    3    3    0    0 -0.83467211806E+02  0.28571066328E+02 -0.34861031502E+02  0.94859753295E+02  0.00000000000E+00 0.  1.
         11    1    3    3    0    0 -0.73220062012E+02 -0.55427492649E+02 -0.10754051961E+01  0.91839756744E+02  0.00000000000E+00 0. -1.
        -13    1    4    4    0    0  0.58394391881E+02 -0.33082615186E+02  0.83983689749E+02  0.10750639318E+03  0.00000000000E+00 0. -1.
         13    1    4    4    0    0  0.98321201037E+02  0.92075235483E+02  0.62834334603E+02  0.14863734782E+03  0.00000000000E+00 0.  1.
         -1    1    1    2    0  502 -0.28319100073E-01 -0.32136193976E+02  0.24482824723E+03  0.24692834266E+03  0.00000000000E+00 0.  1.
<scales pt_clust_5="13000.00000" pt_clust_6="13000.00000" pt_clust_7="13000.00000" pt_clust_8="13000.00000" pt_clust_9="32.13621"></scales>
<clustering>
<clus scale="   32.136">  1  9  2 -1</clus>
<clus scale="   91.067">  5  6 -1 -1</clus>
<clus scale="  126.547">  7  8 -1 -1</clus>
<clus scale="  184.700">  2  5  1 -1</clus>
<clus scale="   32.136">  1  5  2 -1</clus>
</clustering>
</event>
<event>
 9    1  0.1426358E-005  0.1009326E+03  0.7546771E-02  0.1278680E+00
         21   -1    0    0  501  502  0.00000000000E+00  0.00000000000E+00  0.11104732396E+03  0.11104732396E+03  0.00000000000E+00 0. -1.
         -1   -1    0    0    0  501 -0.00000000000E+00 -0.00000000000E+00 -0.28936546221E+03  0.28936546221E+03  0.00000000000E+00 0.  1.
         23    2    1    2    0    0  0.49617662498E+02 -0.64717168380E+01 -0.23588460511E+03  0.25760087152E+03  0.90624867055E+02 0.  0.
         23    2    1    2    0    0 -0.11115143504E+02  0.59004180126E+01  0.30624170200E+02  0.95815556273E+02  0.89913400979E+02 0.  0.
        -11    1    3    3    0    0  0.45192348143E+02  0.35451216763E+02 -0.16944844258E+03  0.17891872958E+03  0.00000000000E+00 0.  1.
         11    1    3    3    0    0  0.44253143551E+01 -0.41922933601E+02 -0.66436162529E+02  0.78682141941E+02  0.00000000000E+00 0. -1.
        -11    1    4    4    0    0  0.50301378261E+00  0.35505107987E+02  0.47897851310E+02  0.59624406715E+02  0.00000000000E+00 0.  1.
         11    1    4    4    0    0 -0.11618157286E+02 -0.29604689975E+02 -0.17273681110E+02  0.36191149558E+02  0.00000000000E+00 0. -1.
         -1    1    1    2    0  502 -0.38502518995E+02  0.57129882543E+00  0.26942296663E+02  0.46996358378E+02  0.00000000000E+00 0.  1.
<scales pt_clust_5="13000.00000" pt_clust_6="13000.00000" pt_clust_7="13000.00000" pt_clust_8="13000.00000" pt_clust_9="38.50676"></scales>
<clustering>
<clus scale="   38.507">  1  9  2 -1</clus>
<clus scale="   89.913">  7  8 -1 -1</clus>
<clus scale="   90.625">  5  6 -1 -1</clus>
<clus scale="  100.294">  1  7  2 -1</clus>
<clus scale="   38.507">  1  5  2 -1</clus>
</clustering>
</event>
<event>
 9    1  0.1426358E-005  0.1330589E+03  0.7546771E-02  0.1223624E+00
         21   -1    0    0  501  502  0.00000000000E+00  0.00000000000E+00  0.32099570595E+03  0.32099570595E+03  0.00000000000E+00 0.  1.
         -2   -1    0    0    0  501 -0.00000000000E+00 -0.00000000000E+00 -0.10398904346E+03  0.10398904346E+03  0.00000000000E+00 0.  1.
         23    2    1    2    0    0 -0.94172152460E+02 -0.44897458727E+02  0.23312462697E+02  0.14213354172E+03  0.93671215777E+02 0.  0.
         23    2    1    2    0    0  0.89293764270E+02 -0.76822701133E+01  0.64291145202E+02  0.14308863369E+03  0.91151588734E+02 0.  0.
        -11    1    3    3    0    0 -0.87632804960E+02 -0.87245523453E+01  0.45573356644E+02  0.99159251483E+02  0.00000000000E+00 0.  1.
         11    1    3    3    0    0 -0.65393474998E+01 -0.36172906382E+02 -0.22260893948E+02  0.42974290235E+02  0.00000000000E+00 0. -1.
        -11    1    4    4    0    0  0.49938733820E+02  0.40655870927E+02  0.42039014174E+02  0.76902897794E+02  0.00000000000E+00 0. -1.
         11    1    4    4    0    0  0.39355030450E+02 -0.48338141041E+02  0.22252131028E+02  0.66185735897E+02  0.00000000000E+00 0.  1.
         -2    1    1    2    0  502  0.48783881901E+01  0.52579728840E+02  0.12940305458E+03  0.13976257400E+03  0.00000000000E+00 0.  1.
<scales pt_clust_5="13000.00000" pt_clust_6="13000.00000" pt_clust_7="13000.00000" pt_clust_8="13000.00000" pt_clust_9="52.80555"></scales>
<clustering>
<clus scale="   52.806">  1  9  2 -1</clus>
<clus scale="   91.152">  7  8 -1 -1</clus>
<clus scale="   93.671">  5  6 -1 -1</clus>
<clus scale="  131.297">  1  7  2 -1</clus>
<clus scale="   52.806">  1  5  2 -1</clus>
</clustering>
</event>
<event>
 9    1  0.1426358E-005  0.9330792E+02  0.7546771E-02  0.1305184E+00
         -1   -1    0    0    0  501 -0.00000000000E+00  0.00000000000E+00  0.50792692787E+02  0.50792692787E+02  0.00000000000E+00 0.  1.
         21   -1    0    0  501  502  0.00000000000E+00 -0.00000000000E+00 -0.24932017243E+03  0.24932017243E+03  0.00000000000E+00 0. -1.
         23    2    1    2    0    0 -0.65085474381E+01 -0.22230908803E+00 -0.27299906197E+02  0.80736814442E+02  0.75701636157E+02 0.  0.
         23    2    1    2    0    0  0.34206913057E+02  0.20013271691E+02 -0.10595021320E+03  0.14575529678E+03  0.91915803412E+02 0.  0.
        -11    1    4    4    0    0  0.43445966270E+02 -0.24249053367E+02 -0.32258704865E+02  0.59297492476E+02  0.00000000000E+00 0.  1.
         11    1    4    4    0    0 -0.92390532132E+01  0.44262325058E+02 -0.73691508340E+02  0.86457804305E+02  0.00000000000E+00 0. -1.
        -13    1    3    3    0    0 -0.10211975269E+02 -0.32388068301E+02 -0.33576078365E+02  0.47755883884E+02  0.00000000000E+00 0.  1.
         13    1    3    3    0    0  0.37034278310E+01  0.32165759213E+02  0.62761721672E+01  0.32980930559E+02  0.00000000000E+00 0. -1.
         -1    1    1    2    0  502 -0.27698365619E+02 -0.19790962603E+02 -0.65277360245E+02  0.73620753999E+02  0.00000000000E+00 0.  1.
<scales pt_clust_5="13000.00000" pt_clust_6="13000.00000" pt_clust_7="13000.00000" pt_clust_8="13000.00000" pt_clust_9="34.04235"></scales>
<clustering>
<clus scale="   34.042">  2  9  1 -1</clus>
<clus scale="   75.702">  7  8 -1 -1</clus>
<clus scale="   77.386">  1  7  2 -1</clus>
<clus scale="   91.916">  5  6 -1 -1</clus>
<clus scale="   34.042">  2  5  1 -1</clus>
</clustering>
</event>
<event>
 9    1  0.1570450E-005  0.1348947E+03  0.7546771E-02  0.1222222E+00
         21   -1    0    0  501  502  0.00000000000E+00  0.00000000000E+00  0.15850615404E+03  0.15850615404E+03  0.00000000000E+00 0.  1.
          1   -1    0    0  502    0 -0.00000000000E+00 -0.00000000000E+00 -0.38904014370E+03  0.38904014370E+03  0.00000000000E+00 0. -1.
         23    2    1    2    0    0  0.60168113227E+02  0.81454434933E+02 -0.33149388172E+03  0.35832715128E+03  0.90857728931E+02 0.  0.
         23    2    1    2    0    0 -0.36451524539E+02 -0.77054826133E+02  0.11133446031E+03  0.16296148467E+03  0.83035676432E+02 0.  0.
        -11    1    4    4    0    0 -0.25343910967E+02 -0.50373383419E+02  0.12016765989E+03  0.13274056676E+03  0.00000000000E+00 0.  1.
         11    1    4    4    0    0 -0.11107613572E+02 -0.26681442714E+02 -0.88331995764E+01  0.30220917910E+02  0.00000000000E+00 0. -1.
        -13    1    3    3    0    0  0.53694837212E+02  0.10120282530E+03 -0.29260107400E+03  0.31423006842E+03  0.00000000000E+00 0. -1.
         13    1    3    3    0    0  0.64732760147E+01 -0.19748390368E+02 -0.38892807721E+02  0.44097082862E+02  0.00000000000E+00 0.  1.
          1    1    1    2  501    0 -0.23716588688E+02 -0.43996088002E+01 -0.10374568255E+02  0.26257661797E+02  0.00000000000E+00 0. -1.
<scales pt_clust_5="13000.00000" pt_clust_6="13000.00000" pt_clust_7="13000.00000" pt_clust_8="13000.00000" pt_clust_9="24.12122"></scales>
<clustering>
<clus scale="   24.121">  1  9  2 -1</clus>
<clus scale="   83.036">  5  6 -1 -1</clus>
<clus scale="   90.858">  7  8 -1 -1</clus>
<clus scale="  129.755">  1  5  2 -1</clus>
<clus scale="   24.121">  1  5  2 -1</clus>
</clustering>
</event>
<event>
 9    1  0.1426358E-005  0.1406961E+03  0.7546771E-02  0.1232739E+00
         -1   -1    0    0    0  501 -0.00000000000E+00  0.00000000000E+00  0.54137037738E+02  0.54137037738E+02  0.00000000000E+00 0.  1.
         21   -1    0    0  501  502  0.00000000000E+00 -0.00000000000E+00 -0.63836153697E+03  0.63836153697E+03  0.00000000000E+00 0. -1.
         23    2    1    2    0    0 -0.52635074968E+01 -0.68608406847E+01 -0.53487207431E+02  0.10637514847E+03  0.91542422995E+02 0.  0.
         23    2    1    2    0    0 -0.92950586632E+02 -0.44620673317E+02 -0.27353608093E+03  0.30603626579E+03  0.90583620864E+02 0.  0.
        -11    1    4    4    0    0 -0.44665572762E+02  0.25696707204E+02 -0.11475409174E+03  0.12579282858E+03  0.00000000000E+00 0.  1.
         11    1    4    4    0    0 -0.48285013871E+02 -0.70317380521E+02 -0.15878198918E+03  0.18024343721E+03  0.00000000000E+00 0. -1.
        -13    1    3    3    0    0 -0.40301267697E+01 -0.49229014176E+02 -0.25553560197E+02  0.55612248627E+02  0.00000000000E+00 0. -1.
         13    1    3    3    0    0 -0.12333807271E+01  0.42368173492E+02 -0.27933647234E+02  0.50762899846E+02  0.00000000000E+00 0.  1.
         -1    1    1    2    0  502  0.98214094129E+02  0.51481514002E+02 -0.25720121087E+03  0.28008716044E+03  0.00000000000E+00 0.  1.
<scales pt_clust_5="13000.00000" pt_clust_6="13000.00000" pt_clust_7="13000.00000" pt_clust_8="13000.00000" pt_clust_9="107.65692"></scales>
<clustering>
<clus scale="   90.584">  5  6 -1 -1</clus>
<clus scale="   91.542">  7  8 -1 -1</clus>
<clus scale="   91.950">  1  7  2 -1</clus>
<clus scale="  107.657">  2  9  1 -1</clus>
<clus scale="  107.657">  2  5  1 -1</clus>
</clustering>
</event>
<event>
 9    1  0.1426358E-005  0.1205995E+03  0.7546771E-02  0.1245421E+00
         21   -1    0    0  501  502  0.00000000000E+00  0.00000000000E+00  0.16344892634E+03  0.16344892634E+03  0.00000000000E+00 0.  1.
         -4   -1    0    0    0  501 -0.00000000000E+00 -0.00000000000E+00 -0.11680396769E+03  0.11680396769E+03  0.00000000000E+00 0.  1.
         23    2    1    2    0    0 -0.20671401427E+01 -0.60956061384E+02  0.14142226456E+02  0.11123863270E+03  0.91946268809E+02 0.  0.
         23    2    1    2    0    0  0.10241267679E+02  0.96790571960E+02  0.13490190000E+02  0.12763304252E+03  0.81454956461E+02 0.  0.
        -11    1    3    3    0    0  0.17246595618E+02 -0.80263801939E+02  0.42952801549E+01  0.82208104185E+02  0.00000000000E+00 0. -1.
         11    1    3    3    0    0 -0.19313735761E+02  0.19307740555E+02  0.98469463007E+01  0.29030528514E+02  0.00000000000E+00 0.  1.
        -11    1    4    4    0    0  0.38072063034E+02  0.82361981525E+02  0.25197769871E+02  0.94169557666E+02  0.00000000000E+00 0.  1.
         11    1    4    4    0    0 -0.27830795355E+02  0.14428590435E+02 -0.11707579871E+02  0.33463484852E+02  0.00000000000E+00 0. -1.
         -4    1    1    2    0  502 -0.81741275366E+01 -0.35834510577E+02  0.19012542198E+02  0.41381218809E+02  0.00000000000E+00 0.  1.
<scales pt_clust_5="13000.00000" pt_clust_6="13000.00000" pt_clust_7="13000.00000" pt_clust_8="13000.00000" pt_clust_9="36.75498"></scales>
<clustering>
<clus scale="   36.755">  1  9  2 -1</clus>
<clus scale="   81.455">  7  8 -1 -1</clus>
<clus scale="   91.946">  5  6 -1 -1</clus>
<clus scale="  112.805">  1  7  2 -1</clus>
<clus scale="   36.755">  1  5  2 -1</clus>
</clustering>
</event>
<event>
 9    1  0.1426358E-005  0.1822311E+03  0.7546771E-02  0.1189799E+00
         21   -1    0    0  501  502  0.00000000000E+00  0.00000000000E+00  0.10038485123E+04  0.10038485123E+04  0.00000000000E+00 0. -1.
          1   -1    0    0  502    0 -0.00000000000E+00 -0.00000000000E+00 -0.16221831834E+03  0.16221831834E+03  0.00000000000E+00 0. -1.
         23    2    1    2    0    0  0.36269119206E+02  0.40162336760E+02  0.14115783005E+02  0.10662646375E+03  0.90782625761E+02 0.  0.
         23    2    1    2    0    0 -0.13931180220E+03 -0.15727882573E+03  0.10991777673E+02  0.22815023874E+03  0.88245708138E+02 0.  0.
        -13    1    4    4    0    0 -0.14474453315E+03 -0.11481050418E+03  0.13651328603E+02  0.18525331447E+03  0.00000000000E+00 0.  1.
         13    1    4    4    0    0  0.54327309526E+01 -0.42468321554E+02 -0.26595509303E+01  0.42896924276E+02  0.00000000000E+00 0. -1.
        -13    1    3    3    0    0 -0.26749868033E+02  0.23736982716E+02  0.20446036479E+02  0.41195147723E+02  0.00000000000E+00 0.  1.
         13    1    3    3    0    0  0.63018987238E+02  0.16425354044E+02 -0.63302534732E+01  0.65431316027E+02  0.00000000000E+00 0. -1.
          1    1    1    2  501    0  0.10304268300E+03  0.11711648897E+03  0.81652263327E+03  0.83129012815E+03  0.00000000000E+00 0. -1.
<scales pt_clust_5="13000.00000" pt_clust_6="13000.00000" pt_clust_7="13000.00000" pt_clust_8="13000.00000" pt_clust_9="159.43922"></scales>
<clustering>
<clus scale="   88.246">  5  6 -1 -1</clus>
<clus scale="   90.783">  7  8 -1 -1</clus>
<clus scale="  105.688">  2  7  1 -1</clus>
<clus scale="  159.439">  1  9  2 -1</clus>
<clus scale="  159.439">  1  5  2 -1</clus>
</clustering>
</event>
<event>
 9    1  0.1426358E-005  0.1218777E+03  0.7546771E-02  0.1240489E+00
          2   -1    0    0  502    0 -0.00000000000E+00  0.00000000000E+00  0.33240879425E+03  0.33240879425E+03  0.00000000000E+00 0. -1.
         21   -1    0    0  501  502  0.00000000000E+00 -0.00000000000E+00 -0.16241324115E+03  0.16241324115E+03  0.00000000000E+00 0. -1.
         23    2    1    2    0    0 -0.56397209147E+01 -0.84951056806E+02  0.23000889958E+03  0.26178367357E+03  0.91532012731E+02 0.  0.
         23    2    1    2    0    0  0.22953937882E+02  0.67148941636E+02  0.46474141362E+02  0.12369357467E+03  0.90024390979E+02 0.  0.
        -11    1    3    3    0    0 -0.22650146833E+02 -0.62702422350E+02  0.60660234797E+02  0.90134826819E+02  0.00000000000E+00 0.  1.
         11    1    3    3    0    0  0.17010425919E+02 -0.22248634456E+02  0.16934866478E+03  0.17164884675E+03  0.00000000000E+00 0. -1.
        -13    1    4    4    0    0  0.57403491017E+02  0.50107179222E+02  0.31021838672E+02  0.82269342195E+02  0.00000000000E+00 0. -1.
         13    1    4    4    0    0 -0.34449553135E+02  0.17041762415E+02  0.15452302690E+02  0.41424232471E+02  0.00000000000E+00 0.  1.
          2    1    1    2  501    0 -0.17314216967E+02  0.17802115169E+02 -0.10648748784E+03  0.10934478717E+03  0.00000000000E+00 0. -1.
<scales pt_clust_5="13000.00000" pt_clust_6="13000.00000" pt_clust_7="13000.00000" pt_clust_8="13000.00000" pt_clust_9="24.83339"></scales>
<clustering>
<clus scale="   24.833">  2  9  1 -1</clus>
<clus scale="   90.024">  7  8 -1 -1</clus>
<clus scale="   91.532">  5  6 -1 -1</clus>
<clus scale="  120.750">  2  7  1 -1</clus>
<clus scale="   24.833">  2  5  1 -1</clus>
</clustering>
</event>
<event>
 9    1  0.1426358E-005  0.2830081E+03  0.7546771E-02  0.1094095E+00
          1   -1    0    0  502    0 -0.00000000000E+00  0.00000000000E+00  0.16305383027E+04  0.16305383027E+04  0.00000000000E+00 0. -1.
         21   -1    0    0  501  502  0.00000000000E+00 -0.00000000000E+00 -0.70306724157E+02  0.70306724157E+02  0.00000000000E+00 0. -1.
         23    2    1    2    0    0 -0.25355860169E+03  0.96280090501E+02  0.10172911835E+04  0.10567079382E+04  0.90490300136E+02 0.  0.
         23    2    1    2    0    0  0.21972522179E+03 -0.15015299188E+03  0.46531179729E+03  0.54377182426E+03  0.91365387848E+02 0.  0.
        -13    1    3    3    0    0 -0.10751189529E+03  0.52858557101E+01  0.28985704818E+03  0.30919873266E+03  0.00000000000E+00 0. -1.
         13    1    3    3    0    0 -0.14604670641E+03  0.90994234791E+02  0.72743413527E+03  0.74750920554E+03  0.00000000000E+00 0.  1.
        -13    1    4    4    0    0  0.46029407115E+02 -0.73189738064E+02  0.10142795358E+03  0.13327818218E+03  0.00000000000E+00 0.  1.
         13    1    4    4    0    0  0.17369581467E+03 -0.76963253819E+02  0.36388384372E+03  0.41049364208E+03  0.00000000000E+00 0. -1.
          1    1    1    2  501    0  0.33833379905E+02  0.53872901382E+02  0.77628597771E+02  0.10036526436E+03  0.00000000000E+00 0. -1.
<scales pt_clust_5="13000.00000" pt_clust_6="13000.00000" pt_clust_7="13000.00000" pt_clust_8="13000.00000" pt_clust_9="63.61593"></scales>
<clustering>
<clus scale="   63.616">  2  9  1 -1</clus>
<clus scale="   90.490">  5  6 -1 -1</clus>
<clus scale="   91.365">  7  8 -1 -1</clus>
<clus scale="  282.727">  1  5  2 -1</clus>
<clus scale="   63.616">  2  5  1 -1</clus>
</clustering>
</event>
<event>
 9    1  0.1426358E-005  0.1500625E+03  0.7546771E-02  0.1223659E+00
         21   -1    0    0  501  502  0.00000000000E+00  0.00000000000E+00  0.11412917650E+03  0.11412917650E+03  0.00000000000E+00 0. -1.
          1   -1    0    0  502    0 -0.00000000000E+00 -0.00000000000E+00 -0.54968473512E+03  0.54968473512E+03  0.00000000000E+00 0. -1.
         23    2    1    2    0    0 -0.81596057751E+01  0.64066332522E+01 -0.37482673511E+03  0.38582519307E+03  0.90875597053E+02 0.  0.
         23    2    1    2    0    0  0.11121795539E+03 -0.60255520245E+02 -0.38353954992E+02  0.15957689146E+03  0.89406918653E+02 0.  0.
        -11    1    4    4    0    0  0.36955991432E+02  0.47712790141E+01  0.22585244298E+02  0.43572969444E+02  0.00000000000E+00 0.  1.
         11    1    4    4    0    0  0.74261963957E+02 -0.65026799259E+02 -0.60939199290E+02  0.11600392201E+03  0.00000000000E+00 0. -1.
        -11    1    3    3    0    0  0.31227015661E+02  0.31629428185E+02 -0.19685814486E+03  0.20181346941E+03  0.00000000000E+00 0. -1.
         11    1    3    3    0    0 -0.39386621436E+02 -0.25222794933E+02 -0.17796859025E+03  0.18401172367E+03  0.00000000000E+00 0.  1.
          1    1    1    2  501    0 -0.10305834961E+03  0.53848886993E+02 -0.22374868517E+02  0.11841182710E+03  0.00000000000E+00 0. -1.
<scales pt_clust_5="13000.00000" pt_clust_6="13000.00000" pt_clust_7="13000.00000" pt_clust_8="13000.00000" pt_clust_9="120.52035"></scales>
<clustering>
<clus scale="   89.407">  5  6 -1 -1</clus>
<clus scale="   90.876">  7  8 -1 -1</clus>
<clus scale="   91.466">  2  7  1 -1</clus>
<clus scale="  120.520">  1  9  2 -1</clus>
<clus scale="  120.520">  1  5  2 -1</clus>
</clustering>
</event>
<event>
 9    1  0.1426358E-005  0.1701238E+03  0.7546771E-02  0.1194232E+00
         -3   -1    0    0    0  501 -0.00000000000E+00  0.00000000000E+00  0.11257920849E+03  0.11257920849E+03  0.00000000000E+00 0.  1.
         21   -1    0    0  501  502  0.00000000000E+00 -0.00000000000E+00 -0.58287068867E+03  0.58287068867E+03  0.00000000000E+00 0.  1.
         23    2    1    2    0    0  0.60595431230E+00  0.68780929786E+02 -0.76976490071E+02  0.14073355387E+03  0.95652337544E+02 0.  0.
         23    2    1    2    0    0  0.88884096358E+02 -0.16887068248E+03 -0.10354640740E+03  0.23535407362E+03  0.90840472799E+02 0.  0.
        -11    1    4    4    0    0  0.70674319869E+02 -0.12014838517E+03 -0.11659588839E+03  0.18172808021E+03  0.00000000000E+00 0.  1.
         11    1    4    4    0    0  0.18209776489E+02 -0.48722297311E+02  0.13049480992E+02  0.53625993410E+02  0.00000000000E+00 0. -1.
        -13    1    3    3    0    0 -0.19862977409E+02  0.12725646086E+02 -0.77546615459E+02  0.81055274406E+02  0.00000000000E+00 0.  1.
         13    1    3    3    0    0  0.20468931721E+02  0.56055283700E+02  0.57012538777E+00  0.59678279461E+02  0.00000000000E+00 0. -1.
         -3    1    1    2    0  502 -0.89490050670E+02  0.10008975269E+03 -0.28976858271E+03  0.31936226967E+03  0.00000000000E+00 0.  1.
<scales pt_clust_5="13000.00000" pt_clust_6="13000.00000" pt_clust_7="13000.00000" pt_clust_8="13000.00000" pt_clust_9="143.84062"></scales>
<clustering>
<clus scale="   90.840">  5  6 -1 -1</clus>
<clus scale="   95.652">  7  8 -1 -1</clus>
<clus scale="  117.816">  1  7  2 -1</clus>
<clus scale="  143.841">  2  9  1 -1</clus>
<clus scale="  143.841">  2  5  1 -1</clus>
</clustering>
</event>
<event>
 9    1  0.1426358E-005  0.9713045E+02  0.7546771E-02  0.1286457E+00
          4   -1    0    0  502    0 -0.00000000000E+00  0.00000000000E+00  0.26256590455E+03  0.26256590455E+03  0.00000000000E+00 0. -1.
         21   -1    0    0  501  502  0.00000000000E+00 -0.00000000000E+00 -0.96531173879E+02  0.96531173879E+02  0.00000000000E+00 0. -1.
         23    2    1    2    0    0  0.39255182241E+02 -0.11371981598E+02  0.16605263437E+03  0.19384652745E+03  0.91283665172E+02 0.  0.
         23    2    1    2    0    0  0.11615812530E+02  0.17170710242E+02 -0.38500037977E+02  0.10120089819E+03  0.91266688774E+02 0.  0.
        -11    1    3    3    0    0 -0.10222938598E+02 -0.37772384402E+02  0.40386537831E+02  0.56234632878E+02  0.00000000000E+00 0.  1.
         11    1    3    3    0    0  0.49478120839E+02  0.26400402803E+02  0.12566609654E+03  0.13761189458E+03  0.00000000000E+00 0. -1.
        -11    1    4    4    0    0 -0.23276930310E+02 -0.17912807535E+02  0.10855114076E+02  0.31313218615E+02  0.00000000000E+00 0.  1.
         11    1    4    4    0    0  0.34892742840E+02  0.35083517777E+02 -0.49355152054E+02  0.69887679577E+02  0.00000000000E+00 0. -1.
          4    1    1    2  501    0 -0.50870994771E+02 -0.57987286436E+01  0.38482134282E+02  0.64049652784E+02  0.00000000000E+00 0. -1.
<scales pt_clust_5="13000.00000" pt_clust_6="13000.00000" pt_clust_7="13000.00000" pt_clust_8="13000.00000" pt_clust_9="51.20045"></scales>
<clustering>
<clus scale="   51.200">  2  9  1 -1</clus>
<clus scale="   91.267">  7  8 -1 -1</clus>
<clus scale="   91.284">  5  6 -1 -1</clus>
<clus scale="   97.114">  2  7  1 -1</clus>
<clus scale="   51.200">  2  5  1 -1</clus>
</clustering>
</event>
<event>
 9    1  0.1426358E-005  0.1403466E+03  0.7546771E-02  0.1231085E+00
         21   -1    0    0  501  502  0.00000000000E+00  0.00000000000E+00  0.54448684525E+02  0.54448684525E+02  0.00000000000E+00 0. -1.
          2   -1    0    0  502    0 -0.00000000000E+00 -0.00000000000E+00 -0.73540103039E+03  0.73540103039E+03  0.00000000000E+00 0. -1.
         23    2    1    2    0    0 -0.20647679160E+02 -0.21482974893E+02 -0.10422578593E+03  0.14159722033E+03  0.91098372590E+02 0.  0.
         23    2    1    2    0    0  0.10031823982E+03 -0.49271952968E+02 -0.49036856660E+03  0.51109797929E+03  0.90930406006E+02 0.  0.
        -11    1    3    3    0    0  0.19738411175E+01 -0.54793773615E+02 -0.51218346429E+02  0.75030478385E+02  0.00000000000E+00 0. -1.
         11    1    3    3    0    0 -0.22621520278E+02  0.33310798723E+02 -0.53007439500E+02  0.66566741948E+02  0.00000000000E+00 0.  1.
        -13    1    4    4    0    0  0.29515621885E+02 -0.53784696223E+02 -0.12919235638E+03  0.14301968546E+03  0.00000000000E+00 0.  1.
         13    1    4    4    0    0  0.70802617930E+02  0.45127432546E+01 -0.36117621022E+03  0.36807829383E+03  0.00000000000E+00 0. -1.
          2    1    1    2  501    0 -0.79670560655E+02  0.70754927861E+02 -0.86357993336E+02  0.13715451529E+03  0.00000000000E+00 0. -1.
<scales pt_clust_5="13000.00000" pt_clust_6="13000.00000" pt_clust_7="13000.00000" pt_clust_8="13000.00000" pt_clust_9="106.90569"></scales>
<clustering>
<clus scale="   90.930">  7  8 -1 -1</clus>
<clus scale="   91.098">  5  6 -1 -1</clus>
<clus scale="   95.848">  2  5  1 -1</clus>
<clus scale="  106.906">  1  9  2 -1</clus>
<clus scale="  106.906">  1  5  2 -1</clus>
</clustering>
</event>
<event>
 9    1  0.1426358E-005  0.1044498E+03  0.7546771E-02  0.1271595E+00
         21   -1    0    0  501  502  0.00000000000E+00  0.00000000000E+00  0.19346348360E+03  0.19346348360E+03  0.00000000000E+00 0.  1.
          3   -1    0    0  502    0 -0.00000000000E+00 -0.00000000000E+00 -0.17088243543E+03  0.17088243543E+03  0.00000000000E+00 0. -1.
         23    2    1    2    0    0  0.51514546669E+02  0.18011863179E+02 -0.11388345799E+03  0.15570788773E+03  0.91089673207E+02 0.  0.
         23    2    1    2    0    0 -0.36409732556E+02  0.14814697009E+02  0.43827637361E+02  0.10920298757E+03  0.91974381348E+02 0.  0.
        -11    1    4    4    0    0  0.96303021752E+01  0.42038950678E+02  0.33775902442E+02  0.54779810878E+02  0.00000000000E+00 0.  1.
         11    1    4    4    0    0 -0.46040034732E+02 -0.27224253668E+02  0.10051734919E+02  0.54423176688E+02  0.00000000000E+00 0. -1.
        -13    1    3    3    0    0 -0.15581280772E+02  0.28025322839E+02 -0.14054914428E+02  0.35010507712E+02  0.00000000000E+00 0.  1.
         13    1    3    3    0    0  0.67095827441E+02 -0.10013459659E+02 -0.99828543559E+02  0.12069738002E+03  0.00000000000E+00 0. -1.
          3    1    1    2  501    0 -0.15104814112E+02 -0.32826560189E+02  0.92636868794E+02  0.99435043738E+02  0.00000000000E+00 0. -1.
<scales pt_clust_5="13000.00000" pt_clust_6="13000.00000" pt_clust_7="13000.00000" pt_clust_8="13000.00000" pt_clust_9="36.13500"></scales>
<clustering>
<clus scale="   36.135">  1  9  2 -1</clus>
<clus scale="   91.090">  7  8 -1 -1</clus>
<clus scale="   91.974">  5  6 -1 -1</clus>
<clus scale="  103.672">  2  7  1 -1</clus>
<clus scale="   36.135">  1  5  2 -1</clus>
</clustering>
</event>
<event>
 9    1  0.1426358E-005  0.1104914E+03  0.7546771E-02  0.1262292E+00
          2   -1    0    0  502    0 -0.00000000000E+00  0.00000000000E+00  0.51933252450E+03  0.51933252450E+03  0.00000000000E+00 0. -1.
         21   -1    0    0  501  502  0.00000000000E+00 -0.00000000000E+00 -0.31949250935E+02  0.31949250935E+02  0.00000000000E+00 0. -1.
         23    2    1    2    0    0 -0.20845325608E+02 -0.57612849949E+02  0.32614694735E+03  0.34582081073E+03  0.97295600032E+02 0.  0.
         23    2    1    2    0    0  0.10038602146E+02  0.37802950715E+02  0.15129557777E+03  0.18080258157E+03  0.90936159103E+02 0.  0.
        -13    1    3    3    0    0  0.87388260256E+01 -0.51695784917E+02  0.30376162182E+03  0.30825305214E+03  0.00000000000E+00 0. -1.
         13    1    3    3    0    0 -0.29584151633E+02 -0.59170650324E+01  0.22385325527E+02  0.37567758589E+02  0.00000000000E+00 0.  1.
        -13    1    4    4    0    0  0.50523045058E+02  0.25773068087E+02  0.84170693258E+02  0.10149647641E+03  0.00000000000E+00 0.  1.
         13    1    4    4    0    0 -0.40484442912E+02  0.12029882629E+02  0.67124884515E+02  0.79306105156E+02  0.00000000000E+00 0. -1.
          2    1    1    2  501    0  0.10806723461E+02  0.19809899234E+02  0.99407484429E+01  0.24658383143E+02  0.00000000000E+00 0. -1.
<scales pt_clust_5="13000.00000" pt_clust_6="13000.00000" pt_clust_7="13000.00000" pt_clust_8="13000.00000" pt_clust_9="22.56585"></scales>
<clustering>
<clus scale="   22.566">  2  9  1 -1</clus>
<clus scale="   90.936">  7  8 -1 -1</clus>
<clus scale="   97.296">  5  6 -1 -1</clus>
<clus scale="  104.935">  2  7  1 -1</clus>
<clus scale="   22.566">  2  5  1 -1</clus>
</clustering>
</event>
<event>
 9    1  0.1426358E-005  0.1638124E+03  0.7546771E-02  0.1184539E+00
         -3   -1    0    0    0  501 -0.00000000000E+00  0.00000000000E+00  0.57538003729E+03  0.57538003729E+03  0.00000000000E+00 0.  1.
         21   -1    0    0  501  502  0.00000000000E+00 -0.00000000000E+00 -0.18542731331E+03  0.18542731331E+03  0.00000000000E+00 0.  1.
         23    2    1    2    0    0 -0.19882463879E+02  0.11415876240E+03  0.26375180601E+03  0.30229474474E+03  0.91594552902E+02 0.  0.
         23    2    1    2    0    0  0.84912635914E+01 -0.16991950300E+03  0.25377982855E+03  0.31881508239E+03  0.91072039212E+02 0.  0.
        -11    1    3    3    0    0  0.27104823824E+02  0.40127556879E+02  0.42977456512E+02  0.64745301481E+02  0.00000000000E+00 0.  1.
         11    1    3    3    0    0 -0.46987287703E+02  0.74031205523E+02  0.22077434950E+03  0.23754944326E+03  0.00000000000E+00 0. -1.
        -11    1    4    4    0    0 -0.13877925582E+02 -0.10183661479E+03  0.21265632754E+03  0.23619061492E+03  0.00000000000E+00 0.  1.
         11    1    4    4    0    0  0.22369189174E+02 -0.68082888203E+02  0.41123501004E+02  0.82624467473E+02  0.00000000000E+00 0. -1.
         -3    1    1    2    0  502  0.11391200288E+02  0.55760740596E+02 -0.12757891059E+03  0.13969752346E+03  0.00000000000E+00 0.  1.
<scales pt_clust_5="13000.00000" pt_clust_6="13000.00000" pt_clust_7="13000.00000" pt_clust_8="13000.00000" pt_clust_9="56.91239"></scales>
<clustering>
<clus scale="   56.912">  2  9  1 -1</clus>
<clus scale="   91.072">  7  8 -1 -1</clus>
<clus scale="   91.595">  5  6 -1 -1</clus>
<clus scale="  163.521">  2  7  1 -1</clus>
<clus scale="   56.912">  2  5  1 -1</clus>
</clustering>
</event>
<event>
 9    1  0.1426358E-005  0.9976781E+02  0.7546771E-02  0.1282392E+00
          1   -1    0    0  502    0 -0.00000000000E+00  0.00000000000E+00  0.17111043680E+03  0.17111043680E+03  0.00000000000E+00 0. -1.
         21   -1    0    0  501  502  0.00000000000E+00 -0.00000000000E+00 -0.41467041149E+03  0.41467041149E+03  0.00000000000E+00 0. -1.
         23    2    1    2    0    0  0.26358765630E+02  0.55563191860E+02  0.81035018623E+02  0.13680613402E+03  0.91472352364E+02 0.  0.
         23    2    1    2    0    0  0.72668208925E+00 -0.15596650359E+02  0.27416516701E+02  0.93667735594E+02  0.88194079926E+02 0.  0.
        -11    1    3    3    0    0 -0.18533715478E+02  0.46337960436E+02  0.79446110166E+01  0.50535354268E+02  0.00000000000E+00 0.  1.
         11    1    3    3    0    0  0.44892481109E+02  0.92252314242E+01  0.73090407606E+02  0.86270779752E+02  0.00000000000E+00 0. -1.
        -11    1    4    4    0    0  0.18382988795E+02  0.32849422868E+02  0.74484029450E+01  0.38373135997E+02  0.00000000000E+00 0. -1.
         11    1    4    4    0    0 -0.17656306706E+02 -0.48446073227E+02  0.19968113756E+02  0.55294599597E+02  0.00000000000E+00 0.  1.
          1    1    1    2  501    0 -0.27085447719E+02 -0.39966541501E+02 -0.35201151001E+03  0.35530697868E+03  0.00000000000E+00 0. -1.
<scales pt_clust_5="13000.00000" pt_clust_6="13000.00000" pt_clust_7="13000.00000" pt_clust_8="13000.00000" pt_clust_9="48.27987"></scales>
<clustering>
<clus scale="   48.280">  2  9  1 -1</clus>
<clus scale="   88.194">  7  8 -1 -1</clus>
<clus scale="   91.472">  5  6 -1 -1</clus>
<clus scale="   96.771">  2  7  1 -1</clus>
<clus scale="   48.280">  2  5  1 -1</clus>
</clustering>
</event>
<event>
 9    1  0.1426358E-005  0.9538525E+02  0.7546771E-02  0.1290618E+00
         21   -1    0    0  501  502  0.00000000000E+00  0.00000000000E+00  0.16758931357E+03  0.16758931357E+03  0.00000000000E+00 0. -1.
          1   -1    0    0  502    0 -0.00000000000E+00 -0.00000000000E+00 -0.79062021205E+02  0.79062021205E+02  0.00000000000E+00 0. -1.
         23    2    1    2    0    0  0.32871145766E+02 -0.11436054810E+02  0.10034340873E+02  0.98745951548E+02  0.91862829136E+02 0.  0.
         23    2    1    2    0    0 -0.88251720148E+01  0.14606415728E+02  0.37268087785E+02  0.10007495954E+03  0.91295433178E+02 0.  0.
        -11    1    4    4    0    0  0.40633180064E+02  0.14717177476E+02  0.20674720756E+02  0.47907146787E+02  0.00000000000E+00 0. -1.
         11    1    4    4    0    0 -0.49458352078E+02 -0.11076174777E+00  0.16593367029E+02  0.52167812757E+02  0.00000000000E+00 0.  1.
        -11    1    3    3    0    0  0.25589665436E+02 -0.39409393789E+02  0.36542829857E+02  0.59525706295E+02  0.00000000000E+00 0.  1.
         11    1    3    3    0    0  0.72814803297E+01  0.27973338980E+02 -0.26508488984E+02  0.39220245253E+02  0.00000000000E+00 0. -1.
          1    1    1    2  501    0 -0.24045973751E+02 -0.31703609186E+01  0.41224863710E+02  0.47830423685E+02  0.00000000000E+00 0. -1.
<scales pt_clust_5="13000.00000" pt_clust_6="13000.00000" pt_clust_7="13000.00000" pt_clust_8="13000.00000" pt_clust_9="24.25407"></scales>
<clustering>
<clus scale="   24.254">  1  9  2 -1</clus>
<clus scale="   91.295">  5  6 -1 -1</clus>
<clus scale="   91.863">  7  8 -1 -1</clus>
<clus scale="   94.839">  1  5  2 -1</clus>
<clus scale="   24.254">  1  5  2 -1</clus>
</clustering>
</event>
<event>
 9    1  0.1426358E-005  0.1338701E+03  0.7546771E-02  0.1223243E+00
         21   -1    0    0  501  502  0.00000000000E+00  0.00000000000E+00  0.15154092770E+03  0.15154092770E+03  0.00000000000E+00 0.  1.
          1   -1    0    0  502    0 -0.00000000000E+00 -0.00000000000E+00 -0.26663422196E+03  0.26663422196E+03  0.00000000000E+00 0. -1.
         23    2    1    2    0    0  0.50972691492E+02  0.81201560071E+02 -0.19882922192E+03  0.23914503156E+03  0.92007488804E+02 0.  0.
         23    2    1    2    0    0 -0.39159104736E+02 -0.98894227551E+02  0.70942864649E+02  0.15420565887E+03  0.86214798365E+02 0.  0.
        -11    1    4    4    0    0 -0.59938642247E+02 -0.51458911784E+02  0.64567699391E+02  0.10202768370E+03  0.00000000000E+00 0.  1.
         11    1    4    4    0    0  0.20779537511E+02 -0.47435315767E+02  0.63751652573E+01  0.52177975173E+02  0.00000000000E+00 0. -1.
        -13    1    3    3    0    0  0.74528021132E+02  0.52074763841E+02 -0.16630931368E+03  0.18953890044E+03  0.00000000000E+00 0. -1.
         13    1    3    3    0    0 -0.23555329640E+02  0.29126796229E+02 -0.32519908238E+02  0.49606131121E+02  0.00000000000E+00 0.  1.
          1    1    1    2  501    0 -0.11813586756E+02  0.17692667481E+02  0.12793063015E+02  0.24824459227E+02  0.00000000000E+00 0. -1.
<scales pt_clust_5="13000.00000" pt_clust_6="13000.00000" pt_clust_7="13000.00000" pt_clust_8="13000.00000" pt_clust_9="21.27419"></scales>
<clustering>
<clus scale="   21.274">  1  9  2 -1</clus>
<clus scale="   86.215">  5  6 -1 -1</clus>
<clus scale="   92.007">  7  8 -1 -1</clus>
<clus scale="  129.957">  1  5  2 -1</clus>
<clus scale="   21.274">  1  5  2 -1</clus>
</clustering>
</event>
<event>
 9    1  0.1426358E-005  0.1275803E+03  0.7546771E-02  0.1231545E+00
         21   -1    0    0  501  502  0.00000000000E+00  0.00000000000E+00  0.14991391852E+03  0.14991391852E+03  0.00000000000E+00 0. -1.
          1   -1    0    0  502    0 -0.00000000000E+00 -0.00000000000E+00 -0.16592593183E+03  0.16592593183E+03  0.00000000000E+00 0. -1.
         23    2    1    2    0    0  0.76733192271E+02 -0.11323423489E+02 -0.24319768636E+02  0.12226250999E+03  0.91326159929E+02 0.  0.
         23    2    1    2    0    0 -0.99555743796E+02 -0.21574667569E+02 -0.26606256980E+02  0.14045350852E+03  0.92964954374E+02 0.  0.
        -13    1    3    3    0    0  0.49192848200E+02 -0.42406133534E+02 -0.41766406365E+02  0.77218192001E+02  0.00000000000E+00 0. -1.
         13    1    3    3    0    0  0.27540344071E+02  0.31082710044E+02  0.17446637728E+02  0.45044317991E+02  0.00000000000E+00 0.  1.
        -13    1    4    4    0    0 -0.59068487655E+02  0.34716715770E+02 -0.15223614739E+02  0.70186145595E+02  0.00000000000E+00 0.  1.
         13    1    4    4    0    0 -0.40487256140E+02 -0.56291383340E+02 -0.11382642241E+02  0.70267362925E+02  0.00000000000E+00 0. -1.
          1    1    1    2  501    0  0.22822551525E+02  0.32898091059E+02  0.34914012310E+02  0.53123831836E+02  0.00000000000E+00 0. -1.
<scales pt_clust_5="13000.00000" pt_clust_6="13000.00000" pt_clust_7="13000.00000" pt_clust_8="13000.00000" pt_clust_9="40.03940"></scales>
<clustering>
<clus scale="   40.039">  1  9  2 -1</clus>
<clus scale="   91.326">  5  6 -1 -1</clus>
<clus scale="   92.965">  7  8 -1 -1</clus>
<clus scale="  126.391">  2  5  1 -1</clus>
<clus scale="   40.039">  1  5  2 -1</clus>
</clustering>
</event>
<event>
 9    1  0.1426358E-005  0.1177169E+03  0.7546771E-02  0.1248510E+00
          1   -1    0    0  502    0 -0.00000000000E+00  0.00000000000E+00  0.24614198192E+03  0.24614198192E+03  0.00000000000E+00 0. -1.
         21   -1    0    0  501  502  0.00000000000E+00 -0.00000000000E+00 -0.80398080851E+02  0.80398080851E+02  0.00000000000E+00 0. -1.
         23    2    1    2    0    0  0.50947901904E+02 -0.29946527699E+02  0.71247562844E+02  0.13177745667E+03  0.93790189489E+02 0.  0.
         23    2    1    2    0    0 -0.89493935558E+02  0.11239695378E+02  0.62857104769E+02  0.14150114368E+03  0.89084582219E+02 0.  0.
        -11    1    4    4    0    0  0.12908054252E+02  0.20200875554E+02  0.11284453227E+02  0.26495888782E+02  0.00000000000E+00 0.  1.
         11    1    4    4    0    0 -0.10240198981E+03 -0.89611801752E+01  0.51572651543E+02  0.11500525490E+03  0.00000000000E+00 0. -1.
        -13    1    3    3    0    0 -0.13790005168E+02  0.20731897110E+02  0.32356567065E+02  0.40827971203E+02  0.00000000000E+00 0.  1.
         13    1    3    3    0    0  0.64737907071E+02 -0.50678424809E+02  0.38890995779E+02  0.90949485462E+02  0.00000000000E+00 0. -1.
          1    1    1    2  501    0  0.38546033654E+02  0.18706832320E+02  0.31639233455E+02  0.53261462424E+02  0.00000000000E+00 0. -1.
<scales pt_clust_5="13000.00000" pt_clust_6="13000.00000" pt_clust_7="13000.00000" pt_clust_8="13000.00000" pt_clust_9="42.84558"></scales>
<clustering>
<clus scale="   42.846">  2  9  1 -1</clus>
<clus scale="   89.085">  5  6 -1 -1</clus>
<clus scale="   93.790">  7  8 -1 -1</clus>
<clus scale="  114.003">  2  5  1 -1</clus>
<clus scale="   42.846">  2  5  1 -1</clus>
</clustering>
</event>
<event>
 9    1  0.1426358E-005  0.1395701E+03  0.7546771E-02  0.1214977E+00
         21   -1    0    0  501  502  0.00000000000E+00  0.00000000000E+00  0.79895317801E+02  0.79895317801E+02  0.00000000000E+00 0.  1.
         -3   -1    0    0    0  501 -0.00000000000E+00 -0.00000000000E+00 -0.74767440884E+03  0.74767440884E+03  0.00000000000E+00 0.  1.
         23    2    1    2    0    0  0.12096928749E+03 -0.38517598709E+02 -0.59215410659E+03  0.61247459153E+03  0.91441048734E+02 0.  0.
         23    2    1    2    0    0 -0.55020307986E+02  0.17279560000E+02 -0.97351524646E+02  0.14248408406E+03  0.86594326451E+02 0.  0.
        -11    1    3    3    0    0  0.12151990609E+03 -0.59085609489E+02 -0.53230691122E+03  0.54918926115E+03  0.00000000000E+00 0.  1.
         11    1    3    3    0    0 -0.55061860438E+00  0.20568010779E+02 -0.59847195373E+02  0.63285330388E+02  0.00000000000E+00 0. -1.
        -13    1    4    4    0    0 -0.25799182220E+02 -0.17341144312E+02  0.41208565827E+01  0.31357527776E+02  0.00000000000E+00 0.  1.
         13    1    4    4    0    0 -0.29221125766E+02  0.34620704313E+02 -0.10147238123E+03  0.11112655628E+03  0.00000000000E+00 0. -1.
         -3    1    1    2    0  502 -0.65948979504E+02  0.21238038709E+02  0.21726540201E+02  0.72611051052E+02  0.00000000000E+00 0.  1.
<scales pt_clust_5="13000.00000" pt_clust_6="13000.00000" pt_clust_7="13000.00000" pt_clust_8="13000.00000" pt_clust_9="69.28436"></scales>
<clustering>
<clus scale="   69.284">  1  9  2 -1</clus>
<clus scale="   86.594">  7  8 -1 -1</clus>
<clus scale="   91.441">  5  6 -1 -1</clus>
<clus scale="  136.444">  1  7  2 -1</clus>
<clus scale="   69.284">  1  5  2 -1</clus>
</clustering>
</event>
<event>
 9    1  0.1426358E-005  0.9413596E+02  0.7546771E-02  0.1293474E+00
          2   -1    0    0  502    0 -0.00000000000E+00  0.00000000000E+00  0.48086172525E+03  0.48086172525E+03  0.00000000000E+00 0. -1.
         21   -1    0    0  501  502  0.00000000000E+00 -0.00000000000E+00 -0.31898831100E+02  0.31898831100E+02  0.00000000000E+00 0.  1.
         23    2    1    2    0    0  0.10971908159E+02  0.23065259419E+02  0.23211582856E+03  0.25100765416E+03  0.92058110023E+02 0.  0.
         23    2    1    2    0    0 -0.17144580242E+02  0.60447120052E+01  0.21135936375E+03  0.23149390041E+03  0.92661589178E+02 0.  0.
        -13    1    4    4    0    0 -0.39774584879E+02  0.12064003903E+02  0.20207236253E+03  0.20630268416E+03  0.00000000000E+00 0. -1.
         13    1    4    4    0    0  0.22630004636E+02 -0.60192918980E+01  0.92870012215E+01  0.25191216257E+02  0.00000000000E+00 0.  1.
        -13    1    3    3    0    0  0.41804733476E+02  0.28615685874E+02  0.19930257306E+03  0.20564048446E+03  0.00000000000E+00 0.  1.
         13    1    3    3    0    0 -0.30832825316E+02 -0.55504264556E+01  0.32813255495E+02  0.45367169705E+02  0.00000000000E+00 0. -1.
          2    1    1    2  501    0  0.61726720830E+01 -0.29109971424E+02  0.54877018456E+01  0.30259001776E+02  0.00000000000E+00 0. -1.
<scales pt_clust_5="13000.00000" pt_clust_6="13000.00000" pt_clust_7="13000.00000" pt_clust_8="13000.00000" pt_clust_9="29.75722"></scales>
<clustering>
<clus scale="   29.757">  2  9  1 -1</clus>
<clus scale="   92.058">  7  8 -1 -1</clus>
<clus scale="   92.662">  5  6 -1 -1</clus>
<clus scale="   93.542">  1  7  2 -1</clus>
<clus scale="   29.757">  2  5  1 -1</clus>
</clustering>
</event>
<event>
 9    1  0.2666590E-005  0.1280000E+03  0.7546771E-02  0.1230663E+00
         -1   -1    0    0    0  501 -0.00000000000E+00  0.00000000000E+00  0.12869420948E+03  0.12869420948E+03  0.00000000000E+00 0.  1.
         21   -1    0    0  501  502  0.00000000000E+00 -0.00000000000E+00 -0.63850593697E+03  0.63850593697E+03  0.00000000000E+00 0. -1.
         23    2    1    2    0    0 -0.86075367763E+02 -0.74737124207E+00  0.78733531054E+02  0.14896327286E+03  0.92636711139E+02 0.  0.
         23    2    1    2    0    0  0.12144753146E+03 -0.25395987512E+01 -0.50460285737E+03  0.52708688263E+03  0.91872660336E+02 0.  0.
        -11    1    4    4    0    0  0.60628197010E+02  0.33618870318E+02 -0.14668315788E+03  0.16224042505E+03  0.00000000000E+00 0.  1.
         11    1    4    4    0    0  0.60819334446E+02 -0.36158469070E+02 -0.35791969949E+03  0.36484645758E+03  0.00000000000E+00 0. -1.
        -13    1    3    3    0    0 -0.10316647965E+03  0.12404197757E+02  0.57775421364E+02  0.11889148817E+03  0.00000000000E+00 0.  1.
         13    1    3    3    0    0  0.17091111890E+02 -0.13151568999E+02  0.20958109690E+02  0.30071784691E+02  0.00000000000E+00 0. -1.
         -1    1    1    2    0  502 -0.35372163693E+02  0.32869699933E+01 -0.83942401183E+02  0.91149990962E+02  0.00000000000E+00 0.  1.
<scales pt_clust_5="13000.00000" pt_clust_6="13000.00000" pt_clust_7="13000.00000" pt_clust_8="13000.00000" pt_clust_9="35.52456"></scales>
<clustering>
<clus scale="   35.525">  2  9  1 -1</clus>
<clus scale="   91.873">  5  6 -1 -1</clus>
<clus scale="   92.637">  7  8 -1 -1</clus>
<clus scale="  127.448">  2  5  1 -1</clus>
<clus scale="   35.525">  2  5  1 -1</clus>
</clustering>
</event>
<event>
 9    1  0.1426358E-005  0.1033968E+03  0.7546771E-02  0.1274383E+00
          1   -1    0    0  502    0 -0.00000000000E+00  0.00000000000E+00  0.54754204449E+03  0.54754204449E+03  0.00000000000E+00 0. -1.
         21   -1    0    0  501  502  0.00000000000E+00 -0.00000000000E+00 -0.56410007251E+02  0.56410007251E+02  0.00000000000E+00 0. -1.
         23    2    1    2    0    0  0.55260928406E+02 -0.24055693022E+02  0.36292900850E+03  0.37900459097E+03  0.91074519978E+02 0.  0.
         23    2    1    2    0    0 -0.19862759881E+02 -0.90706475007E+01  0.14480756562E+03  0.17370201789E+03  0.93414956406E+02 0.  0.
        -11    1    4    4    0    0 -0.19720072844E+02 -0.43356314385E+02  0.12576614507E+03  0.13448336149E+03  0.00000000000E+00 0. -1.
         11    1    4    4    0    0 -0.14268703741E+00  0.34285666885E+02  0.19041420548E+02  0.39218656400E+02  0.00000000000E+00 0.  1.
        -13    1    3    3    0    0  0.45989541164E+02 -0.51773390826E+02  0.31765817901E+03  0.32511880995E+03  0.00000000000E+00 0. -1.
         13    1    3    3    0    0  0.92713872424E+01  0.27717697803E+02  0.45270829498E+02  0.53885781022E+02  0.00000000000E+00 0.  1.
          1    1    1    2  501    0 -0.35398168525E+02  0.33126340523E+02 -0.16604536883E+02  0.51245442885E+02  0.00000000000E+00 0. -1.
<scales pt_clust_5="13000.00000" pt_clust_6="13000.00000" pt_clust_7="13000.00000" pt_clust_8="13000.00000" pt_clust_9="48.48077"></scales>
<clustering>
<clus scale="   48.481">  2  9  1 -1</clus>
<clus scale="   91.075">  7  8 -1 -1</clus>
<clus scale="   93.415">  5  6 -1 -1</clus>
<clus scale="  101.287">  1  7  2 -1</clus>
<clus scale="   48.481">  2  5  1 -1</clus>
</clustering>
</event>
<event>
 9    1  0.1426358E-005  0.1452306E+03  0.7546771E-02  0.1206516E+00
         -4   -1    0    0    0  501 -0.00000000000E+00  0.00000000000E+00  0.16961379520E+03  0.16961379520E+03  0.00000000000E+00 0.  1.
         21   -1    0    0  501  502  0.00000000000E+00 -0.00000000000E+00 -0.66045043211E+03  0.66045043211E+03  0.00000000000E+00 0.  1.
         23    2    1    2    0    0  0.83314263742E+02 -0.55864614602E+02  0.79714102498E+02  0.15786550994E+03  0.92222878857E+02 0.  0.
         23    2    1    2    0    0 -0.13857333122E+03  0.13670665968E+03 -0.21831641514E+03  0.30660602054E+03  0.91945178133E+02 0.  0.
        -11    1    4    4    0    0 -0.92449733939E+02  0.89489865271E+02 -0.20050552639E+03  0.23823907195E+03  0.00000000000E+00 0. -1.
         11    1    4    4    0    0 -0.46123597281E+02  0.47216794413E+02 -0.17810888751E+02  0.68366948585E+02  0.00000000000E+00 0.  1.
        -11    1    3    3    0    0  0.53931794313E+02 -0.81186839322E+02  0.56389475876E+02  0.11260423752E+03  0.00000000000E+00 0.  1.
         11    1    3    3    0    0  0.29382469429E+02  0.25322224721E+02  0.23324626622E+02  0.45261272426E+02  0.00000000000E+00 0. -1.
         -4    1    1    2    0  502  0.55259067477E+02 -0.80842045083E+02 -0.35223432427E+03  0.36559269684E+03  0.00000000000E+00 0.  1.
<scales pt_clust_5="13000.00000" pt_clust_6="13000.00000" pt_clust_7="13000.00000" pt_clust_8="13000.00000" pt_clust_9="97.92344"></scales>
<clustering>
<clus scale="   91.945">  5  6 -1 -1</clus>
<clus scale="   92.223">  7  8 -1 -1</clus>
<clus scale="   97.923">  2  9  1 -1</clus>
<clus scale="  145.054">  2  5  1 -1</clus>
<clus scale="   97.923">  2  5  1 -1</clus>
</clustering>
</event>
<event>
 9    1  0.1426358E-005  0.9335884E+02  0.7546771E-02  0.1297197E+00
         21   -1    0    0  501  502  0.00000000000E+00  0.00000000000E+00  0.30912752400E+03  0.30912752400E+03  0.00000000000E+00 0.  1.
          3   -1    0    0  502    0 -0.00000000000E+00 -0.00000000000E+00 -0.19556106054E+03  0.19556106054E+03  0.00000000000E+00 0. -1.
         23    2    1    2    0    0 -0.10029782865E+02  0.94634436549E+01 -0.16903200716E+03  0.19297547092E+03  0.92073664108E+02 0.  0.
         23    2    1    2    0    0  0.38200624842E+02 -0.24231717871E+02  0.19985661971E+03  0.22306824827E+03  0.88149367877E+02 0.  0.
        -11    1    3    3    0    0  0.25969218390E+02  0.37810789310E+02 -0.10129095056E+03  0.11119313269E+03  0.00000000000E+00 0. -1.
         11    1    3    3    0    0 -0.35999001255E+02 -0.28347345656E+02 -0.67741056593E+02  0.81782338224E+02  0.00000000000E+00 0.  1.
        -13    1    4    4    0    0 -0.53965605313E+01 -0.48505269416E+02  0.10853550021E+03  0.11900352445E+03  0.00000000000E+00 0.  1.
         13    1    4    4    0    0  0.43597185373E+02  0.24273551545E+02  0.91321119496E+02  0.10406472382E+03  0.00000000000E+00 0. -1.
          3    1    1    2  501    0 -0.28170841977E+02  0.14768274216E+02  0.82741850910E+02  0.88644865351E+02  0.00000000000E+00 0. -1.
<scales pt_clust_5="13000.00000" pt_clust_6="13000.00000" pt_clust_7="13000.00000" pt_clust_8="13000.00000" pt_clust_9="31.80720"></scales>
<clustering>
<clus scale="   31.807">  1  9  2 -1</clus>
<clus scale="   88.149">  7  8 -1 -1</clus>
<clus scale="   89.491">  1  7  2 -1</clus>
<clus scale="   92.074">  5  6 -1 -1</clus>
<clus scale="   31.807">  1  5  2 -1</clus>
</clustering>
</event>
<event>
 9    1  0.1426358E-005  0.1080689E+03  0.7546771E-02  0.1264553E+00
          1   -1    0    0  502    0 -0.00000000000E+00  0.00000000000E+00  0.43160618195E+03  0.43160618195E+03  0.00000000000E+00 0. -1.
         21   -1    0    0  501  502  0.00000000000E+00 -0.00000000000E+00 -0.44175488936E+02  0.44175488936E+02  0.00000000000E+00 0. -1.
         23    2    1    2    0    0 -0.24154606101E+02 -0.59044229007E+02  0.26716757426E+03  0.28958950580E+03  0.91727330475E+02 0.  0.
         23    2    1    2    0    0  0.26246675223E+02  0.31214178681E+02  0.51732672679E+02  0.11219682406E+03  0.90822051268E+02 0.  0.
        -11    1    3    3    0    0 -0.37165281621E+02 -0.78830211133E+02  0.22393410708E+03  0.24029553608E+03  0.00000000000E+00 0. -1.
         11    1    3    3    0    0  0.13010675519E+02  0.19785982126E+02  0.43233467186E+02  0.49293969724E+02  0.00000000000E+00 0.  1.
        -11    1    4    4    0    0 -0.18348243487E+02  0.15268080697E+02 -0.16586893718E+02  0.29067118372E+02  0.00000000000E+00 0.  1.
         11    1    4    4    0    0  0.44594918710E+02  0.15946097984E+02  0.68319566397E+02  0.83129705692E+02  0.00000000000E+00 0. -1.
          1    1    1    2  501    0 -0.20920691215E+01  0.27830050326E+02  0.68530446068E+02  0.73995341020E+02  0.00000000000E+00 0. -1.
<scales pt_clust_5="13000.00000" pt_clust_6="13000.00000" pt_clust_7="13000.00000" pt_clust_8="13000.00000" pt_clust_9="27.90859"></scales>
<clustering>
<clus scale="   27.909">  2  9  1 -1</clus>
<clus scale="   90.822">  7  8 -1 -1</clus>
<clus scale="   91.727">  5  6 -1 -1</clus>
<clus scale="  107.302">  2  7  1 -1</clus>
<clus scale="   27.909">  2  5  1 -1</clus>
</clustering>
</event>
<event>
 9    1  0.1426358E-005  0.1296065E+03  0.7546771E-02  0.1229133E+00
          2   -1    0    0  502    0 -0.00000000000E+00  0.00000000000E+00  0.86245866966E+03  0.86245866966E+03  0.00000000000E+00 0. -1.
         21   -1    0    0  501  502  0.00000000000E+00 -0.00000000000E+00 -0.68187350251E+02  0.68187350251E+02  0.00000000000E+00 0. -1.
         23    2    1    2    0    0 -0.16914290227E+02 -0.10155128212E+03  0.74011962121E+03  0.75289982336E+03  0.92099588487E+02 0.  0.
         23    2    1    2    0    0 -0.93006973480E+00  0.26533517034E+02  0.24246902338E+02  0.95039588128E+02  0.87975669833E+02 0.  0.
        -11    1    4    4    0    0 -0.22383030695E+02 -0.23690914122E+02 -0.51809214212E+01  0.33001536658E+02  0.00000000000E+00 0.  1.
         11    1    4    4    0    0  0.21452960961E+02  0.50224431156E+02  0.29427823759E+02  0.62038051469E+02  0.00000000000E+00 0. -1.
        -13    1    3    3    0    0 -0.54314176154E+02 -0.70913402312E+02  0.45004061540E+03  0.45881945890E+03  0.00000000000E+00 0.  1.
         13    1    3    3    0    0  0.37399885927E+02 -0.30637879810E+02  0.29007900581E+03  0.29408036446E+03  0.00000000000E+00 0. -1.
          2    1    1    2  501    0  0.17844359962E+02  0.75017765088E+02  0.29904795859E+02  0.82706608422E+02  0.00000000000E+00 0. -1.
<scales pt_clust_5="13000.00000" pt_clust_6="13000.00000" pt_clust_7="13000.00000" pt_clust_8="13000.00000" pt_clust_9="77.11087"></scales>
<clustering>
<clus scale="   77.111">  2  9  1 -1</clus>
<clus scale="   87.976">  5  6 -1 -1</clus>
<clus scale="   92.100">  7  8 -1 -1</clus>
<clus scale="  126.709">  2  5  1 -1</clus>
<clus scale="   77.111">  2  5  1 -1</clus>
</clustering>
</event>
<event>
 9    1  0.1426358E-005  0.1125955E+03  0.7546771E-02  0.1256726E+00
         21   -1    0    0  501  502  0.00000000000E+00  0.00000000000E+00  0.99093864529E+02  0.99093864529E+02  0.00000000000E+00 0. -1.
          3   -1    0    0  502    0 -0.00000000000E+00 -0.00000000000E+00 -0.28137461598E+03  0.28137461598E+03  0.00000000000E+00 0. -1.
         23    2    1    2    0    0  0.52251554640E+02  0.15178843944E+01 -0.12800166458E+03  0.16718253883E+03  0.93984287078E+02 0.  0.
         23    2    1    2    0    0 -0.73070890180E+02 -0.27906961868E+02 -0.99979905782E+02  0.15655505950E+03  0.91626151197E+02 0.  0.
        -11    1    4    4    0    0 -0.26919579134E+02  0.14895144254E+02  0.78020128205E+01  0.31739572573E+02  0.00000000000E+00 0.  1.
         11    1    4    4    0    0 -0.46151311046E+02 -0.42802106122E+02 -0.10778191860E+03  0.12481548693E+03  0.00000000000E+00 0. -1.
        -13    1    3    3    0    0  0.53084206415E+02 -0.29044599906E+02 -0.12177598146E+03  0.13598129068E+03  0.00000000000E+00 0. -1.
         13    1    3    3    0    0 -0.83265177547E+00  0.30562484300E+02 -0.62256831221E+01  0.31201248147E+02  0.00000000000E+00 0.  1.
          3    1    1    2  501    0  0.20819335540E+02  0.26389077474E+02  0.45700818920E+02  0.56730882174E+02  0.00000000000E+00 0. -1.
<scales pt_clust_5="13000.00000" pt_clust_6="13000.00000" pt_clust_7="13000.00000" pt_clust_8="13000.00000" pt_clust_9="33.61292"></scales>
<clustering>
<clus scale="   33.613">  1  9  2 -1</clus>
<clus scale="   91.626">  5  6 -1 -1</clus>
<clus scale="   93.984">  7  8 -1 -1</clus>
<clus scale="  110.635">  1  5  2 -1</clus>
<clus scale="   33.613">  1  5  2 -1</clus>
</clustering>
</event>
<event>
 9    1  0.1426358E-005  0.1427130E+03  0.7546771E-02  0.1210002E+00
         21   -1    0    0  501  502  0.00000000000E+00  0.00000000000E+00  0.83878906951E+02  0.83878906951E+02  0.00000000000E+00 0. -1.
          1   -1    0    0  502    0 -0.00000000000E+00 -0.00000000000E+00 -0.42687802427E+03  0.42687802427E+03  0.00000000000E+00 0. -1.
         23    2    1    2    0    0 -0.85988162843E+02  0.91795855592E+02 -0.26712305832E+03  0.30875982464E+03  0.90318645766E+02 0.  0.
         23    2    1    2    0    0  0.38523445511E+02 -0.76492966962E+02 -0.84701446129E+02  0.15135162060E+03  0.91639228686E+02 0.  0.
        -13    1    4    4    0    0  0.21594654491E+02 -0.94192058914E+02 -0.81950779870E+02  0.12670597218E+03  0.00000000000E+00 0.  1.
         13    1    4    4    0    0  0.16928791019E+02  0.17699091952E+02 -0.27506662595E+01  0.24645648422E+02  0.00000000000E+00 0. -1.
        -13    1    3    3    0    0  0.10401180812E+02  0.23742611513E+02 -0.10557194817E+03  0.10870755450E+03  0.00000000000E+00 0.  1.
         13    1    3    3    0    0 -0.96389343655E+02  0.68053244080E+02 -0.16155111015E+03  0.20005227015E+03  0.00000000000E+00 0. -1.
          1    1    1    2  501    0  0.47464717332E+02 -0.15302888631E+02  0.88253871301E+01  0.50645485977E+02  0.00000000000E+00 0. -1.
<scales pt_clust_5="13000.00000" pt_clust_6="13000.00000" pt_clust_7="13000.00000" pt_clust_8="13000.00000" pt_clust_9="49.87061"></scales>
<clustering>
<clus scale="   49.871">  1  9  2 -1</clus>
<clus scale="   90.319">  7  8 -1 -1</clus>
<clus scale="   91.639">  5  6 -1 -1</clus>
<clus scale="  141.869">  2  7  1 -1</clus>
<clus scale="   49.871">  1  5  2 -1</clus>
</clustering>
</event>
<event>
 9    1  0.1426358E-005  0.9203169E+02  0.7546771E-02  0.1298568E+00
          1   -1    0    0  502    0 -0.00000000000E+00  0.00000000000E+00  0.72246362745E+02  0.72246362745E+02  0.00000000000E+00 0. -1.
         21   -1    0    0  501  502  0.00000000000E+00 -0.00000000000E+00 -0.22072630581E+03  0.22072630581E+03  0.00000000000E+00 0.  1.
         23    2    1    2    0    0  0.29735886727E+02 -0.90740725566E+01 -0.21948276870E+02  0.98644019805E+02  0.91007439441E+02 0.  0.
         23    2    1    2    0    0  0.85536999907E+01  0.43829896635E+01 -0.38850722288E+02  0.98536965218E+02  0.90043203575E+02 0.  0.
        -11    1    3    3    0    0  0.41341785468E+02 -0.35032844910E+02  0.10819728570E+02  0.55258573764E+02  0.00000000000E+00 0.  1.
         11    1    3    3    0    0 -0.11605898741E+02  0.25958772353E+02 -0.32768005439E+02  0.43385446041E+02  0.00000000000E+00 0. -1.
        -11    1    4    4    0    0  0.16934680730E+02  0.44250709292E+02 -0.32129940602E+02  0.57247198773E+02  0.00000000000E+00 0.  1.
         11    1    4    4    0    0 -0.83809807390E+01 -0.39867719629E+02 -0.67207816860E+01  0.41289766444E+02  0.00000000000E+00 0. -1.
          1    1    1    2  501    0 -0.38289586717E+02  0.46910828932E+01 -0.87680943912E+02  0.95791683538E+02  0.00000000000E+00 0. -1.
<scales pt_clust_5="13000.00000" pt_clust_6="13000.00000" pt_clust_7="13000.00000" pt_clust_8="13000.00000" pt_clust_9="38.57588"></scales>
<clustering>
<clus scale="   38.576">  2  9  1 -1</clus>
<clus scale="   90.043">  7  8 -1 -1</clus>
<clus scale="   91.007">  5  6 -1 -1</clus>
<clus scale="   91.078">  2  7  1 -1</clus>
<clus scale="   38.576">  2  5  1 -1</clus>
</clustering>
</event>
<event>
 9    1  0.1426358E-005  0.1505415E+03  0.7546771E-02  0.1200194E+00
         21   -1    0    0  501  502  0.00000000000E+00  0.00000000000E+00  0.15317692580E+03  0.15317692580E+03  0.00000000000E+00 0. -1.
          3   -1    0    0  502    0 -0.00000000000E+00 -0.00000000000E+00 -0.41564162176E+03  0.41564162176E+03  0.00000000000E+00 0. -1.
         23    2    1    2    0    0  0.10756317823E+03 -0.44376090032E+02 -0.21222126757E+03  0.25941383416E+03  0.93373423788E+02 0.  0.
         23    2    1    2    0    0 -0.12016745381E+03  0.21469287236E+02 -0.14542566343E+03  0.21069682495E+03  0.91342110823E+02 0.  0.
        -11    1    3    3    0    0  0.28765737429E+02  0.29272753688E+02 -0.65930806128E+02  0.77661013095E+02  0.00000000000E+00 0. -1.
         11    1    3    3    0    0  0.78797440800E+02 -0.73648843720E+02 -0.14629046144E+03  0.18175282107E+03  0.00000000000E+00 0.  1.
        -13    1    4    4    0    0 -0.72553560999E+02  0.57502240802E+02 -0.83470575089E+02  0.12465096797E+03  0.00000000000E+00 0. -1.
         13    1    4    4    0    0 -0.47613892816E+02 -0.36032953566E+02 -0.61955088339E+02  0.86045856977E+02  0.00000000000E+00 0.  1.
          3    1    1    2  501    0  0.12604275586E+02  0.22906802797E+02  0.95182235032E+02  0.98707888454E+02  0.00000000000E+00 0. -1.
<scales pt_clust_5="13000.00000" pt_clust_6="13000.00000" pt_clust_7="13000.00000" pt_clust_8="13000.00000" pt_clust_9="26.14554"></scales>
<clustering>
<clus scale="   26.146">  1  9  2 -1</clus>
<clus scale="   91.342">  7  8 -1 -1</clus>
<clus scale="   93.373">  5  6 -1 -1</clus>
<clus scale="  149.290">  1  7  2 -1</clus>
<clus scale="   26.146">  1  5  2 -1</clus>
</clustering>
</event>
<event>
 9    1  0.1426358E-005  0.9016014E+02  0.7546771E-02  0.1302494E+00
         21   -1    0    0  501  502  0.00000000000E+00  0.00000000000E+00  0.84582708203E+02  0.84582708203E+02  0.00000000000E+00 0.  1.
          3   -1    0    0  502    0 -0.00000000000E+00 -0.00000000000E+00 -0.30577844507E+03  0.30577844507E+03  0.00000000000E+00 0. -1.
         23    2    1    2    0    0 -0.12255332032E+02  0.32899754648E+01 -0.21475556946E+03  0.23314417744E+03  0.89862315571E+02 0.  0.
         23    2    1    2    0    0 -0.24068977424E+02 -0.16061413926E+02 -0.43384344513E+02  0.10385559167E+03  0.89813684258E+02 0.  0.
        -11    1    4    4    0    0 -0.89980503207E+01 -0.51311610828E+02 -0.10054276202E+02  0.53055958999E+02  0.00000000000E+00 0.  1.
         11    1    4    4    0    0 -0.15070927103E+02  0.35250196903E+02 -0.33330068311E+02  0.50799632667E+02  0.00000000000E+00 0. -1.
        -11    1    3    3    0    0  0.88406035874E+01  0.43266436969E+02 -0.12650345715E+03  0.13398979629E+03  0.00000000000E+00 0. -1.
         11    1    3    3    0    0 -0.21095935620E+02 -0.39976461504E+02 -0.88252112311E+02  0.99154381151E+02  0.00000000000E+00 0.  1.
          3    1    1    2  501    0  0.36324309456E+02  0.12771438461E+02  0.36944177106E+02  0.53361384164E+02  0.00000000000E+00 0. -1.
<scales pt_clust_5="13000.00000" pt_clust_6="13000.00000" pt_clust_7="13000.00000" pt_clust_8="13000.00000" pt_clust_9="38.50409"></scales>
<clustering>
<clus scale="   38.504">  1  9  2 -1</clus>
<clus scale="   89.814">  5  6 -1 -1</clus>
<clus scale="   89.862">  7  8 -1 -1</clus>
<clus scale="   90.112">  1  5  2 -1</clus>
<clus scale="   38.504">  1  5  2 -1</clus>
</clustering>
</event>
<event>
 9    1  0.1426358E-005  0.9713716E+02  0.7546771E-02  0.1286963E+00
         21   -1    0    0  501  502  0.00000000000E+00  0.00000000000E+00  0.20337392033E+02  0.20337392033E+02  0.00000000000E+00 0. -1.
         -3   -1    0    0    0  501 -0.00000000000E+00 -0.00000000000E+00 -0.64796231598E+03  0.64796231598E+03  0.00000000000E+00 0.  1.
         23    2    1    2    0    0  0.29354243548E+02  0.25700301255E+02 -0.36155733982E+03  0.37514886848E+03  0.92145463512E+02 0.  0.
         23    2    1    2    0    0 -0.21200424036E+02 -0.55098724293E+01 -0.24708277884E+03  0.26426206973E+03  0.91130265151E+02 0.  0.
        -11    1    3    3    0    0  0.55628906629E+02  0.35986062850E+02 -0.30285524313E+03  0.31001753219E+03  0.00000000000E+00 0. -1.
         11    1    3    3    0    0 -0.26274663080E+02 -0.10285761595E+02 -0.58702096690E+02  0.65131336294E+02  0.00000000000E+00 0.  1.
        -11    1    4    4    0    0  0.25216252415E+02  0.74312683091E+01 -0.22605900788E+02  0.34671456343E+02  0.00000000000E+00 0. -1.
         11    1    4    4    0    0 -0.46416676451E+02 -0.12941140738E+02 -0.22447687805E+03  0.22959061338E+03  0.00000000000E+00 0.  1.
         -3    1    1    2    0  502 -0.81538195125E+01 -0.20190428826E+02 -0.18984805289E+02  0.28888769802E+02  0.00000000000E+00 0.  1.
<scales pt_clust_5="13000.00000" pt_clust_6="13000.00000" pt_clust_7="13000.00000" pt_clust_8="13000.00000" pt_clust_9="21.77471"></scales>
<clustering>
<clus scale="   21.775">  1  9  2 -1</clus>
<clus scale="   91.130">  7  8 -1 -1</clus>
<clus scale="   92.145">  5  6 -1 -1</clus>
<clus scale="   96.175">  1  7  2 -1</clus>
<clus scale="   21.775">  1  5  2 -1</clus>
</clustering>
</event>
<event>
 9    1  0.1426358E-005  0.1275009E+03  0.7546771E-02  0.1232945E+00
         21   -1    0    0  501  502  0.00000000000E+00  0.00000000000E+00  0.27838592053E+03  0.27838592053E+03  0.00000000000E+00 0.  1.
         -1   -1    0    0    0  501 -0.00000000000E+00 -0.00000000000E+00 -0.12396445869E+03  0.12396445869E+03  0.00000000000E+00 0.  1.
         23    2    1    2    0    0  0.90048953432E+02 -0.69915962042E+02 -0.31466866680E+02  0.14588348222E+03  0.85409431116E+02 0.  0.
         23    2    1    2    0    0 -0.26737349962E+02  0.25183050705E+02  0.95943959441E+02  0.13772607832E+03  0.91728716177E+02 0.  0.
        -13    1    4    4    0    0 -0.45766983323E+02  0.45161282060E+02  0.41038189051E+02  0.76277723618E+02  0.00000000000E+00 0. -1.
         13    1    4    4    0    0  0.19029633361E+02 -0.19978231355E+02  0.54905770390E+02  0.61448354706E+02  0.00000000000E+00 0.  1.
        -13    1    3    3    0    0  0.37306712757E+02 -0.68151673035E+02 -0.47085831429E+02  0.90848868323E+02  0.00000000000E+00 0.  1.
         13    1    3    3    0    0  0.52742240675E+02 -0.17642890077E+01  0.15618964748E+02  0.55034613898E+02  0.00000000000E+00 0. -1.
         -1    1    1    2    0  502 -0.63311603470E+02  0.44732911338E+02  0.89944369083E+02  0.11874081868E+03  0.00000000000E+00 0.  1.
<scales pt_clust_5="13000.00000" pt_clust_6="13000.00000" pt_clust_7="13000.00000" pt_clust_8="13000.00000" pt_clust_9="77.52027"></scales>
<clustering>
<clus scale="   77.520">  1  9  2 -1</clus>
<clus scale="   85.409">  7  8 -1 -1</clus>
<clus scale="   91.729">  5  6 -1 -1</clus>
<clus scale="  123.033">  2  7  1 -1</clus>
<clus scale="   77.520">  1  5  2 -1</clus>
</clustering>
</event>
<event>
 9    1  0.1426358E-005  0.9839899E+02  0.7546771E-02  0.1284764E+00
         -3   -1    0    0    0  501 -0.00000000000E+00  0.00000000000E+00  0.11814247732E+03  0.11814247732E+03  0.00000000000E+00 0.  1.
         21   -1    0    0  501  502  0.00000000000E+00 -0.00000000000E+00 -0.21346638812E+03  0.21346638812E+03  0.00000000000E+00 0. -1.
         23    2    1    2    0    0 -0.60094052416E+01 -0.32176789903E+02  0.63832037208E+02  0.11815099472E+03  0.93881147300E+02 0.  0.
         23    2    1    2    0    0 -0.31468550012E+02  0.18176334888E+02 -0.90254402524E+02  0.13378332749E+03  0.91823051296E+02 0.  0.
        -11    1    4    4    0    0  0.61972955108E+01 -0.33262140137E+02 -0.21857751358E+02  0.40280736495E+02  0.00000000000E+00 0.  1.
         11    1    4    4    0    0 -0.37665845523E+02  0.51438475025E+02 -0.68396651165E+02  0.93502590994E+02  0.00000000000E+00 0. -1.
        -13    1    3    3    0    0  0.15966581530E+02 -0.29471193059E+02  0.82589467275E+02  0.89131941810E+02  0.00000000000E+00 0.  1.
         13    1    3    3    0    0 -0.21975986771E+02 -0.27055968438E+01 -0.18757430066E+02  0.29019052906E+02  0.00000000000E+00 0. -1.
         -3    1    1    2    0  502  0.37477955254E+02  0.14000455015E+02 -0.68901545483E+02  0.79674543241E+02  0.00000000000E+00 0.  1.
<scales pt_clust_5="13000.00000" pt_clust_6="13000.00000" pt_clust_7="13000.00000" pt_clust_8="13000.00000" pt_clust_9="40.00762"></scales>
<clustering>
<clus scale="   40.008">  2  9  1 -1</clus>
<clus scale="   91.823">  5  6 -1 -1</clus>
<clus scale="   93.881">  7  8 -1 -1</clus>
<clus scale="   96.437">  2  5  1 -1</clus>
<clus scale="   40.008">  2  5  1 -1</clus>
</clustering>
</event>
<event>
 9    1  0.1426358E-005  0.1498690E+03  0.7546771E-02  0.1200668E+00
          2   -1    0    0  502    0 -0.00000000000E+00  0.00000000000E+00  0.11938748371E+04  0.11938748371E+04  0.00000000000E+00 0. -1.
         21   -1    0    0  501  502  0.00000000000E+00 -0.00000000000E+00 -0.60812923505E+02  0.60812923505E+02  0.00000000000E+00 0. -1.
         23    2    1    2    0    0  0.87615213027E+02 -0.10569883029E+02  0.50286569745E+03  0.51920557738E+03  0.94405370220E+02 0.  0.
         23    2    1    2    0    0 -0.16918784344E+03  0.97880742807E+02  0.55070542942E+03  0.59196888962E+03  0.94580812566E+02 0.  0.
        -11    1    3    3    0    0  0.10044285195E+03  0.13237140387E+02  0.37025361393E+03  0.38386420388E+03  0.00000000000E+00 0. -1.
         11    1    3    3    0    0 -0.12827638921E+02 -0.23807023416E+02  0.13261208352E+03  0.13534137349E+03  0.00000000000E+00 0.  1.
        -13    1    4    4    0    0 -0.17577192353E+03  0.75466898453E+02  0.45749621618E+03  0.49587680898E+03  0.00000000000E+00 0. -1.
         13    1    4    4    0    0  0.65840800898E+01  0.22413844354E+02  0.93209213242E+02  0.96092080644E+02  0.00000000000E+00 0.  1.
          2    1    1    2  501    0  0.81572630412E+02 -0.87310859778E+02  0.79490786719E+02  0.14351329360E+03  0.00000000000E+00 0. -1.
<scales pt_clust_5="13000.00000" pt_clust_6="13000.00000" pt_clust_7="13000.00000" pt_clust_8="13000.00000" pt_clust_9="119.48757"></scales>
<clustering>
<clus scale="   94.405">  5  6 -1 -1</clus>
<clus scale="   94.581">  7  8 -1 -1</clus>
<clus scale="  119.488">  2  9  1 -1</clus>
<clus scale="  149.758">  1  5  2 -1</clus>
<clus scale="  119.488">  2  5  1 -1</clus>
</clustering>
</event>
<event>
 9    1  0.1426358E-005  0.1408202E+03  0.7546771E-02  0.1228168E+00
         21   -1    0    0  501  502  0.00000000000E+00  0.00000000000E+00  0.34424179076E+03  0.34424179076E+03  0.00000000000E+00 0. -1.
          1   -1    0    0  502    0 -0.00000000000E+00 -0.00000000000E+00 -0.20055402947E+03  0.20055402947E+03  0.00000000000E+00 0. -1.
         23    2    1    2    0    0  0.70084877111E+01 -0.54932374787E+02  0.22066834600E+02  0.10316623371E+03  0.84200011222E+02 0.  0.
         23    2    1    2    0    0 -0.10902453482E+03  0.23431034513E+02 -0.11306697672E+03  0.18379626766E+03  0.92528720994E+02 0.  0.
        -13    1    3    3    0    0  0.19472663078E+02 -0.71414492919E+02  0.31506414989E+02  0.80447924719E+02  0.00000000000E+00 0.  1.
         13    1    3    3    0    0 -0.12464175367E+02  0.16482118131E+02 -0.94395803891E+01  0.22718308995E+02  0.00000000000E+00 0. -1.
        -13    1    4    4    0    0 -0.18627724013E+02 -0.33316504306E+02 -0.29718130535E+02  0.48375084946E+02  0.00000000000E+00 0.  1.
         13    1    4    4    0    0 -0.90396810806E+02  0.56747538820E+02 -0.83348846186E+02  0.13542118271E+03  0.00000000000E+00 0. -1.
          1    1    1    2  501    0  0.10201604711E+03  0.31501340274E+02  0.23468790341E+03  0.25783331886E+03  0.00000000000E+00 0. -1.
<scales pt_clust_5="13000.00000" pt_clust_6="13000.00000" pt_clust_7="13000.00000" pt_clust_8="13000.00000" pt_clust_9="106.15441"></scales>
<clustering>
<clus scale="   84.200">  5  6 -1 -1</clus>
<clus scale="   92.529">  7  8 -1 -1</clus>
<clus scale="  100.779">  2  5  1 -1</clus>
<clus scale="  106.154">  1  9  2 -1</clus>
<clus scale="  106.154">  1  5  2 -1</clus>
</clustering>
</event>
<event>
 9    1  0.1426358E-005  0.1148213E+03  0.7546771E-02  0.1254018E+00
         -3   -1    0    0    0  501 -0.00000000000E+00  0.00000000000E+00  0.49584798759E+03  0.49584798759E+03  0.00000000000E+00 0.  1.
         21   -1    0    0  501  502  0.00000000000E+00 -0.00000000000E+00 -0.71425964536E+02  0.71425964536E+02  0.00000000000E+00 0. -1.
         23    2    1    2    0    0 -0.47018472354E+01 -0.65290680810E+02  0.39884420661E+03  0.41460328587E+03  0.92380750918E+02 0.  0.
         23    2    1    2    0    0  0.54068219408E+01  0.88103025040E+02  0.78485934591E+01  0.12377040006E+03  0.86406798151E+02 0.  0.
        -11    1    4    4    0    0 -0.94774393069E+01  0.10235886674E+03  0.45429012680E+01  0.10289702332E+03  0.00000000000E+00 0. -1.
         11    1    4    4    0    0  0.14884261248E+02 -0.14255841702E+02  0.33056921911E+01  0.20873376737E+02  0.00000000000E+00 0.  1.
        -13    1    3    3    0    0 -0.45646700217E+02 -0.44456701159E+02  0.17879335944E+03  0.18980802116E+03  0.00000000000E+00 0.  1.
         13    1    3    3    0    0  0.40944852982E+02 -0.20833979651E+02  0.22005084717E+03  0.22479526471E+03  0.00000000000E+00 0. -1.
         -3    1    1    2    0  502 -0.70497470533E+00 -0.22812344230E+02  0.17729222988E+02  0.28900266199E+02  0.00000000000E+00 0.  1.
<scales pt_clust_5="13000.00000" pt_clust_6="13000.00000" pt_clust_7="13000.00000" pt_clust_8="13000.00000" pt_clust_9="22.82323"></scales>
<clustering>
<clus scale="   22.823">  2  9  1 -1</clus>
<clus scale="   86.407">  5  6 -1 -1</clus>
<clus scale="   92.381">  7  8 -1 -1</clus>
<clus scale="  110.072">  2  5  1 -1</clus>
<clus scale="   22.823">  2  5  1 -1</clus>
</clustering>
</event>
<event>
 9    1  0.1426358E-005  0.9552449E+02  0.7546771E-02  0.1290030E+00
          1   -1    0    0  502    0 -0.00000000000E+00  0.00000000000E+00  0.68496165112E+03  0.68496165112E+03  0.00000000000E+00 0. -1.
         21   -1    0    0  501  502  0.00000000000E+00 -0.00000000000E+00 -0.24402705073E+02  0.24402705073E+02  0.00000000000E+00 0. -1.
         23    2    1    2    0    0  0.26740470999E+02  0.25150380287E+02  0.40034411682E+03  0.41243495153E+03  0.92084651017E+02 0.  0.
         23    2    1    2    0    0 -0.10668982400E+02 -0.28387713070E+01  0.25157539240E+03  0.26810683522E+03  0.92028317486E+02 0.  0.
        -11    1    4    4    0    0 -0.20214598088E+02 -0.45053223025E+02  0.13080287588E+03  0.13981350156E+03  0.00000000000E+00 0.  1.
         11    1    4    4    0    0  0.95456156883E+01  0.42214451718E+02  0.12077251652E+03  0.12829333365E+03  0.00000000000E+00 0. -1.
        -13    1    3    3    0    0 -0.61135552132E+01 -0.32094558226E+02  0.15181958713E+03  0.15529527765E+03  0.00000000000E+00 0.  1.
         13    1    3    3    0    0  0.32854026212E+02  0.57244938512E+02  0.24852452969E+03  0.25713967387E+03  0.00000000000E+00 0. -1.
          1    1    1    2  501    0 -0.16071488599E+02 -0.22311608980E+02  0.86394368286E+01  0.28822569451E+02  0.00000000000E+00 0. -1.
<scales pt_clust_5="13000.00000" pt_clust_6="13000.00000" pt_clust_7="13000.00000" pt_clust_8="13000.00000" pt_clust_9="27.49728"></scales>
<clustering>
<clus scale="   27.497">  2  9  1 -1</clus>
<clus scale="   92.028">  5  6 -1 -1</clus>
<clus scale="   92.085">  7  8 -1 -1</clus>
<clus scale="   95.470">  2  5  1 -1</clus>
<clus scale="   27.497">  2  5  1 -1</clus>
</clustering>
</event>
<event>
 9    1  0.1426358E-005  0.1035858E+03  0.7546771E-02  0.1273054E+00
         21   -1    0    0  501  502  0.00000000000E+00  0.00000000000E+00  0.25263835805E+03  0.25263835805E+03  0.00000000000E+00 0. -1.
          2   -1    0    0  502    0 -0.00000000000E+00 -0.00000000000E+00 -0.73863122948E+02  0.73863122948E+02  0.00000000000E+00 0. -1.
         23    2    1    2    0    0 -0.34955711499E+02 -0.26412813410E+02  0.17134117630E+02  0.10215269610E+03  0.90675558200E+02 0.  0.
         23    2    1    2    0    0  0.32244562561E+02  0.52861699301E+02  0.73589399479E+02  0.13237053239E+03  0.90953213581E+02 0.  0.
        -13    1    3    3    0    0  0.14527704104E+00 -0.52252458275E+02  0.24896272770E+02  0.57880609007E+02  0.00000000000E+00 0.  1.
         13    1    3    3    0    0 -0.35100988540E+02  0.25839644864E+02 -0.77621551397E+01  0.44272087094E+02  0.00000000000E+00 0. -1.
        -13    1    4    4    0    0  0.16446308502E+01  0.61110971523E+02  0.10860608412E+02  0.62090325061E+02  0.00000000000E+00 0. -1.
         13    1    4    4    0    0  0.30599931711E+02 -0.82492722218E+01  0.62728791067E+02  0.70280207325E+02  0.00000000000E+00 0.  1.
          2    1    1    2  501    0  0.27111489384E+01 -0.26448885891E+02  0.88051717996E+02  0.91978252514E+02  0.00000000000E+00 0. -1.
<scales pt_clust_5="13000.00000" pt_clust_6="13000.00000" pt_clust_7="13000.00000" pt_clust_8="13000.00000" pt_clust_9="26.58748"></scales>
<clustering>
<clus scale="   26.587">  1  9  2 -1</clus>
<clus scale="   90.676">  5  6 -1 -1</clus>
<clus scale="   90.953">  7  8 -1 -1</clus>
<clus scale="  103.342">  2  5  1 -1</clus>
<clus scale="   26.587">  1  5  2 -1</clus>
</clustering>
</event>
<event>
 9    1  0.1426358E-005  0.9903527E+02  0.7546771E-02  0.1285645E+00
          1   -1    0    0  502    0 -0.00000000000E+00  0.00000000000E+00  0.55629073697E+03  0.55629073697E+03  0.00000000000E+00 0. -1.
         21   -1    0    0  501  502  0.00000000000E+00 -0.00000000000E+00 -0.69779407368E+02  0.69779407368E+02  0.00000000000E+00 0. -1.
         23    2    1    2    0    0  0.59806498848E+01  0.17438430131E+02  0.41234746572E+03  0.42428127428E+03  0.98205398013E+02 0.  0.
         23    2    1    2    0    0 -0.69562455596E+00  0.23727750151E+01  0.12015071700E+03  0.15143804085E+03  0.92147552688E+02 0.  0.
        -11    1    3    3    0    0  0.49866877975E+02 -0.27913918106E+01  0.17105731332E+03  0.17819961231E+03  0.00000000000E+00 0.  1.
         11    1    3    3    0    0 -0.43886228090E+02  0.20229821942E+02  0.24129015240E+03  0.24608166197E+03  0.00000000000E+00 0. -1.
        -11    1    4    4    0    0  0.29295066519E+02  0.26404578568E+02  0.20110792241E+02  0.44270155368E+02  0.00000000000E+00 0.  1.
         11    1    4    4    0    0 -0.29990691075E+02 -0.24031803553E+02  0.10003992476E+03  0.10716788549E+03  0.00000000000E+00 0. -1.
          1    1    1    2  501    0 -0.52850253289E+01 -0.19811205147E+02 -0.45986853119E+02  0.50350829208E+02  0.00000000000E+00 0. -1.
<scales pt_clust_5="13000.00000" pt_clust_6="13000.00000" pt_clust_7="13000.00000" pt_clust_8="13000.00000" pt_clust_9="20.50403"></scales>
<clustering>
<clus scale="   20.504">  2  9  1 -1</clus>
<clus scale="   92.148">  7  8 -1 -1</clus>
<clus scale="   93.031">  2  7  1 -1</clus>
<clus scale="   98.205">  5  6 -1 -1</clus>
<clus scale="   20.504">  2  5  1 -1</clus>
</clustering>
</event>
<event>
 9    1  0.1426358E-005  0.1312914E+03  0.7546771E-02  0.1226670E+00
         21   -1    0    0  501  502  0.00000000000E+00  0.00000000000E+00  0.58074058607E+03  0.58074058607E+03  0.00000000000E+00 0.  1.
         -3   -1    0    0    0  501 -0.00000000000E+00 -0.00000000000E+00 -0.80540790974E+02  0.80540790974E+02  0.00000000000E+00 0.  1.
         23    2    1    2    0    0 -0.44660092595E+02 -0.85761684612E+02 -0.57554568711E+00  0.13433577739E+03  0.93253307807E+02 0.  0.
         23    2    1    2    0    0  0.35027093917E+02  0.38678209862E+02  0.28003648453E+03  0.30103568194E+03  0.97360915716E+02 0.  0.
        -11    1    4    4    0    0  0.16628344570E+02 -0.32227746130E+02  0.75030020988E+02  0.83334467738E+02  0.00000000000E+00 0.  1.
         11    1    4    4    0    0  0.18398749347E+02  0.70905955992E+02  0.20500646354E+03  0.21770121420E+03  0.00000000000E+00 0. -1.
        -13    1    3    3    0    0 -0.11535584847E+02 -0.92645124111E+02  0.18963126160E+02  0.95266934942E+02  0.00000000000E+00 0. -1.
         13    1    3    3    0    0 -0.33124507749E+02  0.68834394998E+01 -0.19538671848E+02  0.39068842451E+02  0.00000000000E+00 0.  1.
         -3    1    1    2    0  502  0.96329986781E+01  0.47083474750E+02  0.22073885626E+03  0.22590991771E+03  0.00000000000E+00 0.  1.
<scales pt_clust_5="13000.00000" pt_clust_6="13000.00000" pt_clust_7="13000.00000" pt_clust_8="13000.00000" pt_clust_9="48.05880"></scales>
<clustering>
<clus scale="   48.059">  1  9  2 -1</clus>
<clus scale="   93.253">  7  8 -1 -1</clus>
<clus scale="   97.361">  5  6 -1 -1</clus>
<clus scale="  128.275">  2  7  1 -1</clus>
<clus scale="   48.059">  1  5  2 -1</clus>
</clustering>
</event>
<event>
 9    1  0.1426358E-005  0.1044845E+03  0.7546771E-02  0.1273401E+00
         21   -1    0    0  501  502  0.00000000000E+00  0.00000000000E+00  0.19987510912E+03  0.19987510912E+03  0.00000000000E+00 0.  1.
          1   -1    0    0  502    0 -0.00000000000E+00 -0.00000000000E+00 -0.11220053155E+03  0.11220053155E+03  0.00000000000E+00 0. -1.
         23    2    1    2    0    0 -0.67274370876E+01 -0.50176354514E+02 -0.69201502919E+01  0.10139068510E+03  0.87574297505E+02 0.  0.
         23    2    1    2    0    0 -0.23608828977E+02  0.45008022434E+02 -0.56624451646E+01  0.10581121511E+03  0.92632883301E+02 0.  0.
        -11    1    4    4    0    0 -0.27138133659E+02 -0.81291077309E+01 -0.34985913794E+02  0.45017494988E+02  0.00000000000E+00 0. -1.
         11    1    4    4    0    0  0.35293046823E+01  0.53137130165E+02  0.29323468630E+02  0.60793720121E+02  0.00000000000E+00 0.  1.
        -13    1    3    3    0    0 -0.16162021961E+02  0.21526868067E+02  0.68351558116E+01  0.27772942905E+02  0.00000000000E+00 0.  1.
         13    1    3    3    0    0  0.94345848730E+01 -0.71703222581E+02 -0.13755306104E+02  0.73617742198E+02  0.00000000000E+00 0. -1.
          1    1    1    2  501    0  0.30336266064E+02  0.51683320800E+01  0.10025717302E+03  0.10487374046E+03  0.00000000000E+00 0. -1.
<scales pt_clust_5="13000.00000" pt_clust_6="13000.00000" pt_clust_7="13000.00000" pt_clust_8="13000.00000" pt_clust_9="30.77338"></scales>
<clustering>
<clus scale="   30.773">  1  9  2 -1</clus>
<clus scale="   87.574">  7  8 -1 -1</clus>
<clus scale="   92.633">  5  6 -1 -1</clus>
<clus scale="  100.027">  2  7  1 -1</clus>
<clus scale="   30.773">  1  5  2 -1</clus>
</clustering>
</event>
<event>
 9    1  0.1426358E-005  0.3859709E+03  0.7546771E-02  0.1048751E+00
          2   -1    0    0  502    0 -0.00000000000E+00  0.00000000000E+00  0.18022193982E+04  0.18022193982E+04  0.00000000000E+00 0. -1.
         21   -1    0    0  501  502  0.00000000000E+00 -0.00000000000E+00 -0.29888313408E+03  0.29888313408E+03  0.00000000000E+00 0. -1.
         23    2    1    2    0    0 -0.20188386217E+02  0.39131198709E+03  0.14815608363E+04  0.15352238634E+04  0.91417487318E+02 0.  0.
         23    2    1    2    0    0  0.11213444370E+02 -0.31539493716E+03  0.19108339752E+03  0.38011231925E+03  0.91503020278E+02 0.  0.
        -13    1    4    4    0    0  0.35838569271E+02 -0.11998041017E+03  0.11155350572E+03  0.16770177849E+03  0.00000000000E+00 0.  1.
         13    1    4    4    0    0 -0.24625124902E+02 -0.19541452699E+03  0.79529891797E+02  0.21241054076E+03  0.00000000000E+00 0. -1.
        -13    1    3    3    0    0 -0.43313551503E+02  0.28492565020E+03  0.11776209484E+04  0.12123736173E+04  0.00000000000E+00 0. -1.
         13    1    3    3    0    0  0.23125165286E+02  0.10638633689E+03  0.30393988791E+03  0.32285024610E+03  0.00000000000E+00 0.  1.
          2    1    1    2  501    0  0.89749418472E+01 -0.75917049929E+02 -0.16930796968E+03  0.18576634962E+03  0.00000000000E+00 0. -1.
<scales pt_clust_5="13000.00000" pt_clust_6="13000.00000" pt_clust_7="13000.00000" pt_clust_8="13000.00000" pt_clust_9="76.44572"></scales>
<clustering>
<clus scale="   76.446">  2  9  1 -1</clus>
<clus scale="   91.417">  7  8 -1 -1</clus>
<clus scale="   91.503">  5  6 -1 -1</clus>
<clus scale="  385.951">  1  7  2 -1</clus>
<clus scale="   76.446">  2  5  1 -1</clus>
</clustering>
</event>
<event>
 9    1  0.1426358E-005  0.9295351E+02  0.7546771E-02  0.1297740E+00
         21   -1    0    0  501  502  0.00000000000E+00  0.00000000000E+00  0.41226041416E+02  0.41226041416E+02  0.00000000000E+00 0.  1.
          1   -1    0    0  502    0 -0.00000000000E+00 -0.00000000000E+00 -0.28225692631E+03  0.28225692631E+03  0.00000000000E+00 0. -1.
         23    2    1    2    0    0 -0.49580719414E+00 -0.94543335030E+01 -0.11650755209E+03  0.14611440613E+03  0.87668578969E+02 0.  0.
         23    2    1    2    0    0  0.16815406248E+02  0.26731711555E+02 -0.11883149192E+03  0.15293018689E+03  0.90936111085E+02 0.  0.
        -13    1    3    3    0    0  0.26551969288E+02  0.26626084167E+02 -0.78880585162E+02  0.87384793566E+02  0.00000000000E+00 0.  1.
         13    1    3    3    0    0 -0.27047776482E+02 -0.36080417670E+02 -0.37626966931E+02  0.58729612568E+02  0.00000000000E+00 0. -1.
        -13    1    4    4    0    0 -0.36963350586E+02  0.15565039627E+02 -0.62430723584E+02  0.74203470218E+02  0.00000000000E+00 0. -1.
         13    1    4    4    0    0  0.53778756833E+02  0.11166671927E+02 -0.56400768336E+02  0.78726716668E+02  0.00000000000E+00 0.  1.
          1    1    1    2  501    0 -0.16319599053E+02 -0.17277378052E+02 -0.56918408799E+01  0.24438374705E+02  0.00000000000E+00 0. -1.
<scales pt_clust_5="13000.00000" pt_clust_6="13000.00000" pt_clust_7="13000.00000" pt_clust_8="13000.00000" pt_clust_9="23.76630"></scales>
<clustering>
<clus scale="   23.766">  1  9  2 -1</clus>
<clus scale="   87.669">  5  6 -1 -1</clus>
<clus scale="   89.759">  2  5  1 -1</clus>
<clus scale="   90.936">  7  8 -1 -1</clus>
<clus scale="   23.766">  1  5  2 -1</clus>
</clustering>
</event>
<event>
 9    1  0.1426358E-005  0.1030936E+03  0.7546771E-02  0.1276731E+00
         21   -1    0    0  501  502  0.00000000000E+00  0.00000000000E+00  0.39905350158E+03  0.39905350158E+03  0.00000000000E+00 0.  1.
          1   -1    0    0  502    0 -0.00000000000E+00 -0.00000000000E+00 -0.68108592036E+02  0.68108592036E+02  0.00000000000E+00 0. -1.
         23    2    1    2    0    0 -0.44037016785E+02  0.19837314892E+01 -0.12598533556E+01  0.10299110945E+03  0.93071947206E+02 0.  0.
         23    2    1    2    0    0  0.40229308911E+02 -0.39977554611E+02  0.18585079216E+03  0.21291783879E+03  0.87045315563E+02 0.  0.
        -11    1    3    3    0    0 -0.32696643256E+02 -0.42224479277E+02  0.13391789737E+02  0.55057398802E+02  0.00000000000E+00 0. -1.
         11    1    3    3    0    0 -0.11340373529E+02  0.44208210767E+02 -0.14651643092E+02  0.47933710646E+02  0.00000000000E+00 0.  1.
        -13    1    4    4    0    0 -0.52721331038E+01 -0.22318936429E+02  0.23688667997E+01  0.23055191188E+02  0.00000000000E+00 0. -1.
         13    1    4    4    0    0  0.45501442014E+02 -0.17658618182E+02  0.18348192536E+03  0.18986264761E+03  0.00000000000E+00 0.  1.
          1    1    1    2  501    0  0.38077078747E+01  0.37993823122E+02  0.14635397073E+03  0.15125314537E+03  0.00000000000E+00 0. -1.
<scales pt_clust_5="13000.00000" pt_clust_6="13000.00000" pt_clust_7="13000.00000" pt_clust_8="13000.00000" pt_clust_9="38.18415"></scales>
<clustering>
<clus scale="   38.184">  1  9  2 -1</clus>
<clus scale="   87.045">  7  8 -1 -1</clus>
<clus scale="   93.072">  5  6 -1 -1</clus>
<clus scale="   97.687">  1  7  2 -1</clus>
<clus scale="   38.184">  1  5  2 -1</clus>
</clustering>
</event>
<event>
 9    1  0.1426358E-005  0.3415750E+03  0.7546771E-02  0.1066311E+00
         -1   -1    0    0    0  501 -0.00000000000E+00  0.00000000000E+00  0.24402777111E+03  0.24402777111E+03  0.00000000000E+00 0.  1.
         21   -1    0    0  501  502  0.00000000000E+00 -0.00000000000E+00 -0.85904026953E+03  0.85904026953E+03  0.00000000000E+00 0.  1.
         23    2    1    2    0    0  0.71632695655E+02  0.33081788257E+03 -0.52569560089E+02  0.35416522499E+03  0.89987407061E+02 0.  0.
         23    2    1    2    0    0  0.73263581549E+02 -0.31915394184E+03 -0.33013878013E+03  0.47486595576E+03  0.96328971839E+02 0.  0.
        -11    1    3    3    0    0 -0.13444507913E+02  0.17442897254E+02 -0.16359167444E+02  0.27434135983E+02  0.00000000000E+00 0. -1.
         11    1    3    3    0    0  0.85077203568E+02  0.31337498532E+03 -0.36210392644E+02  0.32673108901E+03  0.00000000000E+00 0.  1.
        -11    1    4    4    0    0  0.13969416305E+02 -0.18573269719E+03 -0.13003030841E+03  0.22715558656E+03  0.00000000000E+00 0.  1.
         11    1    4    4    0    0  0.59294165244E+02 -0.13342124465E+03 -0.20010847172E+03  0.24771036920E+03  0.00000000000E+00 0. -1.
         -1    1    1    2    0  502 -0.14489627720E+03 -0.11663940730E+02 -0.23230415820E+03  0.27403685989E+03  0.00000000000E+00 0.  1.
<scales pt_clust_5="13000.00000" pt_clust_6="13000.00000" pt_clust_7="13000.00000" pt_clust_8="13000.00000" pt_clust_9="145.36498"></scales>
<clustering>
<clus scale="   89.987">  5  6 -1 -1</clus>
<clus scale="   96.329">  7  8 -1 -1</clus>
<clus scale="  145.365">  2  9  1 -1</clus>
<clus scale="  339.841">  1  5  2 -1</clus>
<clus scale="  145.365">  2  5  1 -1</clus>
</clustering>
</event>
<event>
 9    1  0.1426358E-005  0.9761798E+02  0.7546771E-02  0.1285749E+00
         -1   -1    0    0    0  501 -0.00000000000E+00  0.00000000000E+00  0.44433018408E+03  0.44433018408E+03  0.00000000000E+00 0.  1.
         21   -1    0    0  501  502  0.00000000000E+00 -0.00000000000E+00 -0.69585084877E+02  0.69585084877E+02  0.00000000000E+00 0. -1.
         23    2    1    2    0    0  0.11697353872E+02  0.30806203600E+02  0.37840115744E+03  0.39085016945E+03  0.92144282191E+02 0.  0.
         23    2    1    2    0    0  0.98297293487E+01 -0.31857777739E+02  0.95394936246E+01  0.97793698499E+02  0.91438853591E+02 0.  0.
        -11    1    4    4    0    0 -0.14291468164E+02 -0.37127303926E+02  0.41446189068E+02  0.57449711465E+02  0.00000000000E+00 0. -1.
         11    1    4    4    0    0  0.24121197513E+02  0.52695261869E+01 -0.31906695443E+02  0.40343987034E+02  0.00000000000E+00 0.  1.
        -11    1    3    3    0    0  0.46425151375E+02  0.40651581755E+02  0.23236586138E+03  0.24041992288E+03  0.00000000000E+00 0.  1.
         11    1    3    3    0    0 -0.34727797502E+02 -0.98453781543E+01  0.14603529606E+03  0.15043024657E+03  0.00000000000E+00 0. -1.
         -1    1    1    2    0  502 -0.21527083221E+02  0.10515741390E+01 -0.13195551858E+02  0.25271401010E+02  0.00000000000E+00 0.  1.
<scales pt_clust_5="13000.00000" pt_clust_6="13000.00000" pt_clust_7="13000.00000" pt_clust_8="13000.00000" pt_clust_9="21.55275"></scales>
<clustering>
<clus scale="   21.553">  2  9  1 -1</clus>
<clus scale="   91.439">  5  6 -1 -1</clus>
<clus scale="   92.144">  7  8 -1 -1</clus>
<clus scale="   96.952">  2  5  1 -1</clus>
<clus scale="   21.553">  2  5  1 -1</clus>
</clustering>
</event>
<event>
 9    1  0.1426358E-005  0.1363209E+03  0.7546771E-02  0.1218637E+00
         -4   -1    0    0    0  501 -0.00000000000E+00  0.00000000000E+00  0.26078469021E+03  0.26078469021E+03  0.00000000000E+00 0.  1.
         21   -1    0    0  501  502  0.00000000000E+00 -0.00000000000E+00 -0.29476379524E+03  0.29476379524E+03  0.00000000000E+00 0.  1.
         23    2    1    2    0    0  0.73202210829E+02  0.71353275971E+01  0.71621083983E+02  0.13774244730E+03  0.91836406439E+02 0.  0.
         23    2    1    2    0    0 -0.13925533156E+03  0.15794132650E+02  0.10411855407E+03  0.19673879476E+03  0.90686151473E+02 0.  0.
        -11    1    3    3    0    0  0.72775735320E+02 -0.13006355420E+02  0.12110399092E+02  0.74914182228E+02  0.00000000000E+00 0.  1.
         11    1    3    3    0    0  0.42647550933E+00  0.20141683017E+02  0.59510684891E+02  0.62828265074E+02  0.00000000000E+00 0. -1.
        -13    1    4    4    0    0 -0.49834065822E+02  0.21465151932E+02  0.91326224842E+02  0.10622930955E+03  0.00000000000E+00 0.  1.
         13    1    4    4    0    0 -0.89421265736E+02 -0.56710192818E+01  0.12792329223E+02  0.90509485207E+02  0.00000000000E+00 0. -1.
         -4    1    1    2    0  502  0.66053120729E+02 -0.22929460248E+02 -0.20971874307E+03  0.22106724339E+03  0.00000000000E+00 0.  1.
<scales pt_clust_5="13000.00000" pt_clust_6="13000.00000" pt_clust_7="13000.00000" pt_clust_8="13000.00000" pt_clust_9="69.91977"></scales>
<clustering>
<clus scale="   69.920">  2  9  1 -1</clus>
<clus scale="   90.686">  7  8 -1 -1</clus>
<clus scale="   91.836">  5  6 -1 -1</clus>
<clus scale="  135.549">  2  7  1 -1</clus>
<clus scale="   69.920">  2  5  1 -1</clus>
</clustering>
</event>
<event>
 9    1  0.1426358E-005  0.1329341E+03  0.7546771E-02  0.1224238E+00
         21   -1    0    0  501  502  0.00000000000E+00  0.00000000000E+00  0.16681240389E+03  0.16681240389E+03  0.00000000000E+00 0. -1.
          2   -1    0    0  502    0 -0.00000000000E+00 -0.00000000000E+00 -0.62112074628E+03  0.62112074628E+03  0.00000000000E+00 0. -1.
         23    2    1    2    0    0  0.11179147636E+03  0.21301149330E+00 -0.53865289194E+03  0.55785181065E+03  0.92489594463E+02 0.  0.
         23    2    1    2    0    0 -0.23869031261E+02  0.27360809943E+02 -0.12731113812E+02  0.96236816301E+02  0.88210537799E+02 0.  0.
        -11    1    3    3    0    0  0.76108533728E+02 -0.44279529228E+02 -0.32938854552E+03  0.34095454175E+03  0.00000000000E+00 0. -1.
         11    1    3    3    0    0  0.35682942628E+02  0.44492540722E+02 -0.20926434642E+03  0.21689726890E+03  0.00000000000E+00 0.  1.
        -13    1    4    4    0    0 -0.55982548735E+02  0.28993747787E+02 -0.55439622651E+01  0.63288377220E+02  0.00000000000E+00 0.  1.
         13    1    4    4    0    0  0.32113517474E+02 -0.16329378435E+01 -0.71871515473E+01  0.32948439081E+02  0.00000000000E+00 0. -1.
          2    1    1    2  501    0 -0.87922445095E+02 -0.27573821437E+02  0.97075663357E+02  0.13384452322E+03  0.00000000000E+00 0. -1.
<scales pt_clust_5="13000.00000" pt_clust_6="13000.00000" pt_clust_7="13000.00000" pt_clust_8="13000.00000" pt_clust_9="92.14484"></scales>
<clustering>
<clus scale="   88.211">  7  8 -1 -1</clus>
<clus scale="   92.145">  1  9  2 -1</clus>
<clus scale="   92.490">  5  6 -1 -1</clus>
<clus scale="  129.993">  1  7  2 -1</clus>
<clus scale="   92.145">  1  5  2 -1</clus>
</clustering>
</event>
<event>
 9    1  0.1426358E-005  0.9539771E+02  0.7546771E-02  0.1291088E+00
         21   -1    0    0  501  502  0.00000000000E+00  0.00000000000E+00  0.25692090671E+02  0.25692090671E+02  0.00000000000E+00 0.  1.
          2   -1    0    0  502    0 -0.00000000000E+00 -0.00000000000E+00 -0.64939259268E+03  0.64939259268E+03  0.00000000000E+00 0. -1.
         23    2    1    2    0    0 -0.25967123231E+01  0.24774677726E+02 -0.25792799239E+03  0.27546130411E+03  0.93442780519E+02 0.  0.
         23    2    1    2    0    0 -0.40452179279E+02  0.13428888716E+02 -0.26246038344E+03  0.28136047309E+03  0.91986678812E+02 0.  0.
        -13    1    4    4    0    0 -0.54265151499E+02 -0.17455730054E+02 -0.97282329615E+02  0.11275309678E+03  0.00000000000E+00 0.  1.
         13    1    4    4    0    0  0.13812972220E+02  0.30884618769E+02 -0.16517805383E+03  0.16860737630E+03  0.00000000000E+00 0. -1.
        -13    1    3    3    0    0  0.41635378703E+02  0.54183273240E+01 -0.17043489994E+03  0.17553039095E+03  0.00000000000E+00 0. -1.
         13    1    3    3    0    0 -0.44232091026E+02  0.19356350402E+02 -0.87493092453E+02  0.99930913157E+02  0.00000000000E+00 0.  1.
          2    1    1    2  501    0  0.43048891603E+02 -0.38203566442E+02 -0.10331212618E+03  0.11826290616E+03  0.00000000000E+00 0. -1.
<scales pt_clust_5="13000.00000" pt_clust_6="13000.00000" pt_clust_7="13000.00000" pt_clust_8="13000.00000" pt_clust_9="57.55623"></scales>
<clustering>
<clus scale="   57.556">  1  9  2 -1</clus>
<clus scale="   91.987">  5  6 -1 -1</clus>
<clus scale="   93.443">  7  8 -1 -1</clus>
<clus scale="   93.972">  1  5  2 -1</clus>
<clus scale="   57.556">  1  5  2 -1</clus>
</clustering>
</event>
<event>
 9    1  0.1426358E-005  0.1025287E+03  0.7546771E-02  0.1276964E+00
         21   -1    0    0  501  502  0.00000000000E+00  0.00000000000E+00  0.84755562979E+02  0.84755562979E+02  0.00000000000E+00 0. -1.
          2   -1    0    0  502    0 -0.00000000000E+00 -0.00000000000E+00 -0.54084265828E+03  0.54084265828E+03  0.00000000000E+00 0. -1.
         23    2    1    2    0    0 -0.10221744770E+02 -0.33132538086E+02 -0.31197181359E+03  0.32794565244E+03  0.94972045012E+02 0.  0.
         23    2    1    2    0    0  0.74818084721E+02  0.30159009824E+01 -0.18208476883E+03  0.21689750137E+03  0.91010008264E+02 0.  0.
        -11    1    4    4    0    0  0.84459704207E+01  0.21535002254E+02 -0.10093291192E+01  0.23154038173E+02  0.00000000000E+00 0.  1.
         11    1    4    4    0    0  0.66372114301E+02 -0.18519101272E+02 -0.18107543971E+03  0.19374346320E+03  0.00000000000E+00 0. -1.
        -11    1    3    3    0    0 -0.35531238198E+02  0.20980792521E+02 -0.12031704574E+03  0.12719612430E+03  0.00000000000E+00 0.  1.
         11    1    3    3    0    0  0.25309493427E+02 -0.54113330606E+02 -0.19165476785E+03  0.20074952814E+03  0.00000000000E+00 0. -1.
          2    1    1    2  501    0 -0.64596339951E+02  0.30116637103E+02  0.37969487117E+02  0.80755067441E+02  0.00000000000E+00 0. -1.
<scales pt_clust_5="13000.00000" pt_clust_6="13000.00000" pt_clust_7="13000.00000" pt_clust_8="13000.00000" pt_clust_9="71.27201"></scales>
<clustering>
<clus scale="   71.272">  1  9  2 -1</clus>
<clus scale="   91.010">  5  6 -1 -1</clus>
<clus scale="   94.972">  7  8 -1 -1</clus>
<clus scale="   98.870">  1  5  2 -1</clus>
<clus scale="   71.272">  1  5  2 -1</clus>
</clustering>
</event>
<event>
 9    1  0.1426358E-005  0.1309220E+03  0.7546771E-02  0.1226177E+00
         21   -1    0    0  501  502  0.00000000000E+00  0.00000000000E+00  0.11532685762E+03  0.11532685762E+03  0.00000000000E+00 0. -1.
          1   -1    0    0  502    0 -0.00000000000E+00 -0.00000000000E+00 -0.27928709748E+03  0.27928709748E+03  0.00000000000E+00 0. -1.
         23    2    1    2    0    0 -0.61665959009E+02 -0.47638897030E+02 -0.10003297352E+03  0.15642725362E+03  0.91600954541E+02 0.  0.
         23    2    1    2    0    0  0.97305150600E+02  0.60255063957E+02 -0.10666212788E+03  0.18112894095E+03  0.91279344108E+02 0.  0.
        -11    1    4    4    0    0  0.41102258372E+02  0.21721296372E+02 -0.10286128807E+03  0.11287893932E+03  0.00000000000E+00 0.  1.
         11    1    4    4    0    0  0.56202892228E+02  0.38533767585E+02 -0.38008398099E+01  0.68250001628E+02  0.00000000000E+00 0. -1.
        -11    1    3    3    0    0 -0.23002873041E+02 -0.71147194244E+02 -0.67052514356E+02  0.10043453140E+03  0.00000000000E+00 0. -1.
         11    1    3    3    0    0 -0.38663085968E+02  0.23508297213E+02 -0.32980459165E+02  0.55992722216E+02  0.00000000000E+00 0.  1.
          1    1    1    2  501    0 -0.35639191591E+02 -0.12616166926E+02  0.42734861546E+02  0.57057760528E+02  0.00000000000E+00 0. -1.
<scales pt_clust_5="13000.00000" pt_clust_6="13000.00000" pt_clust_7="13000.00000" pt_clust_8="13000.00000" pt_clust_9="37.80634"></scales>
<clustering>
<clus scale="   37.806">  1  9  2 -1</clus>
<clus scale="   91.279">  5  6 -1 -1</clus>
<clus scale="   91.601">  7  8 -1 -1</clus>
<clus scale="  130.697">  1  5  2 -1</clus>
<clus scale="   37.806">  1  5  2 -1</clus>
</clustering>
</event>
<event>
 9    1  0.1426358E-005  0.1178541E+03  0.7546771E-02  0.1248189E+00
         21   -1    0    0  501  502  0.00000000000E+00  0.00000000000E+00  0.21517925034E+03  0.21517925034E+03  0.00000000000E+00 0.  1.
         -2   -1    0    0    0  501 -0.00000000000E+00 -0.00000000000E+00 -0.12593526367E+03  0.12593526367E+03  0.00000000000E+00 0.  1.
         23    2    1    2    0    0  0.31757792845E+02 -0.65877626816E+02 -0.42030434418E+02  0.12744859223E+03  0.95541441918E+02 0.  0.
         23    2    1    2    0    0 -0.44514165416E+02  0.45598882938E+02  0.38279285375E+02  0.11763442820E+03  0.91168996705E+02 0.  0.
        -11    1    3    3    0    0  0.44391880524E+02  0.70067416737E+01 -0.65776939605E+01  0.45420254767E+02  0.00000000000E+00 0. -1.
         11    1    3    3    0    0 -0.12634087679E+02 -0.72884368489E+02 -0.35452740457E+02  0.82028337467E+02  0.00000000000E+00 0.  1.
        -11    1    4    4    0    0 -0.63088788765E+02  0.33594628642E+01  0.32747462201E+02  0.71160927054E+02  0.00000000000E+00 0.  1.
         11    1    4    4    0    0  0.18574623349E+02  0.42239420074E+02  0.55318231743E+01  0.46473501142E+02  0.00000000000E+00 0. -1.
         -2    1    1    2    0  502  0.12756372571E+02  0.20278743877E+02  0.92995135708E+02  0.96031493583E+02  0.00000000000E+00 0.  1.
<scales pt_clust_5="13000.00000" pt_clust_6="13000.00000" pt_clust_7="13000.00000" pt_clust_8="13000.00000" pt_clust_9="23.95731"></scales>
<clustering>
<clus scale="   23.957">  1  9  2 -1</clus>
<clus scale="   91.169">  7  8 -1 -1</clus>
<clus scale="   95.541">  5  6 -1 -1</clus>
<clus scale="  114.338">  1  7  2 -1</clus>
<clus scale="   23.957">  1  5  2 -1</clus>
</clustering>
</event>
<event>
 9    1  0.1426358E-005  0.1506520E+03  0.7546771E-02  0.1200287E+00
         21   -1    0    0  501  502  0.00000000000E+00  0.00000000000E+00  0.13547657342E+03  0.13547657342E+03  0.00000000000E+00 0. -1.
          3   -1    0    0  502    0 -0.00000000000E+00 -0.00000000000E+00 -0.36485303332E+03  0.36485303332E+03  0.00000000000E+00 0. -1.
         23    2    1    2    0    0  0.47862409922E+02 -0.13299663574E+03 -0.21167202609E+03  0.27040819527E+03  0.91305147942E+02 0.  0.
         23    2    1    2    0    0 -0.63835623099E+02  0.71621033177E+02 -0.69927698572E+02  0.14776681629E+03  0.87980621720E+02 0.  0.
        -13    1    4    4    0    0  0.18692129367E+02  0.31740007816E+02 -0.96982496073E+01  0.38090416667E+02  0.00000000000E+00 0.  1.
         13    1    4    4    0    0 -0.82527752466E+02  0.39881025361E+02 -0.60229448964E+02  0.10967639962E+03  0.00000000000E+00 0. -1.
        -13    1    3    3    0    0  0.50693552076E+02 -0.34948348535E+02 -0.42366495749E+02  0.74740506082E+02  0.00000000000E+00 0.  1.
         13    1    3    3    0    0 -0.28311421532E+01 -0.98048287201E+02 -0.16930553034E+03  0.19566768919E+03  0.00000000000E+00 0. -1.
          3    1    1    2  501    0  0.15973213176E+02  0.61375602559E+02  0.52223264756E+02  0.82154595188E+02  0.00000000000E+00 0. -1.
<scales pt_clust_5="13000.00000" pt_clust_6="13000.00000" pt_clust_7="13000.00000" pt_clust_8="13000.00000" pt_clust_9="63.42009"></scales>
<clustering>
<clus scale="   63.420">  1  9  2 -1</clus>
<clus scale="   87.981">  5  6 -1 -1</clus>
<clus scale="   91.305">  7  8 -1 -1</clus>
<clus scale="  148.661">  1  5  2 -1</clus>
<clus scale="   63.420">  1  5  2 -1</clus>
</clustering>
</event>
<event>
 9    1  0.1426358E-005  0.1009332E+03  0.7546771E-02  0.1278467E+00
          1   -1    0    0  502    0 -0.00000000000E+00  0.00000000000E+00  0.31495390994E+03  0.31495390994E+03  0.00000000000E+00 0. -1.
         21   -1    0    0  501  502  0.00000000000E+00 -0.00000000000E+00 -0.81657594886E+02  0.81657594886E+02  0.00000000000E+00 0.  1.
         23    2    1    2    0    0 -0.64844820689E+01  0.29934401973E+02  0.13660400614E+03  0.16764628087E+03  0.92230711080E+02 0.  0.
         23    2    1    2    0    0  0.45208292819E+02 -0.36111119389E+02  0.13538983487E+03  0.17387272109E+03  0.92485204590E+02 0.  0.
        -11    1    4    4    0    0 -0.13127139643E+02 -0.46158097841E+02  0.44750533694E+02  0.65616324625E+02  0.00000000000E+00 0. -1.
         11    1    4    4    0    0  0.58335432462E+02  0.10046978452E+02  0.90639301179E+02  0.10825639646E+03  0.00000000000E+00 0.  1.
        -13    1    3    3    0    0  0.11154418467E+01  0.49928405441E+02  0.28612049434E+02  0.57556400628E+02  0.00000000000E+00 0.  1.
         13    1    3    3    0    0 -0.75999239156E+01 -0.19994003468E+02  0.10799195671E+03  0.11008988024E+03  0.00000000000E+00 0. -1.
          1    1    1    2  501    0 -0.38723810750E+02  0.61767174155E+01 -0.38697525959E+02  0.55092502869E+02  0.00000000000E+00 0. -1.
<scales pt_clust_5="13000.00000" pt_clust_6="13000.00000" pt_clust_7="13000.00000" pt_clust_8="13000.00000" pt_clust_9="39.21333"></scales>
<clustering>
<clus scale="   39.213">  2  9  1 -1</clus>
<clus scale="   92.231">  7  8 -1 -1</clus>
<clus scale="   92.485">  5  6 -1 -1</clus>
<clus scale="  100.700">  1  7  2 -1</clus>
<clus scale="   39.213">  2  5  1 -1</clus>
</clustering>
</event>
<event>
 9    1  0.1426358E-005  0.1380336E+03  0.7546771E-02  0.1217229E+00
          1   -1    0    0  502    0 -0.00000000000E+00  0.00000000000E+00  0.19121385961E+03  0.19121385961E+03  0.00000000000E+00 0. -1.
         21   -1    0    0  501  502  0.00000000000E+00 -0.00000000000E+00 -0.47350827303E+03  0.47350827303E+03  0.00000000000E+00 0. -1.
         23    2    1    2    0    0 -0.75560610171E+02  0.31752005943E+02  0.67627572011E+02  0.13989413554E+03  0.90990576286E+02 0.  0.
         23    2    1    2    0    0  0.13459876064E+03 -0.37445779433E+02  0.32496761740E+00  0.16959448181E+03  0.96141405714E+02 0.  0.
        -11    1    4    4    0    0  0.11363631827E+03 -0.32568556743E+02  0.39718047038E+02  0.12470544086E+03  0.00000000000E+00 0. -1.
         11    1    4    4    0    0  0.20962442363E+02 -0.48772226899E+01 -0.39393079420E+02  0.44889040948E+02  0.00000000000E+00 0.  1.
        -11    1    3    3    0    0  0.16305263754E+02  0.25585650722E+02  0.18494745357E+02  0.35532277647E+02  0.00000000000E+00 0.  1.
         11    1    3    3    0    0 -0.91865873925E+02  0.61663552204E+01  0.49132826654E+02  0.10436185790E+03  0.00000000000E+00 0. -1.
          1    1    1    2  501    0 -0.59038150467E+02  0.56937734900E+01 -0.35024695305E+03  0.35523351529E+03  0.00000000000E+00 0. -1.
<scales pt_clust_5="13000.00000" pt_clust_6="13000.00000" pt_clust_7="13000.00000" pt_clust_8="13000.00000" pt_clust_9="59.31208"></scales>
<clustering>
<clus scale="   59.312">  2  9  1 -1</clus>
<clus scale="   90.991">  7  8 -1 -1</clus>
<clus scale="   96.141">  5  6 -1 -1</clus>
<clus scale="  134.497">  1  7  2 -1</clus>
<clus scale="   59.312">  2  5  1 -1</clus>
</clustering>
</event>
<event>
 9    1  0.1426358E-005  0.1266778E+03  0.7546771E-02  0.1232744E+00
          1   -1    0    0  502    0 -0.00000000000E+00  0.00000000000E+00  0.31683963391E+03  0.31683963391E+03  0.00000000000E+00 0. -1.
         21   -1    0    0  501  502  0.00000000000E+00 -0.00000000000E+00 -0.12942730671E+03  0.12942730671E+03  0.00000000000E+00 0. -1.
         23    2    1    2    0    0  0.18572152092E+02 -0.94504815627E+02  0.20942538625E+03  0.24773236383E+03  0.90753769465E+02 0.  0.
         23    2    1    2    0    0 -0.25738298972E+02  0.65022675199E+02  0.45902663655E+02  0.12414979571E+03  0.91737173058E+02 0.  0.
        -11    1    3    3    0    0  0.13629768268E+02 -0.50818512179E+02  0.25208393910E+02  0.58341707951E+02  0.00000000000E+00 0.  1.
         11    1    3    3    0    0  0.49423838237E+01 -0.43686303448E+02  0.18421699234E+03  0.18939065588E+03  0.00000000000E+00 0. -1.
        -13    1    4    4    0    0 -0.40274935695E+02  0.79253907827E+02  0.51900015920E+02  0.10294107054E+03  0.00000000000E+00 0.  1.
         13    1    4    4    0    0  0.14536636722E+02 -0.14231232628E+02 -0.59973522649E+01  0.21208725174E+02  0.00000000000E+00 0. -1.
          1    1    1    2  501    0  0.71661468807E+01  0.29482140428E+02 -0.67915722708E+02  0.74384781080E+02  0.00000000000E+00 0. -1.
<scales pt_clust_5="13000.00000" pt_clust_6="13000.00000" pt_clust_7="13000.00000" pt_clust_8="13000.00000" pt_clust_9="30.34057"></scales>
<clustering>
<clus scale="   30.341">  2  9  1 -1</clus>
<clus scale="   90.754">  5  6 -1 -1</clus>
<clus scale="   91.737">  7  8 -1 -1</clus>
<clus scale="  125.967">  1  5  2 -1</clus>
<clus scale="   30.341">  2  5  1 -1</clus>
</clustering>
</event>
<event>
 9    1  0.1426358E-005  0.1231568E+03  0.7546771E-02  0.1238009E+00
          1   -1    0    0  502    0 -0.00000000000E+00  0.00000000000E+00  0.26345265051E+03  0.26345265051E+03  0.00000000000E+00 0. -1.
         21   -1    0    0  501  502  0.00000000000E+00 -0.00000000000E+00 -0.36558517778E+03  0.36558517778E+03  0.00000000000E+00 0. -1.
         23    2    1    2    0    0  0.71488685597E+02  0.35636971809E+02  0.93663311362E+02  0.15296500910E+03  0.90801168416E+02 0.  0.
         23    2    1    2    0    0 -0.14843560969E+03  0.48242614106E+02 -0.28093124850E+03  0.33392975016E+03  0.90698575616E+02 0.  0.
        -13    1    3    3    0    0  0.54191969580E+02 -0.19080829204E+02  0.22879386193E+02  0.61841037529E+02  0.00000000000E+00 0.  1.
         13    1    3    3    0    0  0.17296716017E+02  0.54717801013E+02  0.70783925169E+02  0.91123971572E+02  0.00000000000E+00 0. -1.
        -13    1    4    4    0    0 -0.13456672735E+03  0.20732445924E+02 -0.26783037964E+03  0.30045157793E+03  0.00000000000E+00 0. -1.
         13    1    4    4    0    0 -0.13868882342E+02  0.27510168181E+02 -0.13100868855E+02  0.33478172225E+02  0.00000000000E+00 0.  1.
          1    1    1    2  501    0  0.76946924097E+02 -0.83879585915E+02  0.85135409863E+02  0.14214306903E+03  0.00000000000E+00 0. -1.
<scales pt_clust_5="13000.00000" pt_clust_6="13000.00000" pt_clust_7="13000.00000" pt_clust_8="13000.00000" pt_clust_9="113.82718"></scales>
<clustering>
<clus scale="   90.699">  7  8 -1 -1</clus>
<clus scale="   90.801">  5  6 -1 -1</clus>
<clus scale="  113.827">  2  9  1 -1</clus>
<clus scale="  123.081">  2  7  1 -1</clus>
<clus scale="  113.827">  2  5  1 -1</clus>
</clustering>
</event>
<event>
 9    1  0.1426358E-005  0.2714321E+03  0.7546771E-02  0.1101028E+00
         21   -1    0    0  501  502  0.00000000000E+00  0.00000000000E+00  0.81692432228E+02  0.81692432228E+02  0.00000000000E+00 0.  1.
          2   -1    0    0  502    0 -0.00000000000E+00 -0.00000000000E+00 -0.10559553115E+04  0.10559553115E+04  0.00000000000E+00 0. -1.
         23    2    1    2    0    0  0.23025721900E+03  0.86098461908E+02 -0.57953409498E+03  0.63748807863E+03  0.10049851297E+03 0.  0.
         23    2    1    2    0    0 -0.23941465745E+03 -0.10663746293E+03 -0.38804255280E+03  0.47669874157E+03  0.89295804612E+02 0.  0.
        -11    1    3    3    0    0  0.16609885968E+03  0.10729630814E+03 -0.41919293464E+03  0.46349114919E+03  0.00000000000E+00 0.  1.
         11    1    3    3    0    0  0.64158359320E+02 -0.21197846230E+02 -0.16034116034E+03  0.17399692944E+03  0.00000000000E+00 0. -1.
        -11    1    4    4    0    0 -0.45905781346E+02  0.34554985630E+01 -0.29562089144E+02  0.54710130194E+02  0.00000000000E+00 0.  1.
         11    1    4    4    0    0 -0.19350887611E+03 -0.11009296150E+03 -0.35848046366E+03  0.42198861137E+03  0.00000000000E+00 0. -1.
          2    1    1    2  501    0  0.91574384526E+01  0.20539001026E+02 -0.66862315164E+01  0.23460923555E+02  0.00000000000E+00 0. -1.
<scales pt_clust_5="13000.00000" pt_clust_6="13000.00000" pt_clust_7="13000.00000" pt_clust_8="13000.00000" pt_clust_9="22.48798"></scales>
<clustering>
<clus scale="   22.488">  1  9  2 -1</clus>
<clus scale="   89.296">  7  8 -1 -1</clus>
<clus scale="  100.499">  5  6 -1 -1</clus>
<clus scale="  267.487">  1  7  2 -1</clus>
<clus scale="   22.488">  1  5  2 -1</clus>
</clustering>
</event>
<event>
 9    1  0.1426358E-005  0.1142272E+03  0.7546771E-02  0.1254035E+00
         -4   -1    0    0    0  501 -0.00000000000E+00  0.00000000000E+00  0.47605272188E+02  0.47605272188E+02  0.00000000000E+00 0.  1.
         21   -1    0    0  501  502  0.00000000000E+00 -0.00000000000E+00 -0.11814196086E+04  0.11814196086E+04  0.00000000000E+00 0. -1.
         23    2    1    2    0    0 -0.49315748328E+02 -0.52227965737E+02 -0.76514581755E+02  0.14567702902E+03  0.10103223310E+03 0.  0.
         23    2    1    2    0    0 -0.60745114326E+02  0.32814517716E+02 -0.35836329204E+03  0.37553258333E+03  0.88508251453E+02 0.  0.
        -13    1    4    4    0    0  0.20627131480E+02 -0.60200800165E+01 -0.54806638974E+02  0.58868392131E+02  0.00000000000E+00 0.  1.
         13    1    4    4    0    0 -0.81372245806E+02  0.38834597732E+02 -0.30355665307E+03  0.31666419120E+03  0.00000000000E+00 0. -1.
        -13    1    3    3    0    0 -0.10960389305E+02 -0.75651902910E+02 -0.62076348803E+02  0.98472400338E+02  0.00000000000E+00 0.  1.
         13    1    3    3    0    0 -0.38355359023E+02  0.23423937173E+02 -0.14438232952E+02  0.47204628685E+02  0.00000000000E+00 0. -1.
         -4    1    1    2    0  502  0.11006086265E+03  0.19413448021E+02 -0.69893646264E+03  0.70781526846E+03  0.00000000000E+00 0.  1.
<scales pt_clust_5="13000.00000" pt_clust_6="13000.00000" pt_clust_7="13000.00000" pt_clust_8="13000.00000" pt_clust_9="111.75990"></scales>
<clustering>
<clus scale="   88.508">  5  6 -1 -1</clus>
<clus scale="  101.032">  7  8 -1 -1</clus>
<clus scale="  111.760">  2  9  1 -1</clus>
<clus scale="  111.760">  2  5  1 -1</clus>
<clus scale="  111.760">  2  5  1 -1</clus>
</clustering>
</event>
<event>
 9    1  0.1426358E-005  0.3302177E+03  0.7546771E-02  0.1071056E+00
          2   -1    0    0  502    0 -0.00000000000E+00  0.00000000000E+00  0.15169044828E+04  0.15169044828E+04  0.00000000000E+00 0. -1.
         21   -1    0    0  501  502  0.00000000000E+00 -0.00000000000E+00 -0.15046546437E+03  0.15046546437E+03  0.00000000000E+00 0.  1.
         23    2    1    2    0    0 -0.37749691594E+02  0.27127702217E+03  0.64575764389E+03  0.70711681400E+03  0.89414719246E+02 0.  0.
         23    2    1    2    0    0  0.99876931872E+02 -0.43655947968E+03  0.48994094149E+03  0.66970325415E+03  0.88886116254E+02 0.  0.
        -11    1    3    3    0    0  0.63894837714E+01  0.21884460583E+03  0.51115649068E+03  0.55607080931E+03  0.00000000000E+00 0. -1.
         11    1    3    3    0    0 -0.44139175366E+02  0.52432416337E+02  0.13460115322E+03  0.15104600469E+03  0.00000000000E+00 0.  1.
        -13    1    4    4    0    0  0.78808329150E+02 -0.42555749571E+03  0.46329414567E+03  0.63399637248E+03  0.00000000000E+00 0.  1.
         13    1    4    4    0    0  0.21068602723E+02 -0.11001983965E+02  0.26646795812E+02  0.35706881674E+02  0.00000000000E+00 0. -1.
          2    1    1    2  501    0 -0.62127240278E+02  0.16528245751E+03  0.23074043302E+03  0.29054987898E+03  0.00000000000E+00 0. -1.
<scales pt_clust_5="13000.00000" pt_clust_6="13000.00000" pt_clust_7="13000.00000" pt_clust_8="13000.00000" pt_clust_9="176.57317"></scales>
<clustering>
<clus scale="   88.886">  7  8 -1 -1</clus>
<clus scale="   89.415">  5  6 -1 -1</clus>
<clus scale="  176.573">  2  9  1 -1</clus>
<clus scale="  330.075">  2  7  1 -1</clus>
<clus scale="  176.573">  2  5  1 -1</clus>
</clustering>
</event>
<event>
 9    1  0.1426358E-005  0.1317810E+03  0.7546771E-02  0.1233430E+00
          2   -1    0    0  502    0 -0.00000000000E+00  0.00000000000E+00  0.82382048089E+02  0.82382048089E+02  0.00000000000E+00 0. -1.
         21   -1    0    0  501  502  0.00000000000E+00 -0.00000000000E+00 -0.40321380894E+03  0.40321380894E+03  0.00000000000E+00 0. -1.
         23    2    1    2    0    0  0.60913667629E+02  0.17830094618E+02 -0.31278909723E+02  0.11467515289E+03  0.90242081750E+02 0.  0.
         23    2    1    2    0    0  0.14298550251E+02  0.63913420959E+02 -0.10906244867E+03  0.15898754147E+03  0.95357468069E+02 0.  0.
        -11    1    4    4    0    0 -0.29269135351E+02  0.64131254644E+02 -0.54155383781E+02  0.88894913796E+02  0.00000000000E+00 0.  1.
         11    1    4    4    0    0  0.43567685602E+02 -0.21783368523E+00 -0.54907064886E+02  0.70092627677E+02  0.00000000000E+00 0. -1.
        -13    1    3    3    0    0  0.16337468646E+02 -0.29204429355E+02  0.13311429802E+02  0.36013965890E+02  0.00000000000E+00 0.  1.
         13    1    3    3    0    0  0.44576198982E+02  0.47034523974E+02 -0.44590339525E+02  0.78661186999E+02  0.00000000000E+00 0. -1.
          2    1    1    2  501    0 -0.75212217880E+02 -0.81743515577E+02 -0.18049040246E+03  0.21193316267E+03  0.00000000000E+00 0. -1.
<scales pt_clust_5="13000.00000" pt_clust_6="13000.00000" pt_clust_7="13000.00000" pt_clust_8="13000.00000" pt_clust_9="90.95711"></scales>
<clustering>
<clus scale="   90.242">  7  8 -1 -1</clus>
<clus scale="   95.357">  5  6 -1 -1</clus>
<clus scale="  110.327">  1  7  2 -1</clus>
<clus scale="   90.957">  2  9  1 -1</clus>
<clus scale="   90.957">  2  5  1 -1</clus>
</clustering>
</event>
<event>
 9    1  0.1426358E-005  0.1196871E+03  0.7546771E-02  0.1243840E+00
          4   -1    0    0  502    0 -0.00000000000E+00  0.00000000000E+00  0.35112109222E+03  0.35112109222E+03  0.00000000000E+00 0. -1.
         21   -1    0    0  501  502  0.00000000000E+00 -0.00000000000E+00 -0.18303216624E+03  0.18303216624E+03  0.00000000000E+00 0. -1.
         23    2    1    2    0    0 -0.81589496290E+02 -0.13132887623E+02  0.30338118872E+03  0.32750091413E+03  0.91582664510E+02 0.  0.
         23    2    1    2    0    0  0.27175457878E+02 -0.12102657679E+02 -0.91913430523E+02  0.13262908173E+03  0.90870318455E+02 0.  0.
        -11    1    4    4    0    0 -0.29117194816E+02 -0.18455605332E+02 -0.55338792477E+02  0.65198177543E+02  0.00000000000E+00 0. -1.
         11    1    4    4    0    0  0.56292652694E+02  0.63529476526E+01 -0.36574638046E+02  0.67430904187E+02  0.00000000000E+00 0.  1.
        -13    1    3    3    0    0 -0.58630081012E+02  0.18259993275E+02  0.26792480565E+03  0.27487199791E+03  0.00000000000E+00 0. -1.
         13    1    3    3    0    0 -0.22959415278E+02 -0.31392880898E+02  0.35456383074E+02  0.52628916212E+02  0.00000000000E+00 0.  1.
          4    1    1    2  501    0  0.54414038412E+02  0.25235545302E+02 -0.43378832219E+02  0.74023262612E+02  0.00000000000E+00 0. -1.
<scales pt_clust_5="13000.00000" pt_clust_6="13000.00000" pt_clust_7="13000.00000" pt_clust_8="13000.00000" pt_clust_9="59.98100"></scales>
<clustering>
<clus scale="   59.981">  2  9  1 -1</clus>
<clus scale="   90.870">  5  6 -1 -1</clus>
<clus scale="   91.583">  7  8 -1 -1</clus>
<clus scale="  119.143">  2  5  1 -1</clus>
<clus scale="   59.981">  2  5  1 -1</clus>
</clustering>
</event>
<event>
 9    1  0.1426358E-005  0.1421732E+03  0.7546771E-02  0.1210435E+00
         21   -1    0    0  501  502  0.00000000000E+00  0.00000000000E+00  0.10611496527E+03  0.10611496527E+03  0.00000000000E+00 0. -1.
         -4   -1    0    0    0  501 -0.00000000000E+00 -0.00000000000E+00 -0.42423043069E+03  0.42423043069E+03  0.00000000000E+00 0.  1.
         23    2    1    2    0    0 -0.77234527314E+02 -0.76967745077E+02 -0.23210951400E+03  0.27269917368E+03  0.92740535065E+02 0.  0.
         23    2    1    2    0    0  0.32573166448E+02  0.10957284016E+03 -0.12240721627E+03  0.19144364331E+03  0.92735772470E+02 0.  0.
        -11    1    3    3    0    0 -0.30466712102E+02  0.17715833995E+02 -0.81107291715E+02  0.88433387867E+02  0.00000000000E+00 0.  1.
         11    1    3    3    0    0 -0.46767815212E+02 -0.94683579072E+02 -0.15100222228E+03  0.18426578581E+03  0.00000000000E+00 0. -1.
        -13    1    4    4    0    0 -0.24181018235E+02  0.32216828219E+02 -0.73357987254E+02  0.83690142534E+02  0.00000000000E+00 0. -1.
         13    1    4    4    0    0  0.56754184683E+02  0.77356011946E+02 -0.49049229020E+02  0.10775350078E+03  0.00000000000E+00 0.  1.
         -4    1    1    2    0  502  0.44661360867E+02 -0.32605095087E+02  0.36401264851E+02  0.66202578975E+02  0.00000000000E+00 0.  1.
<scales pt_clust_5="13000.00000" pt_clust_6="13000.00000" pt_clust_7="13000.00000" pt_clust_8="13000.00000" pt_clust_9="55.29674"></scales>
<clustering>
<clus scale="   55.297">  1  9  2 -1</clus>
<clus scale="   92.736">  7  8 -1 -1</clus>
<clus scale="   92.741">  5  6 -1 -1</clus>
<clus scale="  142.170">  1  7  2 -1</clus>
<clus scale="   55.297">  1  5  2 -1</clus>
</clustering>
</event>
<event>
 9    1  0.1426358E-005  0.1307786E+03  0.7546771E-02  0.1227904E+00
          1   -1    0    0  502    0 -0.00000000000E+00  0.00000000000E+00  0.44962364978E+03  0.44962364978E+03  0.00000000000E+00 0. -1.
         21   -1    0    0  501  502  0.00000000000E+00 -0.00000000000E+00 -0.88685752075E+02  0.88685752075E+02  0.00000000000E+00 0. -1.
         23    2    1    2    0    0  0.40217235582E+02 -0.83720881248E+02  0.23444974893E+03  0.26785291704E+03  0.90287808684E+02 0.  0.
         23    2    1    2    0    0 -0.11846238685E+02  0.99157067123E+02  0.17122635405E+03  0.21527771796E+03  0.83985559460E+02 0.  0.
        -13    1    4    4    0    0  0.15031039737E+02  0.88903721489E+02  0.16140253339E+03  0.18487991139E+03  0.00000000000E+00 0. -1.
         13    1    4    4    0    0 -0.26877278422E+02  0.10253345634E+02  0.98238206598E+01  0.30397806572E+02  0.00000000000E+00 0.  1.
        -13    1    3    3    0    0  0.50951218132E+02 -0.24109912112E+02  0.17136672180E+03  0.18039919022E+03  0.00000000000E+00 0.  1.
         13    1    3    3    0    0 -0.10733982550E+02 -0.59610969135E+02  0.63083027136E+02  0.87453726823E+02  0.00000000000E+00 0. -1.
          1    1    1    2  501    0 -0.28370996897E+02 -0.15436185875E+02 -0.44738205283E+02  0.55178766851E+02  0.00000000000E+00 0. -1.
<scales pt_clust_5="13000.00000" pt_clust_6="13000.00000" pt_clust_7="13000.00000" pt_clust_8="13000.00000" pt_clust_9="32.29844"></scales>
<clustering>
<clus scale="   32.298">  2  9  1 -1</clus>
<clus scale="   83.986">  5  6 -1 -1</clus>
<clus scale="   90.288">  7  8 -1 -1</clus>
<clus scale="  126.510">  2  5  1 -1</clus>
<clus scale="   32.298">  2  5  1 -1</clus>
</clustering>
</event>
<event>
 9    1  0.1426358E-005  0.2904882E+03  0.7546771E-02  0.1090183E+00
         21   -1    0    0  501  502  0.00000000000E+00  0.00000000000E+00  0.52567578491E+03  0.52567578491E+03  0.00000000000E+00 0. -1.
          3   -1    0    0  502    0 -0.00000000000E+00 -0.00000000000E+00 -0.30525427862E+03  0.30525427862E+03  0.00000000000E+00 0. -1.
         23    2    1    2    0    0  0.58696454705E+02 -0.25390539337E+03 -0.62526198920E+02  0.28370316729E+03  0.93084579848E+02 0.  0.
         23    2    1    2    0    0  0.18342691414E+02  0.31149023219E+03  0.99182978656E+02  0.33981301429E+03  0.90956046238E+02 0.  0.
        -11    1    4    4    0    0 -0.49814803212E+01  0.12820861059E+03  0.86251275941E+02  0.15460124701E+03  0.00000000000E+00 0.  1.
         11    1    4    4    0    0  0.23324171735E+02  0.18328162160E+03  0.12931702715E+02  0.18521176728E+03  0.00000000000E+00 0. -1.
        -13    1    3    3    0    0  0.51184407287E+02 -0.87337963871E+02  0.10304087643E+02  0.10175430067E+03  0.00000000000E+00 0. -1.
         13    1    3    3    0    0  0.75120474180E+01 -0.16656742950E+03 -0.72830286563E+02  0.18194886662E+03  0.00000000000E+00 0.  1.
          3    1    1    2  501    0 -0.77039146119E+02 -0.57584838823E+02  0.18376472656E+03  0.20741388195E+03  0.00000000000E+00 0. -1.
<scales pt_clust_5="13000.00000" pt_clust_6="13000.00000" pt_clust_7="13000.00000" pt_clust_8="13000.00000" pt_clust_9="96.18235"></scales>
<clustering>
<clus scale="   90.956">  5  6 -1 -1</clus>
<clus scale="   93.085">  7  8 -1 -1</clus>
<clus scale="   96.182">  1  9  2 -1</clus>
<clus scale="  289.813">  1  5  2 -1</clus>
<clus scale="   96.182">  1  5  2 -1</clus>
</clustering>
</event>
<event>
 9    1  0.1426358E-005  0.1259483E+03  0.7546771E-02  0.1240490E+00
          2   -1    0    0  502    0 -0.00000000000E+00  0.00000000000E+00  0.24292455568E+03  0.24292455568E+03  0.00000000000E+00 0. -1.
         21   -1    0    0  501  502  0.00000000000E+00 -0.00000000000E+00 -0.17628598503E+03  0.17628598503E+03  0.00000000000E+00 0. -1.
         23    2    1    2    0    0 -0.39218366273E+02  0.45541147134E+02 -0.50268962782E+02  0.12041005303E+03  0.91430497735E+02 0.  0.
         23    2    1    2    0    0 -0.48404879634E+02  0.44107222361E+02 -0.13704262672E+02  0.11776429059E+03  0.96913063544E+02 0.  0.
        -11    1    3    3    0    0 -0.22361375460E+02 -0.23956379218E+02 -0.33692488059E+02  0.47001308166E+02  0.00000000000E+00 0.  1.
         11    1    3    3    0    0 -0.16856990813E+02  0.69497526352E+02 -0.16576474724E+02  0.73408744865E+02  0.00000000000E+00 0. -1.
        -13    1    4    4    0    0  0.12278493641E+02 -0.22555382435E+02  0.37214303808E+01  0.25949098770E+02  0.00000000000E+00 0.  1.
         13    1    4    4    0    0 -0.60683373275E+02  0.66662604796E+02 -0.17425693052E+02  0.91815191818E+02  0.00000000000E+00 0. -1.
          2    1    1    2  501    0  0.87623245907E+02 -0.89648369495E+02  0.13061179610E+03  0.18103619709E+03  0.00000000000E+00 0. -1.
<scales pt_clust_5="13000.00000" pt_clust_6="13000.00000" pt_clust_7="13000.00000" pt_clust_8="13000.00000" pt_clust_9="80.44157"></scales>
<clustering>
<clus scale="   91.430">  5  6 -1 -1</clus>
<clus scale="   96.913">  7  8 -1 -1</clus>
<clus scale="  109.415">  1  5  2 -1</clus>
<clus scale="   80.442">  2  9  1 -1</clus>
<clus scale="   80.442">  2  5  1 -1</clus>
</clustering>
</event>
<event>
 9    1  0.1426358E-005  0.9633022E+02  0.7546771E-02  0.1290040E+00
         21   -1    0    0  501  502  0.00000000000E+00  0.00000000000E+00  0.16011528729E+02  0.16011528729E+02  0.00000000000E+00 0. -1.
          3   -1    0    0  502    0 -0.00000000000E+00 -0.00000000000E+00 -0.89481699615E+03  0.89481699615E+03  0.00000000000E+00 0. -1.
         23    2    1    2    0    0 -0.25124252100E+02 -0.28830640837E+02 -0.49892581027E+03  0.50848951281E+03  0.90400147049E+02 0.  0.
         23    2    1    2    0    0  0.36512757958E+02 -0.56797004140E+01 -0.30141402516E+03  0.31586637408E+03  0.86923594123E+02 0.  0.
        -11    1    3    3    0    0  0.34077507562E+02 -0.55469580237E+01 -0.17967651312E+03  0.18296364292E+03  0.00000000000E+00 0. -1.
         11    1    3    3    0    0 -0.59201759662E+02 -0.23283682814E+02 -0.31924929715E+03  0.32552586989E+03  0.00000000000E+00 0.  1.
        -13    1    4    4    0    0  0.57098823953E+02 -0.27766470397E+02 -0.18461378826E+03  0.19522679988E+03  0.00000000000E+00 0. -1.
         13    1    4    4    0    0 -0.20586065995E+02  0.22086769983E+02 -0.11680023690E+03  0.12063957420E+03  0.00000000000E+00 0.  1.
          3    1    1    2  501    0 -0.11388505858E+02  0.34510341251E+02 -0.78465631982E+02  0.86472637992E+02  0.00000000000E+00 0. -1.
<scales pt_clust_5="13000.00000" pt_clust_6="13000.00000" pt_clust_7="13000.00000" pt_clust_8="13000.00000" pt_clust_9="36.34091"></scales>
<clustering>
<clus scale="   36.341">  1  9  2 -1</clus>
<clus scale="   86.924">  7  8 -1 -1</clus>
<clus scale="   90.400">  5  6 -1 -1</clus>
<clus scale="   93.075">  1  7  2 -1</clus>
<clus scale="   36.341">  1  5  2 -1</clus>
</clustering>
</event>
<event>
 9    1  0.1426358E-005  0.9854194E+02  0.7546771E-02  0.1284474E+00
         21   -1    0    0  501  502  0.00000000000E+00  0.00000000000E+00  0.32945511118E+03  0.32945511118E+03  0.00000000000E+00 0. -1.
          3   -1    0    0  502    0 -0.00000000000E+00 -0.00000000000E+00 -0.10560202592E+03  0.10560202592E+03  0.00000000000E+00 0. -1.
         23    2    1    2    0    0 -0.10644443633E+02  0.18278638436E+01 -0.30730066650E+01  0.90816807457E+02  0.90119941634E+02 0.  0.
         23    2    1    2    0    0  0.66195294237E+02 -0.60047923316E+01  0.32701459814E+01  0.11375101126E+03  0.92253586365E+02 0.  0.
        -13    1    3    3    0    0  0.11706785103E+01 -0.28849100786E+02  0.31758972781E+02  0.42921713112E+02  0.00000000000E+00 0.  1.
         13    1    3    3    0    0 -0.11815122143E+02  0.30676964630E+02 -0.34831979446E+02  0.47895094345E+02  0.00000000000E+00 0. -1.
        -13    1    4    4    0    0  0.77720996287E+02  0.21441764289E+02 -0.98417410511E+01  0.81222917866E+02  0.00000000000E+00 0. -1.
         13    1    4    4    0    0 -0.11525702051E+02 -0.27446556621E+02  0.13111887032E+02  0.32528093391E+02  0.00000000000E+00 0.  1.
          3    1    1    2  501    0 -0.55550850604E+02  0.41769284880E+01  0.22365594594E+03  0.23048931839E+03  0.00000000000E+00 0. -1.
<scales pt_clust_5="13000.00000" pt_clust_6="13000.00000" pt_clust_7="13000.00000" pt_clust_8="13000.00000" pt_clust_9="55.70766"></scales>
<clustering>
<clus scale="   55.708">  1  9  2 -1</clus>
<clus scale="   90.120">  5  6 -1 -1</clus>
<clus scale="   92.254">  7  8 -1 -1</clus>
<clus scale="   96.547">  2  5  1 -1</clus>
<clus scale="   55.708">  1  5  2 -1</clus>
</clustering>
</event>
<event>
 9    1  0.1426358E-005  0.1075609E+03  0.7546771E-02  0.1267758E+00
         21   -1    0    0  501  502  0.00000000000E+00  0.00000000000E+00  0.29204361850E+03  0.29204361850E+03  0.00000000000E+00 0.  1.
          1   -1    0    0  502    0 -0.00000000000E+00 -0.00000000000E+00 -0.48025894707E+02  0.48025894707E+02  0.00000000000E+00 0. -1.
         23    2    1    2    0    0  0.53608093207E+02  0.32816074706E+01  0.97289593641E+02  0.14353530782E+03  0.90843397968E+02 0.  0.
         23    2    1    2    0    0 -0.36909513944E+02 -0.20039750686E+02  0.10679505909E+03  0.15011946551E+03  0.96782051294E+02 0.  0.
        -11    1    3    3    0    0  0.53086025253E+02 -0.37107525790E+02  0.65687775866E+02  0.92249544420E+02  0.00000000000E+00 0.  1.
         11    1    3    3    0    0  0.52206795460E+00  0.40389133261E+02  0.31601817774E+02  0.51285763397E+02  0.00000000000E+00 0. -1.
        -13    1    4    4    0    0  0.19452875190E+02 -0.18006981923E+02 -0.30089747986E+01  0.26678074902E+02  0.00000000000E+00 0. -1.
         13    1    4    4    0    0 -0.56362389134E+02 -0.20327687626E+01  0.10980403389E+03  0.12344139061E+03  0.00000000000E+00 0.  1.
          1    1    1    2  501    0 -0.16698579264E+02  0.16758143215E+02  0.39933071065E+02  0.46414739880E+02  0.00000000000E+00 0. -1.
<scales pt_clust_5="13000.00000" pt_clust_6="13000.00000" pt_clust_7="13000.00000" pt_clust_8="13000.00000" pt_clust_9="23.65751"></scales>
<clustering>
<clus scale="   23.658">  1  9  2 -1</clus>
<clus scale="   90.843">  5  6 -1 -1</clus>
<clus scale="   96.782">  7  8 -1 -1</clus>
<clus scale="  102.250">  2  5  1 -1</clus>
<clus scale="   23.658">  1  5  2 -1</clus>
</clustering>
</event>
<event>
 9    1  0.1426358E-005  0.1035990E+03  0.7546771E-02  0.1275366E+00
         21   -1    0    0  501  502  0.00000000000E+00  0.00000000000E+00  0.40654344700E+02  0.40654344700E+02  0.00000000000E+00 0.  1.
          2   -1    0    0  502    0 -0.00000000000E+00 -0.00000000000E+00 -0.34897250610E+03  0.34897250610E+03  0.00000000000E+00 0. -1.
         23    2    1    2    0    0 -0.21412799321E+02  0.48222495659E+02 -0.20880884984E+03  0.23481862640E+03  0.93566738069E+02 0.  0.
         23    2    1    2    0    0  0.20770457850E+02 -0.24839284747E+02 -0.87913969539E+02  0.12870000516E+03  0.88240712273E+02 0.  0.
        -11    1    4    4    0    0 -0.12006836027E+02  0.18524244254E+02  0.34948008415E+01  0.22350064194E+02  0.00000000000E+00 0.  1.
         11    1    4    4    0    0  0.32777293877E+02 -0.43363529000E+02 -0.91408770381E+02  0.10634994097E+03  0.00000000000E+00 0. -1.
        -13    1    3    3    0    0 -0.57223518116E+02  0.42094472307E+02 -0.13479086846E+03  0.15236487077E+03  0.00000000000E+00 0.  1.
         13    1    3    3    0    0  0.35810718795E+02  0.61280233523E+01 -0.74017981380E+02  0.82453755635E+02  0.00000000000E+00 0. -1.
          2    1    1    2  501    0  0.64234147107E+00 -0.23383210912E+02 -0.11595342028E+02  0.26108219240E+02  0.00000000000E+00 0. -1.
<scales pt_clust_5="13000.00000" pt_clust_6="13000.00000" pt_clust_7="13000.00000" pt_clust_8="13000.00000" pt_clust_9="23.39203"></scales>
<clustering>
<clus scale="   23.392">  1  9  2 -1</clus>
<clus scale="   88.241">  5  6 -1 -1</clus>
<clus scale="   93.567">  7  8 -1 -1</clus>
<clus scale="   98.815">  1  5  2 -1</clus>
<clus scale="   23.392">  1  5  2 -1</clus>
</clustering>
</event>
<event>
 9    1  0.1426358E-005  0.1430074E+03  0.7546771E-02  0.1209549E+00
          1   -1    0    0  502    0 -0.00000000000E+00  0.00000000000E+00  0.13748149521E+04  0.13748149521E+04  0.00000000000E+00 0. -1.
         21   -1    0    0  501  502  0.00000000000E+00 -0.00000000000E+00 -0.30535546859E+02  0.30535546859E+02  0.00000000000E+00 0. -1.
         23    2    1    2    0    0  0.73068580270E+02 -0.12717444022E+03  0.87693368703E+03  0.89371641723E+03  0.90575864968E+02 0.  0.
         23    2    1    2    0    0 -0.47643723393E+02  0.52938435462E+02  0.36291658757E+03  0.38100923310E+03  0.91581569389E+02 0.  0.
        -11    1    4    4    0    0 -0.48668777922E+02  0.77453008843E+02  0.28474042069E+03  0.29907311096E+03  0.00000000000E+00 0. -1.
         11    1    4    4    0    0  0.10250545294E+01 -0.24514573381E+02  0.78176166875E+02  0.81936122145E+02  0.00000000000E+00 0.  1.
        -11    1    3    3    0    0 -0.17071544104E+02 -0.51822080754E+02  0.25277768482E+03  0.25859915625E+03  0.00000000000E+00 0.  1.
         11    1    3    3    0    0  0.90140124374E+02 -0.75352359463E+02  0.62415600221E+03  0.63511726098E+03  0.00000000000E+00 0. -1.
          1    1    1    2  501    0 -0.25424856877E+02  0.74236004754E+02  0.10442913061E+03  0.13062484859E+03  0.00000000000E+00 0. -1.
<scales pt_clust_5="13000.00000" pt_clust_6="13000.00000" pt_clust_7="13000.00000" pt_clust_8="13000.00000" pt_clust_9="78.46915"></scales>
<clustering>
<clus scale="   78.469">  2  9  1 -1</clus>
<clus scale="   90.576">  7  8 -1 -1</clus>
<clus scale="   91.582">  5  6 -1 -1</clus>
<clus scale="  142.365">  1  7  2 -1</clus>
<clus scale="   78.469">  2  5  1 -1</clus>
</clustering>
</event>
<event>
 9    1  0.1426358E-005  0.1344197E+03  0.7546771E-02  0.1221154E+00
         21   -1    0    0  501  502  0.00000000000E+00  0.00000000000E+00  0.23268782708E+02  0.23268782708E+02  0.00000000000E+00 0.  1.
          1   -1    0    0  502    0 -0.00000000000E+00 -0.00000000000E+00 -0.10200716987E+04  0.10200716987E+04  0.00000000000E+00 0. -1.
         23    2    1    2    0    0  0.65482837816E+02  0.56319683669E+02 -0.47775299181E+03  0.49391695681E+03  0.90808205721E+02 0.  0.
         23    2    1    2    0    0 -0.91542404370E+02 -0.72349083324E+02 -0.45354750035E+03  0.47712822606E+03  0.91277638954E+02 0.  0.
        -11    1    4    4    0    0 -0.43236671192E+02 -0.81721022643E+02 -0.22332707444E+03  0.24170791765E+03  0.00000000000E+00 0.  1.
         11    1    4    4    0    0 -0.48305733178E+02  0.93719393191E+01 -0.23022042591E+03  0.23542030841E+03  0.00000000000E+00 0. -1.
        -13    1    3    3    0    0 -0.18810880548E+02  0.29328224180E+02 -0.17762191589E+03  0.18100701358E+03  0.00000000000E+00 0.  1.
         13    1    3    3    0    0  0.84293718364E+02  0.26991459489E+02 -0.30013107592E+03  0.31290994324E+03  0.00000000000E+00 0. -1.
          1    1    1    2  501    0  0.26059566554E+02  0.16029399654E+02 -0.65502423806E+02  0.72295298510E+02  0.00000000000E+00 0. -1.
<scales pt_clust_5="13000.00000" pt_clust_6="13000.00000" pt_clust_7="13000.00000" pt_clust_8="13000.00000" pt_clust_9="30.59481"></scales>
<clustering>
<clus scale="   30.595">  1  9  2 -1</clus>
<clus scale="   90.808">  7  8 -1 -1</clus>
<clus scale="   91.278">  5  6 -1 -1</clus>
<clus scale="  134.101">  2  7  1 -1</clus>
<clus scale="   30.595">  1  5  2 -1</clus>
</clustering>
</event>
<event>
 9    1  0.1452916E-005  0.2577150E+03  0.7546771E-02  0.1139039E+00
         21   -1    0    0  501  502  0.00000000000E+00  0.00000000000E+00  0.20965440982E+03  0.20965440982E+03  0.00000000000E+00 0.  1.
          2   -1    0    0  502    0 -0.00000000000E+00 -0.00000000000E+00 -0.96413158969E+03  0.96413158969E+03  0.00000000000E+00 0. -1.
         23    2    1    2    0    0 -0.67982838573E+02  0.37939423469E+02 -0.51302304136E+03  0.52704352124E+03  0.92310162603E+02 0.  0.
         23    2    1    2    0    0  0.96668353753E+02  0.21797804329E+03  0.47342291971E+02  0.25980580795E+03  0.91643697335E+02 0.  0.
        -11    1    4    4    0    0  0.73896673540E+02  0.60658502507E+02  0.28332380254E+02  0.99714071512E+02  0.00000000000E+00 0.  1.
         11    1    4    4    0    0  0.22771680213E+02  0.15731954079E+03  0.19009911717E+02  0.16009173644E+03  0.00000000000E+00 0. -1.
        -11    1    3    3    0    0  0.56892713675E+01 -0.22465359373E+02 -0.65124987804E+02  0.69125423811E+02  0.00000000000E+00 0.  1.
         11    1    3    3    0    0 -0.73672109940E+02  0.60404782842E+02 -0.44789805355E+03  0.45791809743E+03  0.00000000000E+00 0. -1.
          2    1    1    2  501    0 -0.28685515180E+02 -0.25591746676E+03 -0.28879643048E+03  0.38693667032E+03  0.00000000000E+00 0. -1.
<scales pt_clust_5="13000.00000" pt_clust_6="13000.00000" pt_clust_7="13000.00000" pt_clust_8="13000.00000" pt_clust_9="240.87031"></scales>
<clustering>
<clus scale="   91.644">  5  6 -1 -1</clus>
<clus scale="   92.310">  7  8 -1 -1</clus>
<clus scale="  120.757">  2  7  1 -1</clus>
<clus scale="  240.870">  1  9  2 -1</clus>
<clus scale="  240.870">  1  5  2 -1</clus>
</clustering>
</event>
<event>
 9    1  0.1426358E-005  0.1498654E+03  0.7546771E-02  0.1201383E+00
         21   -1    0    0  501  502  0.00000000000E+00  0.00000000000E+00  0.50835156594E+03  0.50835156594E+03  0.00000000000E+00 0. -1.
          1   -1    0    0  502    0 -0.00000000000E+00 -0.00000000000E+00 -0.64641612244E+02  0.64641612244E+02  0.00000000000E+00 0. -1.
         23    2    1    2    0    0  0.51815076047E+02 -0.10431051760E+03  0.10782303900E+03  0.18570340933E+03  0.96407791746E+02 0.  0.
         23    2    1    2    0    0 -0.74358104215E+02  0.86720666021E+02  0.19900565576E+03  0.24745390062E+03  0.92631421932E+02 0.  0.
        -11    1    4    4    0    0  0.46582913024E+01  0.53488210347E+02  0.11742735178E+03  0.12911960064E+03  0.00000000000E+00 0. -1.
         11    1    4    4    0    0 -0.79016395518E+02  0.33232455675E+02  0.81578303983E+02  0.11833429998E+03  0.00000000000E+00 0.  1.
        -13    1    3    3    0    0  0.61858895191E+02 -0.53348007941E+02  0.10587540356E+03  0.13372409635E+03  0.00000000000E+00 0.  1.
         13    1    3    3    0    0 -0.10043819144E+02 -0.50962509662E+02  0.19476354403E+01  0.51979312980E+02  0.00000000000E+00 0. -1.
          1    1    1    2  501    0  0.22543028168E+02  0.17589851581E+02  0.13688125893E+03  0.13983586823E+03  0.00000000000E+00 0. -1.
<scales pt_clust_5="13000.00000" pt_clust_6="13000.00000" pt_clust_7="13000.00000" pt_clust_8="13000.00000" pt_clust_9="28.59355"></scales>
<clustering>
<clus scale="   28.594">  1  9  2 -1</clus>
<clus scale="   92.631">  5  6 -1 -1</clus>
<clus scale="   96.408">  7  8 -1 -1</clus>
<clus scale="  147.464">  1  5  2 -1</clus>
<clus scale="   28.594">  1  5  2 -1</clus>
</clustering>
</event>
<event>
 9    1  0.1426358E-005  0.9474583E+02  0.7546771E-02  0.1291899E+00
         21   -1    0    0  501  502  0.00000000000E+00  0.00000000000E+00  0.82256235962E+02  0.82256235962E+02  0.00000000000E+00 0.  1.
          1   -1    0    0  502    0 -0.00000000000E+00 -0.00000000000E+00 -0.16276937362E+03  0.16276937362E+03  0.00000000000E+00 0. -1.
         23    2    1    2    0    0 -0.35569051292E+02 -0.33320748290E+01 -0.74024779910E+02  0.12089358124E+03  0.88652861266E+02 0.  0.
         23    2    1    2    0    0  0.22343348698E+02  0.24820253030E+02 -0.17510731192E+02  0.96597436869E+02  0.88933508372E+02 0.  0.
        -11    1    4    4    0    0 -0.27760076818E+02 -0.93550299342E+01  0.86535139955E+01  0.30545404801E+02  0.00000000000E+00 0. -1.
         11    1    4    4    0    0  0.50103425516E+02  0.34175282964E+02 -0.26164245187E+02  0.66052032068E+02  0.00000000000E+00 0.  1.
        -13    1    3    3    0    0  0.27517167531E+02 -0.81205800682E+01 -0.39496761129E+02  0.48817337794E+02  0.00000000000E+00 0.  1.
         13    1    3    3    0    0 -0.63086218822E+02  0.47885052392E+01 -0.34528018781E+02  0.72076243442E+02  0.00000000000E+00 0. -1.
          1    1    1    2  501    0  0.13225702594E+02 -0.21488178201E+02  0.11022373444E+02  0.27534591477E+02  0.00000000000E+00 0. -1.
<scales pt_clust_5="13000.00000" pt_clust_6="13000.00000" pt_clust_7="13000.00000" pt_clust_8="13000.00000" pt_clust_9="25.23214"></scales>
<clustering>
<clus scale="   25.232">  1  9  2 -1</clus>
<clus scale="   88.653">  7  8 -1 -1</clus>
<clus scale="   88.934">  5  6 -1 -1</clus>
<clus scale="   94.482">  2  7  1 -1</clus>
<clus scale="   25.232">  1  5  2 -1</clus>
</clustering>
</event>
<event>
 9    1  0.1426358E-005  0.1099449E+03  0.7546771E-02  0.1260838E+00
         21   -1    0    0  501  502  0.00000000000E+00  0.00000000000E+00  0.72983194681E+03  0.72983194681E+03  0.00000000000E+00 0. -1.
         -3   -1    0    0    0  501 -0.00000000000E+00 -0.00000000000E+00 -0.24598819850E+02  0.24598819850E+02  0.00000000000E+00 0.  1.
         23    2    1    2    0    0  0.43644812160E+02  0.39949420615E+02  0.17052494379E+03  0.20264779804E+03  0.92122460660E+02 0.  0.
         23    2    1    2    0    0 -0.29297331238E+02 -0.58125574578E+02  0.46137367594E+03  0.47487930986E+03  0.91693914954E+02 0.  0.
        -11    1    3    3    0    0  0.68369258237E+01 -0.29824528075E+02  0.47212788182E+02  0.56260940247E+02  0.00000000000E+00 0. -1.
         11    1    3    3    0    0  0.36807886336E+02  0.69773948690E+02  0.12331215561E+03  0.14638685779E+03  0.00000000000E+00 0.  1.
        -11    1    4    4    0    0  0.10998267217E+02 -0.66150163974E+02  0.34522779408E+03  0.35168030351E+03  0.00000000000E+00 0. -1.
         11    1    4    4    0    0 -0.40295598455E+02  0.80245893954E+01  0.11614588186E+03  0.12319900634E+03  0.00000000000E+00 0.  1.
         -3    1    1    2    0  502 -0.14347480922E+02  0.18176153963E+02  0.73334507218E+02  0.76903658760E+02  0.00000000000E+00 0.  1.
<scales pt_clust_5="13000.00000" pt_clust_6="13000.00000" pt_clust_7="13000.00000" pt_clust_8="13000.00000" pt_clust_9="23.15648"></scales>
<clustering>
<clus scale="   23.156">  1  9  2 -1</clus>
<clus scale="   91.694">  7  8 -1 -1</clus>
<clus scale="   92.122">  5  6 -1 -1</clus>
<clus scale="  109.586">  1  7  2 -1</clus>
<clus scale="   23.156">  1  5  2 -1</clus>
</clustering>
</event>
<event>
 9    1  0.1426358E-005  0.1309607E+03  0.7546771E-02  0.1226684E+00
          3   -1    0    0  502    0 -0.00000000000E+00  0.00000000000E+00  0.33699255242E+02  0.33699255242E+02  0.00000000000E+00 0. -1.
         21   -1    0    0  501  502  0.00000000000E+00 -0.00000000000E+00 -0.11120020891E+04  0.11120020891E+04  0.00000000000E+00 0.  1.
         23    2    1    2    0    0  0.85730851234E+02  0.23964073147E+02 -0.15692024689E+03  0.20315470049E+03  0.93401353270E+02 0.  0.
         23    2    1    2    0    0 -0.11046401581E+03  0.20982766648E+02 -0.74260089148E+03  0.75654975549E+03  0.90933344964E+02 0.  0.
        -13    1    4    4    0    0 -0.11604822638E+03  0.41507896195E+02 -0.64236637461E+03  0.65408306470E+03  0.00000000000E+00 0.  1.
         13    1    4    4    0    0  0.55842105780E+01 -0.20525129547E+02 -0.10023451687E+03  0.10246669079E+03  0.00000000000E+00 0. -1.
        -13    1    3    3    0    0  0.46550049438E+01  0.29531188051E+02 -0.98851828149E+02  0.10327363684E+03  0.00000000000E+00 0.  1.
         13    1    3    3    0    0  0.81075846290E+02 -0.55671149045E+01 -0.58068418738E+02  0.99881063645E+02  0.00000000000E+00 0. -1.
          3    1    1    2  501    0  0.24733164571E+02 -0.44946839794E+02 -0.17878169551E+03  0.18599688838E+03  0.00000000000E+00 0. -1.
<scales pt_clust_5="13000.00000" pt_clust_6="13000.00000" pt_clust_7="13000.00000" pt_clust_8="13000.00000" pt_clust_9="51.30251"></scales>
<clustering>
<clus scale="   51.303">  2  9  1 -1</clus>
<clus scale="   90.933">  5  6 -1 -1</clus>
<clus scale="   93.401">  7  8 -1 -1</clus>
<clus scale="  129.212">  2  5  1 -1</clus>
<clus scale="   51.303">  2  5  1 -1</clus>
</clustering>
</event>
<event>
 9    1  0.1426358E-005  0.9558023E+02  0.7546771E-02  0.1290422E+00
         21   -1    0    0  501  502  0.00000000000E+00  0.00000000000E+00  0.26982007939E+03  0.26982007939E+03  0.00000000000E+00 0.  1.
          2   -1    0    0  502    0 -0.00000000000E+00 -0.00000000000E+00 -0.50236199319E+02  0.50236199319E+02  0.00000000000E+00 0. -1.
         23    2    1    2    0    0  0.65007552745E+01  0.17939700789E+02  0.60468209075E+02  0.11080263830E+03  0.90866537631E+02 0.  0.
         23    2    1    2    0    0 -0.27754667611E+02 -0.24383648538E+02  0.80683401008E+02  0.12773754245E+03  0.91881361886E+02 0.  0.
        -11    1    4    4    0    0 -0.26758079698E+02  0.31127756568E+02  0.48594749754E+02  0.63611176391E+02  0.00000000000E+00 0.  1.
         11    1    4    4    0    0 -0.99658791281E+00 -0.55511405106E+02  0.32088651254E+02  0.64126366057E+02  0.00000000000E+00 0. -1.
        -11    1    3    3    0    0  0.43474423039E+02  0.29990749162E+02  0.43288569270E+02  0.68288877010E+02  0.00000000000E+00 0. -1.
         11    1    3    3    0    0 -0.36973667765E+02 -0.12051048373E+02  0.17179639805E+02  0.42513761286E+02  0.00000000000E+00 0.  1.
          2    1    1    2  501    0  0.21253912337E+02  0.64439477491E+01  0.78432269983E+02  0.81516097962E+02  0.00000000000E+00 0. -1.
<scales pt_clust_5="13000.00000" pt_clust_6="13000.00000" pt_clust_7="13000.00000" pt_clust_8="13000.00000" pt_clust_9="22.20931"></scales>
<clustering>
<clus scale="   22.209">  1  9  2 -1</clus>
<clus scale="   90.867">  7  8 -1 -1</clus>
<clus scale="   91.881">  5  6 -1 -1</clus>
<clus scale="   94.605">  2  7  1 -1</clus>
<clus scale="   22.209">  1  5  2 -1</clus>
</clustering>
</event>
<event>
 9    1  0.1426358E-005  0.1012318E+03  0.7546771E-02  0.1280729E+00
         -3   -1    0    0    0  501 -0.00000000000E+00  0.00000000000E+00  0.89217789145E+02  0.89217789145E+02  0.00000000000E+00 0.  1.
         21   -1    0    0  501  502  0.00000000000E+00 -0.00000000000E+00 -0.23683018204E+03  0.23683018204E+03  0.00000000000E+00 0.  1.
         23    2    1    2    0    0 -0.97223402959E+00 -0.47666018962E+02  0.10132736102E+02  0.10720388929E+03  0.95483019089E+02 0.  0.
         23    2    1    2    0    0  0.13826838291E+01  0.12377462719E+02 -0.45467764861E+02  0.10115101852E+03  0.89493561265E+02 0.  0.
        -11    1    3    3    0    0  0.36800302641E+01 -0.72960492483E+02  0.25342703618E+02  0.77324179354E+02  0.00000000000E+00 0.  1.
         11    1    3    3    0    0 -0.46522642937E+01  0.25294473521E+02 -0.15209967516E+02  0.29879709932E+02  0.00000000000E+00 0. -1.
        -13    1    4    4    0    0  0.20175411611E+02 -0.23423126075E+02 -0.51702544247E+02  0.60239880066E+02  0.00000000000E+00 0.  1.
         13    1    4    4    0    0 -0.18792727782E+02  0.35800588794E+02  0.62347793851E+01  0.40911138453E+02  0.00000000000E+00 0. -1.
         -3    1    1    2    0  502 -0.41044979947E+00  0.35288556243E+02 -0.11227736414E+03  0.11769306338E+03  0.00000000000E+00 0.  1.
<scales pt_clust_5="13000.00000" pt_clust_6="13000.00000" pt_clust_7="13000.00000" pt_clust_8="13000.00000" pt_clust_9="35.29094"></scales>
<clustering>
<clus scale="   35.291">  2  9  1 -1</clus>
<clus scale="   89.494">  7  8 -1 -1</clus>
<clus scale="   95.483">  5  6 -1 -1</clus>
<clus scale="   95.603">  2  7  1 -1</clus>
<clus scale="   35.291">  2  5  1 -1</clus>
</clustering>
</event>
<event>
 9    1  0.1426358E-005  0.9277141E+02  0.7546771E-02  0.1296465E+00
         21   -1    0    0  501  502  0.00000000000E+00  0.00000000000E+00  0.26657323790E+03  0.26657323790E+03  0.00000000000E+00 0.  1.
          3   -1    0    0  502    0 -0.00000000000E+00 -0.00000000000E+00 -0.58227800961E+02  0.58227800961E+02  0.00000000000E+00 0. -1.
         23    2    1    2    0    0 -0.71659809689E+01  0.11174906861E+01  0.32351412900E+02  0.97664264665E+02  0.91864544887E+02 0.  0.
         23    2    1    2    0    0  0.15847267413E+02  0.34677477220E+02  0.15700840414E+03  0.18569889027E+03  0.91535651869E+02 0.  0.
        -11    1    3    3    0    0 -0.35387188156E+02 -0.10082753963E+02  0.50354389943E+02  0.62365692489E+02  0.00000000000E+00 0. -1.
         11    1    3    3    0    0  0.28221207187E+02  0.11200244649E+02 -0.18002977043E+02  0.35298572177E+02  0.00000000000E+00 0.  1.
        -13    1    4    4    0    0  0.37244877557E+02  0.44368218805E+02  0.51192489715E+02  0.77307119642E+02  0.00000000000E+00 0. -1.
         13    1    4    4    0    0 -0.21397610144E+02 -0.96907415846E+01  0.10581591443E+03  0.10839177062E+03  0.00000000000E+00 0.  1.
          3    1    1    2  501    0 -0.86812864442E+01 -0.35794967906E+02  0.18985619893E+02  0.41437883928E+02  0.00000000000E+00 0. -1.
<scales pt_clust_5="13000.00000" pt_clust_6="13000.00000" pt_clust_7="13000.00000" pt_clust_8="13000.00000" pt_clust_9="36.83267"></scales>
<clustering>
<clus scale="   36.833">  1  9  2 -1</clus>
<clus scale="   91.536">  7  8 -1 -1</clus>
<clus scale="   91.865">  5  6 -1 -1</clus>
<clus scale="   92.446">  1  7  2 -1</clus>
<clus scale="   36.833">  1  5  2 -1</clus>
</clustering>
</event>
<event>
 9    1  0.1426358E-005  0.1369339E+03  0.7546771E-02  0.1218271E+00
         21   -1    0    0  501  502  0.00000000000E+00  0.00000000000E+00  0.12668911870E+03  0.12668911870E+03  0.00000000000E+00 0.  1.
         -3   -1    0    0    0  501 -0.00000000000E+00 -0.00000000000E+00 -0.23234636091E+03  0.23234636091E+03  0.00000000000E+00 0.  1.
         23    2    1    2    0    0  0.28353900998E+02  0.95257765376E+02 -0.85127887343E+02  0.15978343231E+03  0.91684254214E+02 0.  0.
         23    2    1    2    0    0 -0.47887732132E+02 -0.86980954745E+02 -0.63540303404E+02  0.15129354600E+03  0.94833778406E+02 0.  0.
        -11    1    4    4    0    0  0.17061896808E+02 -0.35462714587E+02  0.98574887782E+01  0.40569477857E+02  0.00000000000E+00 0. -1.
         11    1    4    4    0    0 -0.64949628940E+02 -0.51518240158E+02 -0.73397792182E+02  0.11072406814E+03  0.00000000000E+00 0.  1.
        -13    1    3    3    0    0 -0.74015225728E+01  0.98228834055E+02 -0.70001039235E+02  0.12084631509E+03  0.00000000000E+00 0.  1.
         13    1    3    3    0    0  0.35755423571E+02 -0.29710686794E+01 -0.15126848108E+02  0.38937117222E+02  0.00000000000E+00 0. -1.
         -3    1    1    2    0  502  0.19533831134E+02 -0.82768106302E+01  0.43010948540E+02  0.47958501304E+02  0.00000000000E+00 0.  1.
<scales pt_clust_5="13000.00000" pt_clust_6="13000.00000" pt_clust_7="13000.00000" pt_clust_8="13000.00000" pt_clust_9="21.21500"></scales>
<clustering>
<clus scale="   21.215">  1  9  2 -1</clus>
<clus scale="   91.684">  7  8 -1 -1</clus>
<clus scale="   94.834">  5  6 -1 -1</clus>
<clus scale="  134.772">  2  7  1 -1</clus>
<clus scale="   21.215">  1  5  2 -1</clus>
</clustering>
</event>
<event>
 9    1  0.1426358E-005  0.1289000E+03  0.7546771E-02  0.1230323E+00
         -1   -1    0    0    0  501 -0.00000000000E+00  0.00000000000E+00  0.15492961562E+03  0.15492961562E+03  0.00000000000E+00 0.  1.
         21   -1    0    0  501  502  0.00000000000E+00 -0.00000000000E+00 -0.26943202368E+03  0.26943202368E+03  0.00000000000E+00 0.  1.
         23    2    1    2    0    0 -0.19567050647E+02  0.81032944044E+02  0.51327024020E+02  0.13412942311E+03  0.91689864537E+02 0.  0.
         23    2    1    2    0    0  0.84316636473E+01 -0.10426567413E+03 -0.14688067788E+02  0.13691076110E+03  0.87099904794E+02 0.  0.
        -11    1    3    3    0    0 -0.20029086675E+00  0.61148311595E+02 -0.14365480996E+02  0.62813399618E+02  0.00000000000E+00 0. -1.
         11    1    3    3    0    0 -0.19366759780E+02  0.19884632448E+02  0.65692505016E+02  0.71316023496E+02  0.00000000000E+00 0.  1.
        -11    1    4    4    0    0 -0.39320858483E+02 -0.47655887545E+02 -0.11025488307E+02  0.62759659989E+02  0.00000000000E+00 0.  1.
         11    1    4    4    0    0  0.47752522130E+02 -0.56609786584E+02 -0.36625794814E+01  0.74151101107E+02  0.00000000000E+00 0. -1.
         -1    1    1    2    0  502  0.11135386999E+02  0.23232730085E+02 -0.15114136429E+03  0.15332145509E+03  0.00000000000E+00 0.  1.
<scales pt_clust_5="13000.00000" pt_clust_6="13000.00000" pt_clust_7="13000.00000" pt_clust_8="13000.00000" pt_clust_9="25.76347"></scales>
<clustering>
<clus scale="   25.763">  2  9  1 -1</clus>
<clus scale="   87.100">  7  8 -1 -1</clus>
<clus scale="   91.690">  5  6 -1 -1</clus>
<clus scale="  125.676">  2  7  1 -1</clus>
<clus scale="   25.763">  2  5  1 -1</clus>
</clustering>
</event>
<event>
 9    1  0.1426358E-005  0.1893700E+03  0.7546771E-02  0.1165786E+00
         21   -1    0    0  501  502  0.00000000000E+00  0.00000000000E+00  0.51729804232E+03  0.51729804232E+03  0.00000000000E+00 0. -1.
          2   -1    0    0  502    0 -0.00000000000E+00 -0.00000000000E+00 -0.15376174450E+03  0.15376174450E+03  0.00000000000E+00 0. -1.
         23    2    1    2    0    0  0.10392510963E+03  0.81220368226E+02  0.18987183302E+03  0.24953932546E+03  0.93922230332E+02 0.  0.
         23    2    1    2    0    0 -0.18529516430E+03  0.68288629007E+02  0.96536402940E+02  0.23464412798E+03  0.82103318681E+02 0.  0.
        -11    1    3    3    0    0  0.78416981969E+02  0.33182650448E+02  0.48333825559E+02  0.97910520605E+02  0.00000000000E+00 0. -1.
         11    1    3    3    0    0  0.25508127661E+02  0.48037717777E+02  0.14153800746E+03  0.15162880486E+03  0.00000000000E+00 0.  1.
        -13    1    4    4    0    0 -0.13413962327E+03  0.49363001491E+02  0.25675376314E+02  0.14522179380E+03  0.00000000000E+00 0. -1.
         13    1    4    4    0    0 -0.51155541031E+02  0.18925627517E+02  0.70861026626E+02  0.89422334176E+02  0.00000000000E+00 0.  1.
          2    1    1    2  501    0  0.81370054667E+02 -0.14950899723E+03  0.77128061869E+02  0.18687633338E+03  0.00000000000E+00 0. -1.
<scales pt_clust_5="13000.00000" pt_clust_6="13000.00000" pt_clust_7="13000.00000" pt_clust_8="13000.00000" pt_clust_9="170.64592"></scales>
<clustering>
<clus scale="   82.103">  7  8 -1 -1</clus>
<clus scale="   93.922">  5  6 -1 -1</clus>
<clus scale="  161.922">  2  5  1 -1</clus>
<clus scale="  170.646">  1  9  2 -1</clus>
<clus scale="  170.646">  1  5  2 -1</clus>
</clustering>
</event>
<event>
 9    1  0.1426358E-005  0.2818942E+03  0.7546771E-02  0.1094742E+00
         21   -1    0    0  501  502  0.00000000000E+00  0.00000000000E+00  0.44344044344E+03  0.44344044344E+03  0.00000000000E+00 0.  1.
          3   -1    0    0  502    0 -0.00000000000E+00 -0.00000000000E+00 -0.34671246501E+03  0.34671246501E+03  0.00000000000E+00 0. -1.
         23    2    1    2    0    0 -0.26637720619E+03 -0.12219318935E+03 -0.15394991145E+03  0.34360172728E+03  0.92052051874E+02 0.  0.
         23    2    1    2    0    0  0.18913132768E+03  0.11747401917E+03  0.70312492400E+02  0.25028383055E+03  0.90151788412E+02 0.  0.
        -11    1    3    3    0    0 -0.65337134703E+02 -0.11099031723E+02  0.14320073766E+01  0.66288613815E+02  0.00000000000E+00 0. -1.
         11    1    3    3    0    0 -0.20104007149E+03 -0.11109415763E+03 -0.15538191882E+03  0.27731311346E+03  0.00000000000E+00 0.  1.
        -11    1    4    4    0    0  0.71389526753E+02 -0.26031925229E+01  0.29096561771E+02  0.77135277586E+02  0.00000000000E+00 0.  1.
         11    1    4    4    0    0  0.11774180093E+03  0.12007721170E+03  0.41215930628E+02  0.17314855296E+03  0.00000000000E+00 0. -1.
          3    1    1    2  501    0  0.77245878507E+02  0.47191701769E+01  0.18036539748E+03  0.19626735062E+03  0.00000000000E+00 0. -1.
<scales pt_clust_5="13000.00000" pt_clust_6="13000.00000" pt_clust_7="13000.00000" pt_clust_8="13000.00000" pt_clust_9="77.38990"></scales>
<clustering>
<clus scale="   77.390">  1  9  2 -1</clus>
<clus scale="   90.152">  7  8 -1 -1</clus>
<clus scale="   92.052">  5  6 -1 -1</clus>
<clus scale="  281.279">  1  7  2 -1</clus>
<clus scale="   77.390">  1  5  2 -1</clus>
</clustering>
</event>
<event>
 9    1  0.1426358E-005  0.1107628E+03  0.7546771E-02  0.1260280E+00
          2   -1    0    0  502    0 -0.00000000000E+00  0.00000000000E+00  0.90669363084E+02  0.90669363084E+02  0.00000000000E+00 0. -1.
         21   -1    0    0  501  502  0.00000000000E+00 -0.00000000000E+00 -0.19922110349E+03  0.19922110349E+03  0.00000000000E+00 0.  1.
         23    2    1    2    0    0  0.16811153423E+02 -0.74582013636E+02 -0.97797643773E+01  0.11925752688E+03  0.91003419106E+02 0.  0.
         23    2    1    2    0    0  0.36155035385E+01  0.47431459128E+02 -0.51903999465E+02  0.11274504673E+03  0.88060236320E+02 0.  0.
        -13    1    4    4    0    0 -0.31221076884E+02 -0.99435171114E+01 -0.20389502244E+02  0.38592239843E+02  0.00000000000E+00 0.  1.
         13    1    4    4    0    0  0.34836580422E+02  0.57374976240E+02 -0.31514497222E+02  0.74152806887E+02  0.00000000000E+00 0. -1.
        -13    1    3    3    0    0 -0.18334542835E+01 -0.57396279569E+02 -0.47009304587E+02  0.74212998732E+02  0.00000000000E+00 0.  1.
         13    1    3    3    0    0  0.18644607706E+02 -0.17185734067E+02  0.37229540210E+02  0.45044528149E+02  0.00000000000E+00 0. -1.
          2    1    1    2  501    0 -0.20426656961E+02  0.27150554508E+02 -0.46867976565E+02  0.57887892966E+02  0.00000000000E+00 0. -1.
<scales pt_clust_5="13000.00000" pt_clust_6="13000.00000" pt_clust_7="13000.00000" pt_clust_8="13000.00000" pt_clust_9="33.97648"></scales>
<clustering>
<clus scale="   33.976">  2  9  1 -1</clus>
<clus scale="   88.060">  5  6 -1 -1</clus>
<clus scale="   91.003">  7  8 -1 -1</clus>
<clus scale="  108.358">  2  5  1 -1</clus>
<clus scale="   33.976">  2  5  1 -1</clus>
</clustering>
</event>
<event>
 9    1  0.1426358E-005  0.1528469E+03  0.7546771E-02  0.1197082E+00
         21   -1    0    0  501  502  0.00000000000E+00  0.00000000000E+00  0.87539051187E+02  0.87539051187E+02  0.00000000000E+00 0. -1.
          1   -1    0    0  502    0 -0.00000000000E+00 -0.00000000000E+00 -0.13318845314E+04  0.13318845314E+04  0.00000000000E+00 0. -1.
         23    2    1    2    0    0  0.44859527406E+02 -0.12982451202E+03 -0.84322499529E+03  0.85917396203E+03  0.91020455009E+02 0.  0.
         23    2    1    2    0    0  0.20685308325E+01  0.10708236826E+03 -0.46031313889E+03  0.48136224492E+03  0.91381139095E+02 0.  0.
        -11    1    4    4    0    0 -0.21132448284E+02  0.75976559767E+00 -0.25447409617E+02  0.33086678142E+02  0.00000000000E+00 0.  1.
         11    1    4    4    0    0  0.23200979117E+02  0.10632260266E+03 -0.43486572928E+03  0.44827556677E+03  0.00000000000E+00 0. -1.
        -13    1    3    3    0    0  0.71079058850E+02 -0.11201605619E+03 -0.65516023145E+03  0.66845699811E+03  0.00000000000E+00 0.  1.
         13    1    3    3    0    0 -0.26219531444E+02 -0.17808455826E+02 -0.18806476384E+03  0.19071696392E+03  0.00000000000E+00 0. -1.
          1    1    1    2  501    0 -0.46928058239E+02  0.22742143758E+02  0.59192653965E+02  0.78887375645E+02  0.00000000000E+00 0. -1.
<scales pt_clust_5="13000.00000" pt_clust_6="13000.00000" pt_clust_7="13000.00000" pt_clust_8="13000.00000" pt_clust_9="52.14832"></scales>
<clustering>
<clus scale="   52.148">  1  9  2 -1</clus>
<clus scale="   91.020">  7  8 -1 -1</clus>
<clus scale="   91.381">  5  6 -1 -1</clus>
<clus scale="  152.632">  2  7  1 -1</clus>
<clus scale="   52.148">  1  5  2 -1</clus>
</clustering>
</event>
<event>
 9    1  0.1426358E-005  0.1007552E+03  0.7546771E-02  0.1279819E+00
         21   -1    0    0  501  502  0.00000000000E+00  0.00000000000E+00  0.31920894962E+02  0.31920894962E+02  0.00000000000E+00 0.  1.
          1   -1    0    0  502    0 -0.00000000000E+00 -0.00000000000E+00 -0.45567788757E+03  0.45567788757E+03  0.00000000000E+00 0. -1.
         23    2    1    2    0    0  0.36442092790E+02 -0.46123937413E+01 -0.25463305877E+03  0.27304767725E+03  0.91475347110E+02 0.  0.
         23    2    1    2    0    0 -0.53102010560E+02 -0.16381641275E+02 -0.13883181917E+03  0.17410466443E+03  0.89162651751E+02 0.  0.
        -11    1    4    4    0    0 -0.29733202625E+02 -0.52775487680E+02 -0.67589706697E+02  0.90761687345E+02  0.00000000000E+00 0.  1.
         11    1    4    4    0    0 -0.23368807934E+02  0.36393846406E+02 -0.71242112470E+02  0.83342977087E+02  0.00000000000E+00 0. -1.
        -13    1    3    3    0    0 -0.19086934804E+02 -0.31535884031E+02 -0.94621023582E+02  0.10154782699E+03  0.00000000000E+00 0. -1.
         13    1    3    3    0    0  0.55529027593E+02  0.26923490290E+02 -0.16001203519E+03  0.17149985026E+03  0.00000000000E+00 0.  1.
          1    1    1    2  501    0  0.16659917770E+02  0.20994035016E+02 -0.30292114669E+02  0.40446440851E+02  0.00000000000E+00 0. -1.
<scales pt_clust_5="13000.00000" pt_clust_6="13000.00000" pt_clust_7="13000.00000" pt_clust_8="13000.00000" pt_clust_9="26.80116"></scales>
<clustering>
<clus scale="   26.801">  1  9  2 -1</clus>
<clus scale="   89.163">  5  6 -1 -1</clus>
<clus scale="   91.475">  7  8 -1 -1</clus>
<clus scale="   98.660">  1  5  2 -1</clus>
<clus scale="   26.801">  1  5  2 -1</clus>
</clustering>
</event>
<event>
 9    1  0.1426358E-005  0.2310365E+03  0.7546771E-02  0.1126023E+00
         21   -1    0    0  501  502  0.00000000000E+00  0.00000000000E+00  0.73028509250E+02  0.73028509250E+02  0.00000000000E+00 0. -1.
          2   -1    0    0  502    0 -0.00000000000E+00 -0.00000000000E+00 -0.15673250183E+04  0.15673250183E+04  0.00000000000E+00 0. -1.
         23    2    1    2    0    0  0.14087451752E+03 -0.13500173120E+03 -0.89181268108E+03  0.91759074692E+03  0.92584143303E+02 0.  0.
         23    2    1    2    0    0 -0.23426046320E+03  0.11750630025E+03 -0.54544579532E+03  0.61194598532E+03  0.91000429131E+02 0.  0.
        -11    1    3    3    0    0  0.27956005896E+02 -0.12767908721E+01 -0.45877388854E+02  0.53739215370E+02  0.00000000000E+00 0.  1.
         11    1    3    3    0    0  0.11291851163E+03 -0.13372494033E+03 -0.84593529222E+03  0.86385153155E+03  0.00000000000E+00 0. -1.
        -13    1    4    4    0    0 -0.10485113470E+03  0.34207220868E+02 -0.13967124860E+03  0.17796615435E+03  0.00000000000E+00 0.  1.
         13    1    4    4    0    0 -0.12940932851E+03  0.83299079378E+02 -0.40577454672E+03  0.43397983097E+03  0.00000000000E+00 0. -1.
          2    1    1    2  501    0  0.93385945679E+02  0.17495430959E+02 -0.57038032672E+02  0.11081679532E+03  0.00000000000E+00 0. -1.
<scales pt_clust_5="13000.00000" pt_clust_6="13000.00000" pt_clust_7="13000.00000" pt_clust_8="13000.00000" pt_clust_9="95.01066"></scales>
<clustering>
<clus scale="   91.000">  7  8 -1 -1</clus>
<clus scale="   92.584">  5  6 -1 -1</clus>
<clus scale="   95.011">  1  9  2 -1</clus>
<clus scale="  230.406">  1  7  2 -1</clus>
<clus scale="   95.011">  1  5  2 -1</clus>
</clustering>
</event>
<event>
 9    1  0.1426358E-005  0.1329541E+03  0.7546771E-02  0.1223361E+00
         21   -1    0    0  501  502  0.00000000000E+00  0.00000000000E+00  0.78039663552E+02  0.78039663552E+02  0.00000000000E+00 0.  1.
          1   -1    0    0  502    0 -0.00000000000E+00 -0.00000000000E+00 -0.57452989177E+03  0.57452989177E+03  0.00000000000E+00 0. -1.
         23    2    1    2    0    0  0.50039253377E+02 -0.46347382963E+02 -0.18138337668E+03  0.21443163445E+03  0.91809529644E+02 0.  0.
         23    2    1    2    0    0 -0.37298247862E+02  0.13195768364E+03 -0.31001468527E+03  0.35143505494E+03  0.92701149893E+02 0.  0.
        -13    1    3    3    0    0  0.67111770894E+02 -0.57780398388E+02 -0.16799479087E+03  0.18990738266E+03  0.00000000000E+00 0.  1.
         13    1    3    3    0    0 -0.17072517517E+02  0.11433015425E+02 -0.13388585813E+02  0.24524251795E+02  0.00000000000E+00 0. -1.
        -13    1    4    4    0    0  0.16475721751E+02  0.39861230029E+02 -0.32115330285E+02  0.53775101171E+02  0.00000000000E+00 0.  1.
         13    1    4    4    0    0 -0.53773969613E+02  0.92096453612E+02 -0.27789935499E+03  0.29765995377E+03  0.00000000000E+00 0. -1.
          1    1    1    2  501    0 -0.12741005515E+02 -0.85610300677E+02 -0.50921662731E+01  0.86702865933E+02  0.00000000000E+00 0. -1.
<scales pt_clust_5="13000.00000" pt_clust_6="13000.00000" pt_clust_7="13000.00000" pt_clust_8="13000.00000" pt_clust_9="86.55320"></scales>
<clustering>
<clus scale="   86.553">  1  9  2 -1</clus>
<clus scale="   91.810">  5  6 -1 -1</clus>
<clus scale="   92.701">  7  8 -1 -1</clus>
<clus scale="  132.334">  2  5  1 -1</clus>
<clus scale="   86.553">  1  5  2 -1</clus>
</clustering>
</event>
<event>
 9    1  0.1426358E-005  0.3510662E+03  0.7546771E-02  0.1062258E+00
          2   -1    0    0  502    0 -0.00000000000E+00  0.00000000000E+00  0.24905386803E+04  0.24905386803E+04  0.00000000000E+00 0. -1.
         21   -1    0    0  501  502  0.00000000000E+00 -0.00000000000E+00 -0.84144501250E+02  0.84144501250E+02  0.00000000000E+00 0. -1.
         23    2    1    2    0    0  0.20350131670E+03  0.20234740248E+03  0.76255811724E+03  0.82027346467E+03  0.94849446387E+02 0.  0.
         23    2    1    2    0    0 -0.17982931159E+03 -0.38136692661E+03  0.11152577004E+04  0.11958370376E+04  0.91908477672E+02 0.  0.
        -11    1    3    3    0    0  0.20283799825E+03  0.15853774840E+03  0.62643549976E+03  0.67727314029E+03  0.00000000000E+00 0. -1.
         11    1    3    3    0    0  0.66331845215E+00  0.43809654082E+02  0.13612261748E+03  0.14300032437E+03  0.00000000000E+00 0.  1.
        -11    1    4    4    0    0 -0.88470891350E+02 -0.10404703267E+03  0.42368305719E+03  0.44515190281E+03  0.00000000000E+00 0.  1.
         11    1    4    4    0    0 -0.91358420243E+02 -0.27731989394E+03  0.69157464316E+03  0.75068513478E+03  0.00000000000E+00 0. -1.
          2    1    1    2  501    0 -0.23672005106E+02  0.17901952413E+03  0.52857836150E+03  0.55857267933E+03  0.00000000000E+00 0. -1.
<scales pt_clust_5="13000.00000" pt_clust_6="13000.00000" pt_clust_7="13000.00000" pt_clust_8="13000.00000" pt_clust_9="180.57792"></scales>
<clustering>
<clus scale="   91.908">  7  8 -1 -1</clus>
<clus scale="   94.849">  5  6 -1 -1</clus>
<clus scale="  180.578">  2  9  1 -1</clus>
<clus scale="  350.283">  2  7  1 -1</clus>
<clus scale="  180.578">  2  5  1 -1</clus>
</clustering>
</event>
<event>
 9    1  0.1426358E-005  0.1444362E+03  0.7546771E-02  0.1208189E+00
          3   -1    0    0  502    0 -0.00000000000E+00  0.00000000000E+00  0.42374946913E+03  0.42374946913E+03  0.00000000000E+00 0. -1.
         21   -1    0    0  501  502  0.00000000000E+00 -0.00000000000E+00 -0.79095448359E+02  0.79095448359E+02  0.00000000000E+00 0.  1.
         23    2    1    2    0    0  0.39525284317E+02 -0.10051006113E+03  0.28602863816E+03  0.32046458733E+03  0.96024212562E+02 0.  0.
         23    2    1    2    0    0 -0.65517932100E+02  0.88818227039E+02  0.47264339404E+02  0.15169825028E+03  0.92720895576E+02 0.  0.
        -13    1    3    3    0    0  0.13496586303E+02 -0.10984200270E+03  0.18364655863E+03  0.21441427634E+03  0.00000000000E+00 0. -1.
         13    1    3    3    0    0  0.26028698013E+02  0.93319415753E+01  0.10238207953E+03  0.10605031099E+03  0.00000000000E+00 0.  1.
        -13    1    4    4    0    0 -0.26487874315E+02  0.42437471706E+02  0.70784356055E+02  0.86677399318E+02  0.00000000000E+00 0. -1.
         13    1    4    4    0    0 -0.39030057785E+02  0.46380755334E+02 -0.23520016651E+02  0.65020850958E+02  0.00000000000E+00 0.  1.
          3    1    1    2  501    0  0.25992647783E+02  0.11691834087E+02  0.11361043205E+02  0.30682079880E+02  0.00000000000E+00 0. -1.
<scales pt_clust_5="13000.00000" pt_clust_6="13000.00000" pt_clust_7="13000.00000" pt_clust_8="13000.00000" pt_clust_9="28.50117"></scales>
<clustering>
<clus scale="   28.501">  2  9  1 -1</clus>
<clus scale="   92.721">  7  8 -1 -1</clus>
<clus scale="   96.024">  5  6 -1 -1</clus>
<clus scale="  142.262">  2  7  1 -1</clus>
<clus scale="   28.501">  2  5  1 -1</clus>
</clustering>
</event>
<event>
 9    1  0.1426358E-005  0.1423157E+03  0.7546771E-02  0.1211194E+00
         -1   -1    0    0    0  501 -0.00000000000E+00  0.00000000000E+00  0.43667669559E+03  0.43667669559E+03  0.00000000000E+00 0.  1.
         21   -1    0    0  501  502  0.00000000000E+00 -0.00000000000E+00 -0.73491400340E+02  0.73491400340E+02  0.00000000000E+00 0. -1.
         23    2    1    2    0    0 -0.39659293480E+02  0.99705184497E+02  0.20156456752E+03  0.24598943216E+03  0.91479738081E+02 0.  0.
         23    2    1    2    0    0 -0.34529435137E+01 -0.10771454303E+03  0.16628518964E+03  0.22008136217E+03  0.95763751403E+02 0.  0.
        -13    1    4    4    0    0 -0.45927931728E+02 -0.81104706982E+02  0.11917874166E+03  0.15129745824E+03  0.00000000000E+00 0. -1.
         13    1    4    4    0    0  0.42474988215E+02 -0.26609836052E+02  0.47106447984E+02  0.68783903932E+02  0.00000000000E+00 0.  1.
        -13    1    3    3    0    0 -0.18744104691E+02  0.11721476174E+02 -0.30154742626E+01  0.22312049422E+02  0.00000000000E+00 0. -1.
         13    1    3    3    0    0 -0.20915188789E+02  0.87983708323E+02  0.20458004178E+03  0.22367738274E+03  0.00000000000E+00 0.  1.
         -1    1    1    2    0  502  0.43112236994E+02  0.80093585373E+01 -0.46644619149E+01  0.44097301593E+02  0.00000000000E+00 0.  1.
<scales pt_clust_5="13000.00000" pt_clust_6="13000.00000" pt_clust_7="13000.00000" pt_clust_8="13000.00000" pt_clust_9="43.84991"></scales>
<clustering>
<clus scale="   43.850">  2  9  1 -1</clus>
<clus scale="   91.480">  7  8 -1 -1</clus>
<clus scale="   95.764">  5  6 -1 -1</clus>
<clus scale="  139.469">  1  7  2 -1</clus>
<clus scale="   43.850">  2  5  1 -1</clus>
</clustering>
</event>
<event>
 9    1  0.1426358E-005  0.1381824E+03  0.7546771E-02  0.1216425E+00
         21   -1    0    0  501  502  0.00000000000E+00  0.00000000000E+00  0.54590121942E+02  0.54590121942E+02  0.00000000000E+00 0. -1.
          2   -1    0    0  502    0 -0.00000000000E+00 -0.00000000000E+00 -0.47927418055E+03  0.47927418055E+03  0.00000000000E+00 0. -1.
         23    2    1    2    0    0  0.36001708054E+02  0.99615041507E+02 -0.27784277873E+03  0.31143811187E+03  0.92616458346E+02 0.  0.
         23    2    1    2    0    0 -0.54594467815E+02 -0.82633645869E+02 -0.14487897032E+03  0.19716932675E+03  0.89871864488E+02 0.  0.
        -11    1    3    3    0    0  0.34386611198E+02 -0.15232142938E+01 -0.38754492152E+02  0.51833096313E+02  0.00000000000E+00 0.  1.
         11    1    3    3    0    0  0.16150968562E+01  0.10113825580E+03 -0.23908828658E+03  0.25960501556E+03  0.00000000000E+00 0. -1.
        -11    1    4    4    0    0 -0.24488948301E+02  0.10045319122E+02 -0.68248943305E+02  0.73202016962E+02  0.00000000000E+00 0.  1.
         11    1    4    4    0    0 -0.30105519515E+02 -0.92678964990E+02 -0.76630027014E+02  0.12396730979E+03  0.00000000000E+00 0. -1.
          2    1    1    2  501    0  0.18592759761E+02 -0.16981395638E+02 -0.19623095556E+01  0.25256863862E+02  0.00000000000E+00 0. -1.
<scales pt_clust_5="13000.00000" pt_clust_6="13000.00000" pt_clust_7="13000.00000" pt_clust_8="13000.00000" pt_clust_9="25.18052"></scales>
<clustering>
<clus scale="   25.181">  1  9  2 -1</clus>
<clus scale="   89.872">  7  8 -1 -1</clus>
<clus scale="   92.616">  5  6 -1 -1</clus>
<clus scale="  136.358">  1  7  2 -1</clus>
<clus scale="   25.181">  1  5  2 -1</clus>
</clustering>
</event>
<event>
 9    1  0.1426358E-005  0.1000297E+03  0.7546771E-02  0.1281506E+00
         21   -1    0    0  501  502  0.00000000000E+00  0.00000000000E+00  0.32784714386E+02  0.32784714386E+02  0.00000000000E+00 0.  1.
          4   -1    0    0  502    0 -0.00000000000E+00 -0.00000000000E+00 -0.41334889705E+03  0.41334889705E+03  0.00000000000E+00 0. -1.
         23    2    1    2    0    0  0.49613315298E+02 -0.21356219394E+01 -0.21934932366E+03  0.24118948806E+03  0.87133239496E+02 0.  0.
         23    2    1    2    0    0 -0.34232346388E+02 -0.21136670523E+02 -0.13066707861E+03  0.16357576967E+03  0.89802753920E+02 0.  0.
        -11    1    3    3    0    0  0.42869524126E+02 -0.37331104050E+02 -0.85851218324E+02  0.10296523256E+03  0.00000000000E+00 0.  1.
         11    1    3    3    0    0  0.67437911712E+01  0.35195482111E+02 -0.13349810534E+03  0.13822425550E+03  0.00000000000E+00 0. -1.
        -11    1    4    4    0    0 -0.40111959171E+02 -0.52735592184E+02 -0.88720277478E+02  0.11073075267E+03  0.00000000000E+00 0.  1.
         11    1    4    4    0    0  0.58796127837E+01  0.31598921661E+02 -0.41946801134E+02  0.52845017003E+02  0.00000000000E+00 0. -1.
          4    1    1    2  501    0 -0.15380968910E+02  0.23272292462E+02 -0.30547780391E+02  0.41368353700E+02  0.00000000000E+00 0. -1.
<scales pt_clust_5="13000.00000" pt_clust_6="13000.00000" pt_clust_7="13000.00000" pt_clust_8="13000.00000" pt_clust_9="27.89577"></scales>
<clustering>
<clus scale="   27.896">  1  9  2 -1</clus>
<clus scale="   87.133">  5  6 -1 -1</clus>
<clus scale="   89.803">  7  8 -1 -1</clus>
<clus scale="   97.640">  2  5  1 -1</clus>
<clus scale="   27.896">  1  5  2 -1</clus>
</clustering>
</event>
<event>
 9    1  0.1426358E-005  0.9289985E+02  0.7546771E-02  0.1296115E+00
          2   -1    0    0  502    0 -0.00000000000E+00  0.00000000000E+00  0.51236383846E+03  0.51236383846E+03  0.00000000000E+00 0. -1.
         21   -1    0    0  501  502  0.00000000000E+00 -0.00000000000E+00 -0.53473300577E+02  0.53473300577E+02  0.00000000000E+00 0. -1.
         23    2    1    2    0    0  0.23627841864E+02  0.18096789842E+01  0.31422794165E+03  0.32805211843E+03  0.91200017791E+02 0.  0.
         23    2    1    2    0    0 -0.36479445050E+01 -0.65790716228E+01  0.17706274238E+03  0.19942211047E+03  0.91440536545E+02 0.  0.
        -13    1    4    4    0    0 -0.38325404936E+02  0.14978364640E+02  0.44032602137E+02  0.60266558901E+02  0.00000000000E+00 0.  1.
         13    1    4    4    0    0  0.34677460431E+02 -0.21557436263E+02  0.13303014024E+03  0.13915555157E+03  0.00000000000E+00 0. -1.
        -13    1    3    3    0    0  0.15134306423E+02  0.43461768782E+02  0.10648287749E+03  0.11600248176E+03  0.00000000000E+00 0.  1.
         13    1    3    3    0    0  0.84935354411E+01 -0.41652089797E+02  0.20774506416E+03  0.21204963667E+03  0.00000000000E+00 0. -1.
          2    1    1    2  501    0 -0.19979897359E+02  0.47693926386E+01 -0.32400146138E+02  0.38362910140E+02  0.00000000000E+00 0. -1.
<scales pt_clust_5="13000.00000" pt_clust_6="13000.00000" pt_clust_7="13000.00000" pt_clust_8="13000.00000" pt_clust_9="20.54126"></scales>
<clustering>
<clus scale="   20.541">  2  9  1 -1</clus>
<clus scale="   91.200">  7  8 -1 -1</clus>
<clus scale="   91.441">  5  6 -1 -1</clus>
<clus scale="   92.663">  1  7  2 -1</clus>
<clus scale="   20.541">  2  5  1 -1</clus>
</clustering>
</event>
<event>
 9    1  0.1426358E-005  0.1217644E+03  0.7546771E-02  0.1240833E+00
         21   -1    0    0  501  502  0.00000000000E+00  0.00000000000E+00  0.14876897206E+03  0.14876897206E+03  0.00000000000E+00 0.  1.
          1   -1    0    0  502    0 -0.00000000000E+00 -0.00000000000E+00 -0.16386744349E+03  0.16386744349E+03  0.00000000000E+00 0. -1.
         23    2    1    2    0    0 -0.64373746995E+02 -0.54510592516E+02 -0.48650819417E+02  0.13393199066E+03  0.91953748667E+02 0.  0.
         23    2    1    2    0    0  0.69341379622E+02  0.21296409312E+02 -0.15048703995E+02  0.11962886655E+03  0.93929964557E+02 0.  0.
        -11    1    4    4    0    0  0.20629788683E+02  0.96522832194E+01  0.39486872054E+02  0.45584732280E+02  0.00000000000E+00 0.  1.
         11    1    4    4    0    0  0.48711590939E+02  0.11644126092E+02 -0.54535576049E+02  0.74044134266E+02  0.00000000000E+00 0. -1.
        -13    1    3    3    0    0 -0.17936147375E+02 -0.48054841753E+02 -0.66309340380E+02  0.83832582092E+02  0.00000000000E+00 0.  1.
         13    1    3    3    0    0 -0.46437599620E+02 -0.64557507630E+01  0.17658520963E+02  0.50099408570E+02  0.00000000000E+00 0. -1.
          1    1    1    2  501    0 -0.49676326264E+01  0.33214183205E+02  0.48601051976E+02  0.59075558339E+02  0.00000000000E+00 0. -1.
<scales pt_clust_5="13000.00000" pt_clust_6="13000.00000" pt_clust_7="13000.00000" pt_clust_8="13000.00000" pt_clust_9="33.58362"></scales>
<clustering>
<clus scale="   33.584">  1  9  2 -1</clus>
<clus scale="   91.954">  7  8 -1 -1</clus>
<clus scale="   93.930">  5  6 -1 -1</clus>
<clus scale="  120.247">  2  7  1 -1</clus>
<clus scale="   33.584">  1  5  2 -1</clus>
</clustering>
</event>
<event>
 9    1  0.1426358E-005  0.9389838E+02  0.7546771E-02  0.1294700E+00
         21   -1    0    0  501  502  0.00000000000E+00  0.00000000000E+00  0.80937238024E+02  0.80937238024E+02  0.00000000000E+00 0. -1.
          4   -1    0    0  502    0 -0.00000000000E+00 -0.00000000000E+00 -0.24777778689E+03  0.24777778689E+03  0.00000000000E+00 0. -1.
         23    2    1    2    0    0 -0.13237416061E+02 -0.15541282930E+02 -0.14810260350E+03  0.17498495678E+03  0.90931805638E+02 0.  0.
         23    2    1    2    0    0  0.32206282326E+02  0.76005177357E+01 -0.56613971408E+02  0.11063172724E+03  0.89102327821E+02 0.  0.
        -11    1    4    4    0    0  0.13197306619E+02  0.18514236082E+02  0.20407648734E+02  0.30551889738E+02  0.00000000000E+00 0.  1.
         11    1    4    4    0    0  0.19008975707E+02 -0.10913718347E+02 -0.77021620142E+02  0.80079837506E+02  0.00000000000E+00 0. -1.
        -13    1    3    3    0    0 -0.38939370797E+02 -0.12637780366E+02 -0.14283827860E+03  0.14858923893E+03  0.00000000000E+00 0. -1.
         13    1    3    3    0    0  0.25701954736E+02 -0.29035025641E+01 -0.52643248995E+01  0.26395717854E+02  0.00000000000E+00 0.  1.
          4    1    1    2  501    0 -0.18968866265E+02  0.79407651940E+01  0.37876026040E+02  0.43098340894E+02  0.00000000000E+00 0. -1.
<scales pt_clust_5="13000.00000" pt_clust_6="13000.00000" pt_clust_7="13000.00000" pt_clust_8="13000.00000" pt_clust_9="20.56389"></scales>
<clustering>
<clus scale="   20.564">  1  9  2 -1</clus>
<clus scale="   89.102">  5  6 -1 -1</clus>
<clus scale="   90.932">  7  8 -1 -1</clus>
<clus scale="   92.128">  1  5  2 -1</clus>
<clus scale="   20.564">  1  5  2 -1</clus>
</clustering>
</event>
<event>
 9    1  0.1426358E-005  0.1259300E+03  0.7546771E-02  0.1233633E+00
          2   -1    0    0  502    0 -0.00000000000E+00  0.00000000000E+00  0.38784404867E+02  0.38784404867E+02  0.00000000000E+00 0. -1.
         21   -1    0    0  501  502  0.00000000000E+00 -0.00000000000E+00 -0.62794309343E+03  0.62794309343E+03  0.00000000000E+00 0. -1.
         23    2    1    2    0    0 -0.44613313800E+02  0.93150764134E+02 -0.16044197060E+03  0.21148751168E+03  0.91202681097E+02 0.  0.
         23    2    1    2    0    0  0.26651847716E+02 -0.52342444576E+02 -0.30744125368E+03  0.32602825555E+03  0.91237308487E+02 0.  0.
        -11    1    4    4    0    0  0.19012706726E+02  0.20042700253E+02 -0.15069758204E+03  0.15320885772E+03  0.00000000000E+00 0.  1.
         11    1    4    4    0    0  0.76391409894E+01 -0.72385144829E+02 -0.15674367164E+03  0.17281939783E+03  0.00000000000E+00 0. -1.
        -11    1    3    3    0    0  0.20549864608E+02  0.16524762352E+02 -0.75030689151E+02  0.79529673837E+02  0.00000000000E+00 0.  1.
         11    1    3    3    0    0 -0.65163178407E+02  0.76626001783E+02 -0.85411281452E+02  0.13195783784E+03  0.00000000000E+00 0. -1.
          2    1    1    2  501    0  0.17961466084E+02 -0.40808319558E+02 -0.12127546428E+03  0.12921173106E+03  0.00000000000E+00 0. -1.
<scales pt_clust_5="13000.00000" pt_clust_6="13000.00000" pt_clust_7="13000.00000" pt_clust_8="13000.00000" pt_clust_9="44.58624"></scales>
<clustering>
<clus scale="   44.586">  2  9  1 -1</clus>
<clus scale="   91.203">  7  8 -1 -1</clus>
<clus scale="   91.237">  5  6 -1 -1</clus>
<clus scale="  125.905">  1  7  2 -1</clus>
<clus scale="   44.586">  2  5  1 -1</clus>
</clustering>
</event>
<event>
 9    1  0.1426358E-005  0.1493109E+03  0.7546771E-02  0.1222382E+00
          2   -1    0    0  502    0 -0.00000000000E+00  0.00000000000E+00  0.56513194648E+03  0.56513194648E+03  0.00000000000E+00 0. -1.
         21   -1    0    0  501  502  0.00000000000E+00 -0.00000000000E+00 -0.68426300553E+02  0.68426300553E+02  0.00000000000E+00 0. -1.
         23    2    1    2    0    0  0.67511453122E+00  0.31783216437E+02  0.21890219751E+03  0.23877297123E+03  0.89909571712E+02 0.  0.
         23    2    1    2    0    0 -0.11429370649E+03  0.14268568598E+02  0.20675298451E+03  0.25308799367E+03  0.89666563132E+02 0.  0.
        -11    1    3    3    0    0 -0.42330700843E+02  0.65978556599E+01  0.12970095532E+03  0.13659340300E+03  0.00000000000E+00 0. -1.
         11    1    3    3    0    0  0.43005815374E+02  0.25185360777E+02  0.89201242197E+02  0.10217956823E+03  0.00000000000E+00 0.  1.
        -13    1    4    4    0    0 -0.83362960201E+02 -0.32731405452E+02  0.12143949014E+03  0.15089160945E+03  0.00000000000E+00 0.  1.
         13    1    4    4    0    0 -0.30930746287E+02  0.46999974050E+02  0.85313494370E+02  0.10219638422E+03  0.00000000000E+00 0. -1.
          2    1    1    2  501    0  0.11361859196E+03 -0.46051785034E+02  0.71050463897E+02  0.14169728213E+03  0.00000000000E+00 0. -1.
<scales pt_clust_5="13000.00000" pt_clust_6="13000.00000" pt_clust_7="13000.00000" pt_clust_8="13000.00000" pt_clust_9="119.38861"></scales>
<clustering>
<clus scale="   89.667">  7  8 -1 -1</clus>
<clus scale="   89.910">  5  6 -1 -1</clus>
<clus scale="   95.364">  1  5  2 -1</clus>
<clus scale="  119.389">  2  9  1 -1</clus>
<clus scale="  119.389">  2  5  1 -1</clus>
</clustering>
</event>
<event>
 9    1  0.1426358E-005  0.1043589E+03  0.7546771E-02  0.1272056E+00
         21   -1    0    0  501  502  0.00000000000E+00  0.00000000000E+00  0.41673858769E+02  0.41673858769E+02  0.00000000000E+00 0.  1.
          1   -1    0    0  502    0 -0.00000000000E+00 -0.00000000000E+00 -0.47332853706E+03  0.47332853706E+03  0.00000000000E+00 0. -1.
         23    2    1    2    0    0 -0.20850857757E+02  0.30957163656E+02 -0.25516706831E+03  0.27410767088E+03  0.92906825552E+02 0.  0.
         23    2    1    2    0    0  0.35836363201E+02 -0.53809577830E+02 -0.18136247747E+03  0.21313571668E+03  0.91404430407E+02 0.  0.
        -11    1    4    4    0    0  0.51258222552E+02 -0.15178062109E+02 -0.42849273410E+02  0.68511598875E+02  0.00000000000E+00 0.  1.
         11    1    4    4    0    0 -0.15421859351E+02 -0.38631515721E+02 -0.13851320406E+03  0.14462411781E+03  0.00000000000E+00 0. -1.
        -13    1    3    3    0    0  0.16645711075E+02  0.13095975265E+02 -0.67308108230E+01  0.22223592861E+02  0.00000000000E+00 0.  1.
         13    1    3    3    0    0 -0.37496568832E+02  0.17861188392E+02 -0.24843625748E+03  0.25188407802E+03  0.00000000000E+00 0. -1.
          1    1    1    2  501    0 -0.14985505444E+02  0.22852414174E+02  0.48748674873E+01  0.27759008268E+02  0.00000000000E+00 0. -1.
<scales pt_clust_5="13000.00000" pt_clust_6="13000.00000" pt_clust_7="13000.00000" pt_clust_8="13000.00000" pt_clust_9="27.32761"></scales>
<clustering>
<clus scale="   27.328">  1  9  2 -1</clus>
<clus scale="   91.404">  5  6 -1 -1</clus>
<clus scale="   92.907">  7  8 -1 -1</clus>
<clus scale="  103.024">  1  5  2 -1</clus>
<clus scale="   27.328">  1  5  2 -1</clus>
</clustering>
</event>
<event>
 9    1  0.1426358E-005  0.1063043E+03  0.7546771E-02  0.1269078E+00
         -2   -1    0    0    0  501 -0.00000000000E+00  0.00000000000E+00  0.58948653641E+03  0.58948653641E+03  0.00000000000E+00 0.  1.
         21   -1    0    0  501  502  0.00000000000E+00 -0.00000000000E+00 -0.72183186567E+02  0.72183186567E+02  0.00000000000E+00 0. -1.
         23    2    1    2    0    0  0.26752159373E+02  0.44554951539E+02  0.42787841093E+03  0.44143199652E+03  0.95296648812E+02 0.  0.
         23    2    1    2    0    0 -0.27419964438E+02  0.11623734423E+02 -0.18716606328E+02  0.98372700600E+02  0.91868989431E+02 0.  0.
        -11    1    4    4    0    0 -0.30963893646E+02 -0.24396602771E+02  0.20977601812E+02  0.44654414275E+02  0.00000000000E+00 0.  1.
         11    1    4    4    0    0  0.35439292081E+01  0.36020337194E+02 -0.39694208140E+02  0.53718286324E+02  0.00000000000E+00 0. -1.
        -13    1    3    3    0    0  0.55226326857E+02  0.54600011540E+02  0.32927250792E+03  0.33830680293E+03  0.00000000000E+00 0.  1.
         13    1    3    3    0    0 -0.28474167483E+02 -0.10045060002E+02  0.98605903010E+02  0.10312519359E+03  0.00000000000E+00 0. -1.
         -2    1    1    2    0  502  0.66780506486E+00 -0.56178685962E+02  0.10814154524E+03  0.12186502586E+03  0.00000000000E+00 0.  1.
<scales pt_clust_5="13000.00000" pt_clust_6="13000.00000" pt_clust_7="13000.00000" pt_clust_8="13000.00000" pt_clust_9="56.18268"></scales>
<clustering>
<clus scale="   56.183">  2  9  1 -1</clus>
<clus scale="   91.869">  5  6 -1 -1</clus>
<clus scale="   95.297">  7  8 -1 -1</clus>
<clus scale="  103.243">  2  5  1 -1</clus>
<clus scale="   56.183">  2  5  1 -1</clus>
</clustering>
</event>
<event>
 9    1  0.1426358E-005  0.9322506E+02  0.7546771E-02  0.1295817E+00
         21   -1    0    0  501  502  0.00000000000E+00  0.00000000000E+00  0.29906956141E+02  0.29906956141E+02  0.00000000000E+00 0.  1.
          2   -1    0    0  502    0 -0.00000000000E+00 -0.00000000000E+00 -0.47839324773E+03  0.47839324773E+03  0.00000000000E+00 0. -1.
         23    2    1    2    0    0  0.41122509591E+01  0.39130118614E+01 -0.32131323020E+03  0.33441392646E+03  0.92510864444E+02 0.  0.
         23    2    1    2    0    0 -0.18440349378E+02 -0.19473021868E+02 -0.11537821240E+03  0.14966796247E+03  0.91482905659E+02 0.  0.
        -11    1    4    4    0    0  0.25747759483E+02  0.26548538465E+00 -0.13384590383E+01  0.25783891744E+02  0.00000000000E+00 0.  1.
         11    1    4    4    0    0 -0.44188108861E+02 -0.19738507253E+02 -0.11403975336E+03  0.12388407073E+03  0.00000000000E+00 0. -1.
        -13    1    3    3    0    0  0.28201946394E+02  0.39067242705E+02 -0.20360648234E+03  0.20923001430E+03  0.00000000000E+00 0. -1.
         13    1    3    3    0    0 -0.24089695435E+02 -0.35154230844E+02 -0.11770674786E+03  0.12518391216E+03  0.00000000000E+00 0.  1.
          2    1    1    2  501    0  0.14328098419E+02  0.15560010007E+02 -0.11794848989E+02  0.24218314937E+02  0.00000000000E+00 0. -1.
<scales pt_clust_5="13000.00000" pt_clust_6="13000.00000" pt_clust_7="13000.00000" pt_clust_8="13000.00000" pt_clust_9="21.15203"></scales>
<clustering>
<clus scale="   21.152">  1  9  2 -1</clus>
<clus scale="   91.483">  5  6 -1 -1</clus>
<clus scale="   92.205">  1  5  2 -1</clus>
<clus scale="   92.511">  7  8 -1 -1</clus>
<clus scale="   21.152">  1  5  2 -1</clus>
</clustering>
</event>
<event>
 9    1  0.1426358E-005  0.1177057E+03  0.7546771E-02  0.1247075E+00
         21   -1    0    0  501  502  0.00000000000E+00  0.00000000000E+00  0.44357722742E+03  0.44357722742E+03  0.00000000000E+00 0.  1.
          1   -1    0    0  502    0 -0.00000000000E+00 -0.00000000000E+00 -0.82776744535E+02  0.82776744535E+02  0.00000000000E+00 0. -1.
         23    2    1    2    0    0  0.64326952478E+02 -0.23285972633E+01  0.58592941799E+01  0.11223943630E+03  0.91760452007E+02 0.  0.
         23    2    1    2    0    0 -0.98928079189E+02  0.12417114750E+02  0.13437656710E+03  0.19062456170E+03  0.91322024430E+02 0.  0.
        -11    1    3    3    0    0  0.31144719890E+02 -0.29474585736E+02 -0.33209404269E+02  0.54236604920E+02  0.00000000000E+00 0. -1.
         11    1    3    3    0    0  0.33182232589E+02  0.27145988473E+02  0.39068698449E+02  0.58002831381E+02  0.00000000000E+00 0.  1.
        -11    1    4    4    0    0 -0.69422017564E+02  0.40407152793E+02  0.12548793640E+03  0.14899455259E+03  0.00000000000E+00 0. -1.
         11    1    4    4    0    0 -0.29506061626E+02 -0.27990038043E+02  0.88886306929E+01  0.41630009103E+02  0.00000000000E+00 0.  1.
          1    1    1    2  501    0  0.34601126711E+02 -0.10088517487E+02  0.22056462161E+03  0.22348997396E+03  0.00000000000E+00 0. -1.
<scales pt_clust_5="13000.00000" pt_clust_6="13000.00000" pt_clust_7="13000.00000" pt_clust_8="13000.00000" pt_clust_9="36.04187"></scales>
<clustering>
<clus scale="   36.042">  1  9  2 -1</clus>
<clus scale="   91.322">  7  8 -1 -1</clus>
<clus scale="   91.760">  5  6 -1 -1</clus>
<clus scale="  117.364">  1  7  2 -1</clus>
<clus scale="   36.042">  1  5  2 -1</clus>
</clustering>
</event>
<event>
 9    1  0.1426358E-005  0.1339690E+03  0.7546771E-02  0.1222300E+00
          2   -1    0    0  502    0 -0.00000000000E+00  0.00000000000E+00  0.10673955648E+04  0.10673955648E+04  0.00000000000E+00 0. -1.
         21   -1    0    0  501  502  0.00000000000E+00 -0.00000000000E+00 -0.52704213938E+02  0.52704213938E+02  0.00000000000E+00 0.  1.
         23    2    1    2    0    0  0.22759281200E+02  0.94901048818E+02  0.69285784436E+03  0.70531220932E+03  0.88820753041E+02 0.  0.
         23    2    1    2    0    0 -0.62423881975E+02 -0.87650115577E+02  0.66056764182E+02  0.15585205911E+03  0.91362379751E+02 0.  0.
        -13    1    3    3    0    0 -0.18073346425E+02 -0.88744650462E+01  0.89781690856E+02  0.92011705743E+02  0.00000000000E+00 0.  1.
         13    1    3    3    0    0  0.40832627625E+02  0.10377551386E+03  0.60307615351E+03  0.61330050357E+03  0.00000000000E+00 0. -1.
        -13    1    4    4    0    0 -0.53771305060E+02 -0.42089288110E+02  0.82094668619E+02  0.10678200240E+03  0.00000000000E+00 0. -1.
         13    1    4    4    0    0 -0.86525769155E+01 -0.45560827466E+02 -0.16037904437E+02  0.49070056709E+02  0.00000000000E+00 0.  1.
          2    1    1    2  501    0  0.39664600775E+02 -0.72509332414E+01  0.25577674231E+03  0.25893551030E+03  0.00000000000E+00 0. -1.
<scales pt_clust_5="13000.00000" pt_clust_6="13000.00000" pt_clust_7="13000.00000" pt_clust_8="13000.00000" pt_clust_9="40.32193"></scales>
<clustering>
<clus scale="   40.322">  2  9  1 -1</clus>
<clus scale="   88.821">  5  6 -1 -1</clus>
<clus scale="   91.362">  7  8 -1 -1</clus>
<clus scale="  132.249">  1  5  2 -1</clus>
<clus scale="   40.322">  2  5  1 -1</clus>
</clustering>
</event>
<event>
 9    1  0.1426358E-005  0.1011820E+03  0.7546771E-02  0.1282588E+00
         21   -1    0    0  501  502  0.00000000000E+00  0.00000000000E+00  0.28163870574E+03  0.28163870574E+03  0.00000000000E+00 0. -1.
          2   -1    0    0  502    0 -0.00000000000E+00 -0.00000000000E+00 -0.19430477733E+03  0.19430477733E+03  0.00000000000E+00 0. -1.
         23    2    1    2    0    0 -0.28666453391E+02 -0.82602076845E+01 -0.75401822195E+02  0.12113651837E+03  0.89992359178E+02 0.  0.
         23    2    1    2    0    0 -0.55613313266E+01  0.26299715402E+02 -0.66568485283E+02  0.12226149026E+03  0.98964161855E+02 0.  0.
        -13    1    3    3    0    0 -0.49542180200E+02 -0.13980760571E+02 -0.10255908351E+02  0.52488788719E+02  0.00000000000E+00 0.  1.
         13    1    3    3    0    0  0.20875726809E+02  0.57205528861E+01 -0.65145913843E+02  0.68647729647E+02  0.00000000000E+00 0. -1.
        -13    1    4    4    0    0  0.14187604900E+02 -0.34072954429E+02 -0.36769253157E+02  0.52098294924E+02  0.00000000000E+00 0.  1.
         13    1    4    4    0    0 -0.19748936227E+02  0.60372669830E+02 -0.29799232126E+02  0.70163195337E+02  0.00000000000E+00 0. -1.
          2    1    1    2  501    0  0.34227784717E+02 -0.18039507717E+02  0.22930423589E+03  0.23254547444E+03  0.00000000000E+00 0. -1.
<scales pt_clust_5="13000.00000" pt_clust_6="13000.00000" pt_clust_7="13000.00000" pt_clust_8="13000.00000" pt_clust_9="38.69063"></scales>
<clustering>
<clus scale="   38.691">  1  9  2 -1</clus>
<clus scale="   89.992">  5  6 -1 -1</clus>
<clus scale="   92.426">  2  5  1 -1</clus>
<clus scale="   98.964">  7  8 -1 -1</clus>
<clus scale="   38.691">  1  5  2 -1</clus>
</clustering>
</event>
<event>
 9    1  0.1426358E-005  0.9199844E+02  0.7546771E-02  0.1300453E+00
         -1   -1    0    0    0  501 -0.00000000000E+00  0.00000000000E+00  0.60497301394E+03  0.60497301394E+03  0.00000000000E+00 0.  1.
         21   -1    0    0  501  502  0.00000000000E+00 -0.00000000000E+00 -0.17585703857E+03  0.17585703857E+03  0.00000000000E+00 0.  1.
         23    2    1    2    0    0  0.48160938964E+01 -0.13499211790E+02  0.28478393923E+03  0.29835402881E+03  0.87794139806E+02 0.  0.
         23    2    1    2    0    0  0.18977380784E+02 -0.18228693260E+02  0.30365003627E+03  0.31829619985E+03  0.91742575038E+02 0.  0.
        -11    1    3    3    0    0 -0.38132512434E+02 -0.12878896886E+02  0.85584102687E+02  0.94575859088E+02  0.00000000000E+00 0. -1.
         11    1    3    3    0    0  0.42948606330E+02 -0.62031490305E+00  0.19919983655E+03  0.20377816972E+03  0.00000000000E+00 0.  1.
        -13    1    4    4    0    0 -0.13664678398E+02 -0.39647375240E+02  0.23992481821E+03  0.24356222243E+03  0.00000000000E+00 0.  1.
         13    1    4    4    0    0  0.32642059182E+02  0.21418681980E+02  0.63725218053E+02  0.74733977421E+02  0.00000000000E+00 0. -1.
         -1    1    1    2    0  502 -0.23793474680E+02  0.31727905050E+02 -0.15931800012E+03  0.16417982385E+03  0.00000000000E+00 0.  1.
<scales pt_clust_5="13000.00000" pt_clust_6="13000.00000" pt_clust_7="13000.00000" pt_clust_8="13000.00000" pt_clust_9="39.65841"></scales>
<clustering>
<clus scale="   39.658">  2  9  1 -1</clus>
<clus scale="   87.794">  5  6 -1 -1</clus>
<clus scale="   88.061">  1  5  2 -1</clus>
<clus scale="   91.743">  7  8 -1 -1</clus>
<clus scale="   39.658">  2  5  1 -1</clus>
</clustering>
</event>
<event>
 9    1  0.1426358E-005  0.1045377E+03  0.7546771E-02  0.1272648E+00
         21   -1    0    0  501  502  0.00000000000E+00  0.00000000000E+00  0.20087811288E+03  0.20087811288E+03  0.00000000000E+00 0.  1.
         -3   -1    0    0    0  501 -0.00000000000E+00 -0.00000000000E+00 -0.10030709600E+03  0.10030709600E+03  0.00000000000E+00 0.  1.
         23    2    1    2    0    0  0.16930862556E+02  0.49546587504E+02 -0.17670420178E+02  0.10655192206E+03  0.91101865546E+02 0.  0.
         23    2    1    2    0    0  0.29707360613E+02 -0.30934287494E+02  0.86688710865E+02  0.13532800794E+03  0.94653471807E+02 0.  0.
        -11    1    3    3    0    0 -0.15841664048E+02 -0.16063736247E+02  0.14123188534E+02  0.26617032074E+02  0.00000000000E+00 0.  1.
         11    1    3    3    0    0  0.32772526604E+02  0.65610323751E+02 -0.31793608712E+02  0.79934889990E+02  0.00000000000E+00 0. -1.
        -13    1    4    4    0    0  0.60326204147E+02 -0.31870488488E+02  0.38824536923E+02  0.78500468855E+02  0.00000000000E+00 0.  1.
         13    1    4    4    0    0 -0.30618843534E+02  0.93620099374E+00  0.47864173942E+02  0.56827539088E+02  0.00000000000E+00 0. -1.
         -3    1    1    2    0  502 -0.46638223169E+02 -0.18612300010E+02  0.31552726196E+02  0.59305278875E+02  0.00000000000E+00 0.  1.
<scales pt_clust_5="13000.00000" pt_clust_6="13000.00000" pt_clust_7="13000.00000" pt_clust_8="13000.00000" pt_clust_9="50.21495"></scales>
<clustering>
<clus scale="   50.215">  1  9  2 -1</clus>
<clus scale="   91.102">  5  6 -1 -1</clus>
<clus scale="   94.653">  7  8 -1 -1</clus>
<clus scale="  101.333">  2  5  1 -1</clus>
<clus scale="   50.215">  1  5  2 -1</clus>
</clustering>
</event>
<event>
 9    1  0.1426358E-005  0.1159031E+03  0.7546771E-02  0.1256175E+00
         -2   -1    0    0    0  501 -0.00000000000E+00  0.00000000000E+00  0.73703101136E+03  0.73703101136E+03  0.00000000000E+00 0.  1.
         21   -1    0    0  501  502  0.00000000000E+00 -0.00000000000E+00 -0.35252020380E+02  0.35252020380E+02  0.00000000000E+00 0.  1.
         23    2    1    2    0    0 -0.28151594958E+02  0.41601575355E+02  0.45464565643E+03  0.46638923416E+03  0.91066137810E+02 0.  0.
         23    2    1    2    0    0  0.40908895999E+02 -0.19099742571E+02  0.25422668947E+03  0.27907222245E+03  0.10588558809E+03 0.  0.
        -11    1    4    4    0    0  0.24586177338E+02  0.42754428439E+02  0.13568828912E+03  0.14437358855E+03  0.00000000000E+00 0.  1.
         11    1    4    4    0    0  0.16322718661E+02 -0.61854171010E+02  0.11853840035E+03  0.13469863390E+03  0.00000000000E+00 0. -1.
        -13    1    3    3    0    0 -0.58051666759E+02  0.44808332851E+02  0.29866571770E+03  0.30753697930E+03  0.00000000000E+00 0.  1.
         13    1    3    3    0    0  0.29900071802E+02 -0.32067574963E+01  0.15597993873E+03  0.15885225486E+03  0.00000000000E+00 0. -1.
         -2    1    1    2    0  502 -0.12757301042E+02 -0.22501832784E+02 -0.70933549230E+01  0.26821575132E+02  0.00000000000E+00 0.  1.
<scales pt_clust_5="13000.00000" pt_clust_6="13000.00000" pt_clust_7="13000.00000" pt_clust_8="13000.00000" pt_clust_9="25.86660"></scales>
<clustering>
<clus scale="   25.867">  2  9  1 -1</clus>
<clus scale="   91.066">  7  8 -1 -1</clus>
<clus scale="  102.542">  1  7  2 -1</clus>
<clus scale="  105.886">  5  6 -1 -1</clus>
<clus scale="   25.867">  2  5  1 -1</clus>
</clustering>
</event>
<event>
 9    1  0.1426358E-005  0.1023978E+03  0.7546771E-02  0.1276306E+00
         21   -1    0    0  501  502  0.00000000000E+00  0.00000000000E+00  0.88483812417E+03  0.88483812417E+03  0.00000000000E+00 0.  1.
          4   -1    0    0  502    0 -0.00000000000E+00 -0.00000000000E+00 -0.31481018148E+02  0.31481018148E+02  0.00000000000E+00 0. -1.
         23    2    1    2    0    0  0.12514946706E+02 -0.97889679789E+01  0.15363409225E+03  0.17883424122E+03  0.90143240170E+02 0.  0.
         23    2    1    2    0    0 -0.54459384129E+02  0.76524560469E+02  0.26757942916E+03  0.29821157745E+03  0.92247282587E+02 0.  0.
        -11    1    3    3    0    0  0.45746740015E+02  0.16837840427E+02  0.87907989648E+02  0.10051911130E+03  0.00000000000E+00 0. -1.
         11    1    3    3    0    0 -0.33231793309E+02 -0.26626808406E+02  0.65726102598E+02  0.78315129925E+02  0.00000000000E+00 0.  1.
        -11    1    4    4    0    0 -0.44336928433E+02  0.50666870577E+02  0.26117617173E+03  0.26971445582E+03  0.00000000000E+00 0.  1.
         11    1    4    4    0    0 -0.10122455696E+02  0.25857689891E+02  0.64032574253E+01  0.28497121635E+02  0.00000000000E+00 0. -1.
          4    1    1    2  501    0  0.41944437424E+02 -0.66735592490E+02  0.43214358462E+03  0.43927332364E+03  0.00000000000E+00 0. -1.
<scales pt_clust_5="13000.00000" pt_clust_6="13000.00000" pt_clust_7="13000.00000" pt_clust_8="13000.00000" pt_clust_9="78.82243"></scales>
<clustering>
<clus scale="   78.822">  1  9  2 -1</clus>
<clus scale="   90.143">  5  6 -1 -1</clus>
<clus scale="   92.247">  7  8 -1 -1</clus>
<clus scale="  100.506">  2  5  1 -1</clus>
<clus scale="   78.822">  1  5  2 -1</clus>
</clustering>
</event>
<event>
 9    1  0.1426358E-005  0.2774115E+03  0.7546771E-02  0.1125409E+00
         21   -1    0    0  501  502  0.00000000000E+00  0.00000000000E+00  0.73884766428E+03  0.73884766428E+03  0.00000000000E+00 0. -1.
          2   -1    0    0  502    0 -0.00000000000E+00 -0.00000000000E+00 -0.20714219845E+03  0.20714219845E+03  0.00000000000E+00 0. -1.
         23    2    1    2    0    0 -0.95371149236E+02 -0.22549800776E+02 -0.57183488260E+01  0.13525397371E+03  0.93041862993E+02 0.  0.
         23    2    1    2    0    0 -0.74513927690E+02 -0.23376714652E+03  0.38911687532E+03  0.46933544221E+03  0.93082814957E+02 0.  0.
        -13    1    3    3    0    0 -0.43226910547E+02 -0.55388758705E+02  0.11674193924E+02  0.71223361267E+02  0.00000000000E+00 0. -1.
         13    1    3    3    0    0 -0.52144238689E+02  0.32838957930E+02 -0.17392542751E+02  0.64030612442E+02  0.00000000000E+00 0.  1.
        -13    1    4    4    0    0 -0.78635443715E+02 -0.20550326444E+03  0.27764535786E+03  0.35426271247E+03  0.00000000000E+00 0. -1.
         13    1    4    4    0    0  0.41215160249E+01 -0.28263882077E+02  0.11147151746E+03  0.11507272974E+03  0.00000000000E+00 0.  1.
          2    1    1    2  501    0  0.16988507693E+03  0.25631694730E+03  0.14830693933E+03  0.34140044682E+03  0.00000000000E+00 0. -1.
<scales pt_clust_5="13000.00000" pt_clust_6="13000.00000" pt_clust_7="13000.00000" pt_clust_8="13000.00000" pt_clust_9="261.32887"></scales>
<clustering>
<clus scale="   93.042">  5  6 -1 -1</clus>
<clus scale="   93.083">  7  8 -1 -1</clus>
<clus scale="  135.133">  2  5  1 -1</clus>
<clus scale="  261.329">  1  9  2 -1</clus>
<clus scale="  261.329">  1  5  2 -1</clus>
</clustering>
</event>
<event>
 9    1  0.1426358E-005  0.9572175E+02  0.7546771E-02  0.1289663E+00
         21   -1    0    0  501  502  0.00000000000E+00  0.00000000000E+00  0.94501146089E+02  0.94501146089E+02  0.00000000000E+00 0.  1.
          2   -1    0    0  502    0 -0.00000000000E+00 -0.00000000000E+00 -0.21009269266E+03  0.21009269266E+03  0.00000000000E+00 0. -1.
         23    2    1    2    0    0 -0.23261065386E+02  0.26236943626E+02 -0.13573658969E+03  0.16726303317E+03  0.91230730070E+02 0.  0.
         23    2    1    2    0    0  0.14592127043E+02 -0.18941078918E+01 -0.14895908118E+02  0.93792404058E+02  0.91425429526E+02 0.  0.
        -11    1    4    4    0    0  0.50113428144E+02 -0.11517455234E+02 -0.22642026744E+02  0.56184240054E+02  0.00000000000E+00 0. -1.
         11    1    4    4    0    0 -0.35521301101E+02  0.96233473423E+01  0.77461186260E+01  0.37608164004E+02  0.00000000000E+00 0.  1.
        -13    1    3    3    0    0 -0.33223774917E+02 -0.98027263216E+01 -0.99556803196E+01  0.36042034261E+02  0.00000000000E+00 0.  1.
         13    1    3    3    0    0  0.99627095309E+01  0.36039669948E+02 -0.12578090937E+03  0.13122099890E+03  0.00000000000E+00 0. -1.
          2    1    1    2  501    0  0.86689383425E+01 -0.24342835735E+02  0.35040951238E+02  0.43538401524E+02  0.00000000000E+00 0. -1.
<scales pt_clust_5="13000.00000" pt_clust_6="13000.00000" pt_clust_7="13000.00000" pt_clust_8="13000.00000" pt_clust_9="25.84036"></scales>
<clustering>
<clus scale="   25.840">  1  9  2 -1</clus>
<clus scale="   91.231">  7  8 -1 -1</clus>
<clus scale="   91.425">  5  6 -1 -1</clus>
<clus scale="   95.536">  2  7  1 -1</clus>
<clus scale="   25.840">  1  5  2 -1</clus>
</clustering>
</event>
<event>
 9    1  0.1426358E-005  0.2376082E+03  0.7546771E-02  0.1121648E+00
          2   -1    0    0  502    0 -0.00000000000E+00  0.00000000000E+00  0.72349770019E+03  0.72349770019E+03  0.00000000000E+00 0. -1.
         21   -1    0    0  501  502  0.00000000000E+00 -0.00000000000E+00 -0.99152437380E+02  0.99152437380E+02  0.00000000000E+00 0. -1.
         23    2    1    2    0    0  0.23025404180E+03 -0.25421573978E+02  0.44267869041E+03  0.50798613881E+03  0.91773166520E+02 0.  0.
         23    2    1    2    0    0 -0.19595210692E+03  0.11075318442E+02  0.13091706344E+03  0.25175175476E+03  0.87862265174E+02 0.  0.
        -11    1    3    3    0    0  0.17754119593E+02 -0.28130924862E+02  0.93264910188E+02  0.99019700911E+02  0.00000000000E+00 0.  1.
         11    1    3    3    0    0  0.21249992221E+03  0.27093508841E+01  0.34941378022E+03  0.40896643790E+03  0.00000000000E+00 0. -1.
        -11    1    4    4    0    0 -0.12192049521E+03  0.31677808333E+02  0.12028651072E+03  0.17417501357E+03  0.00000000000E+00 0.  1.
         11    1    4    4    0    0 -0.74031611712E+02 -0.20602489891E+02  0.10630552720E+02  0.77576741189E+02  0.00000000000E+00 0. -1.
          2    1    1    2  501    0 -0.34301934884E+02  0.14346255536E+02  0.50749508962E+02  0.62912243996E+02  0.00000000000E+00 0. -1.
<scales pt_clust_5="13000.00000" pt_clust_6="13000.00000" pt_clust_7="13000.00000" pt_clust_8="13000.00000" pt_clust_9="37.18117"></scales>
<clustering>
<clus scale="   37.181">  2  9  1 -1</clus>
<clus scale="   87.862">  7  8 -1 -1</clus>
<clus scale="   91.773">  5  6 -1 -1</clus>
<clus scale="  236.125">  2  7  1 -1</clus>
<clus scale="   37.181">  2  5  1 -1</clus>
</clustering>
</event>
<event>
 9    1  0.1426358E-005  0.9099115E+02  0.7546771E-02  0.1308415E+00
         -1   -1    0    0    0  501 -0.00000000000E+00  0.00000000000E+00  0.19666473347E+03  0.19666473347E+03  0.00000000000E+00 0.  1.
         21   -1    0    0  501  502  0.00000000000E+00 -0.00000000000E+00 -0.62665518160E+02  0.62665518160E+02  0.00000000000E+00 0. -1.
         23    2    1    2    0    0  0.25711266713E+02  0.76787247512E+01  0.70408341872E+02  0.11736089116E+03  0.89978953755E+02 0.  0.
         23    2    1    2    0    0  0.43174726379E+01  0.24388515402E+02  0.51909436869E+02  0.96510708506E+02  0.77500238494E+02 0.  0.
        -11    1    3    3    0    0  0.29413189686E+02  0.31970004891E+02  0.69905826682E+00  0.43447734379E+02  0.00000000000E+00 0. -1.
         11    1    3    3    0    0 -0.37019229731E+01 -0.24291280140E+02  0.69709283605E+02  0.73913156781E+02  0.00000000000E+00 0.  1.
        -11    1    4    4    0    0 -0.71435596661E+01  0.50029275660E+02  0.20941467373E+02  0.54703783448E+02  0.00000000000E+00 0.  1.
         11    1    4    4    0    0  0.11461032304E+02 -0.25640760258E+02  0.30967969496E+02  0.41806925058E+02  0.00000000000E+00 0. -1.
         -1    1    1    2    0  502 -0.30028739351E+02 -0.32067240154E+02  0.11681436567E+02  0.45458651963E+02  0.00000000000E+00 0.  1.
<scales pt_clust_5="13000.00000" pt_clust_6="13000.00000" pt_clust_7="13000.00000" pt_clust_8="13000.00000" pt_clust_9="43.93214"></scales>
<clustering>
<clus scale="   43.932">  2  9  1 -1</clus>
<clus scale="   77.500">  7  8 -1 -1</clus>
<clus scale="   78.673">  2  7  1 -1</clus>
<clus scale="   89.979">  5  6 -1 -1</clus>
<clus scale="   43.932">  2  5  1 -1</clus>
</clustering>
</event>
<event>
 9    1  0.1426358E-005  0.1059695E+03  0.7546771E-02  0.1268340E+00
         21   -1    0    0  501  502  0.00000000000E+00  0.00000000000E+00  0.11850741690E+03  0.11850741690E+03  0.00000000000E+00 0. -1.
          1   -1    0    0  502    0 -0.00000000000E+00 -0.00000000000E+00 -0.24188190667E+03  0.24188190667E+03  0.00000000000E+00 0. -1.
         23    2    1    2    0    0 -0.45480038647E+02 -0.35844540659E+02 -0.76465709809E+02  0.13251636820E+03  0.91434774860E+02 0.  0.
         23    2    1    2    0    0  0.67287973893E+02 -0.57030860583E+02 -0.20551881331E+02  0.12889764380E+03  0.91717131774E+02 0.  0.
        -11    1    4    4    0    0  0.59392914049E+02 -0.21259497276E+01  0.17116881383E+02  0.61846790780E+02  0.00000000000E+00 0.  1.
         11    1    4    4    0    0  0.78950598441E+01 -0.54904910856E+02 -0.37668762714E+02  0.67050853018E+02  0.00000000000E+00 0. -1.
        -13    1    3    3    0    0  0.25555770603E+02 -0.25900185032E+02 -0.28649066963E+02  0.46310755054E+02  0.00000000000E+00 0.  1.
         13    1    3    3    0    0 -0.71035809250E+02 -0.99443556263E+01 -0.47816642846E+02  0.86205613145E+02  0.00000000000E+00 0. -1.
          1    1    1    2  501    0 -0.21807935246E+02  0.92875401242E+02 -0.26356898628E+02  0.98975311572E+02  0.00000000000E+00 0. -1.
<scales pt_clust_5="13000.00000" pt_clust_6="13000.00000" pt_clust_7="13000.00000" pt_clust_8="13000.00000" pt_clust_9="95.40140"></scales>
<clustering>
<clus scale="   91.435">  7  8 -1 -1</clus>
<clus scale="   91.717">  5  6 -1 -1</clus>
<clus scale="   95.401">  1  9  2 -1</clus>
<clus scale="  105.725">  2  7  1 -1</clus>
<clus scale="   95.401">  1  5  2 -1</clus>
</clustering>
</event>
<event>
 9    1  0.1426358E-005  0.1238593E+03  0.7546771E-02  0.1237333E+00
         21   -1    0    0  501  502  0.00000000000E+00  0.00000000000E+00  0.59466436199E+02  0.59466436199E+02  0.00000000000E+00 0. -1.
         -1   -1    0    0    0  501 -0.00000000000E+00 -0.00000000000E+00 -0.41535801513E+03  0.41535801513E+03  0.00000000000E+00 0.  1.
         23    2    1    2    0    0  0.55836682771E+02  0.67014025689E+02 -0.19615149383E+03  0.23369372349E+03  0.92351140142E+02 0.  0.
         23    2    1    2    0    0 -0.65292455683E+02 -0.45144830113E+02 -0.17523414348E+03  0.21270997484E+03  0.90759946562E+02 0.  0.
        -11    1    3    3    0    0  0.36218620343E+02  0.86876890928E+02 -0.17485995033E+03  0.19858344560E+03  0.00000000000E+00 0. -1.
         11    1    3    3    0    0  0.19618062428E+02 -0.19862865240E+02 -0.21291543498E+02  0.35110277890E+02  0.00000000000E+00 0.  1.
        -11    1    4    4    0    0 -0.44779892693E+01 -0.54003353945E+02 -0.11260084827E+03  0.12496145668E+03  0.00000000000E+00 0.  1.
         11    1    4    4    0    0 -0.60814466414E+02  0.88585238322E+01 -0.62633295206E+02  0.87748518153E+02  0.00000000000E+00 0. -1.
         -1    1    1    2    0  502  0.94557729122E+01 -0.21869195576E+02  0.15494058372E+02  0.28420753005E+02  0.00000000000E+00 0.  1.
<scales pt_clust_5="13000.00000" pt_clust_6="13000.00000" pt_clust_7="13000.00000" pt_clust_8="13000.00000" pt_clust_9="23.82590"></scales>
<clustering>
<clus scale="   23.826">  1  9  2 -1</clus>
<clus scale="   90.760">  7  8 -1 -1</clus>
<clus scale="   92.351">  5  6 -1 -1</clus>
<clus scale="  122.677">  1  7  2 -1</clus>
<clus scale="   23.826">  1  5  2 -1</clus>
</clustering>
</event>
<event>
 9    1  0.1426358E-005  0.9494249E+02  0.7546771E-02  0.1292411E+00
         -3   -1    0    0    0  501 -0.00000000000E+00  0.00000000000E+00  0.43864122705E+03  0.43864122705E+03  0.00000000000E+00 0.  1.
         21   -1    0    0  501  502  0.00000000000E+00 -0.00000000000E+00 -0.66812187662E+02  0.66812187662E+02  0.00000000000E+00 0. -1.
         23    2    1    2    0    0 -0.19856481323E+02  0.10847416048E+02  0.34946330063E+03  0.36215880535E+03  0.92317146411E+02 0.  0.
         23    2    1    2    0    0  0.43218695843E+01 -0.29263599694E+02  0.49373923476E+02  0.10710176444E+03  0.90321463693E+02 0.  0.
        -13    1    3    3    0    0  0.46603348785E+01  0.47703736436E+02  0.13726825982E+03  0.14539580580E+03  0.00000000000E+00 0. -1.
         13    1    3    3    0    0 -0.24516816202E+02 -0.36856320387E+02  0.21219504081E+03  0.21676299955E+03  0.00000000000E+00 0.  1.
        -13    1    4    4    0    0 -0.33010574569E+02 -0.42552291064E+02  0.37875154913E+02  0.65840131135E+02  0.00000000000E+00 0.  1.
         13    1    4    4    0    0  0.37332444154E+02  0.13288691370E+02  0.11498768564E+02  0.41261633309E+02  0.00000000000E+00 0. -1.
         -3    1    1    2    0  502  0.15534611739E+02  0.18416183646E+02 -0.27008184713E+02  0.36192844921E+02  0.00000000000E+00 0.  1.
<scales pt_clust_5="13000.00000" pt_clust_6="13000.00000" pt_clust_7="13000.00000" pt_clust_8="13000.00000" pt_clust_9="24.09315"></scales>
<clustering>
<clus scale="   24.093">  2  9  1 -1</clus>
<clus scale="   90.321">  7  8 -1 -1</clus>
<clus scale="   92.317">  5  6 -1 -1</clus>
<clus scale="   93.003">  2  7  1 -1</clus>
<clus scale="   24.093">  2  5  1 -1</clus>
</clustering>
</event>
<event>
 9    1  0.1426358E-005  0.1485298E+03  0.7546771E-02  0.1202426E+00
          1   -1    0    0  502    0 -0.00000000000E+00  0.00000000000E+00  0.20798779674E+03  0.20798779674E+03  0.00000000000E+00 0. -1.
         21   -1    0    0  501  502  0.00000000000E+00 -0.00000000000E+00 -0.40549747048E+03  0.40549747048E+03  0.00000000000E+00 0. -1.
         23    2    1    2    0    0  0.60359755561E+02 -0.10716447325E+03  0.12936265113E+03  0.20040347638E+03  0.91100677393E+02 0.  0.
         23    2    1    2    0    0 -0.72218653398E+02  0.69958188760E+02 -0.69685305924E+02  0.15294701082E+03  0.91799042396E+02 0.  0.
        -11    1    3    3    0    0  0.51935812078E+02 -0.45955513297E+02  0.11903161482E+03  0.13775980221E+03  0.00000000000E+00 0. -1.
         11    1    3    3    0    0  0.84239434834E+01 -0.61208959953E+02  0.10331036305E+02  0.62643674170E+02  0.00000000000E+00 0.  1.
        -11    1    4    4    0    0  0.14741650331E+02  0.42097700150E+02 -0.18724363533E+02  0.48374935681E+02  0.00000000000E+00 0.  1.
         11    1    4    4    0    0 -0.86960303729E+02  0.27860488610E+02 -0.50960942391E+02  0.10457207514E+03  0.00000000000E+00 0. -1.
          1    1    1    2  501    0  0.11858897837E+02  0.37206284490E+02 -0.25718701894E+03  0.26013478002E+03  0.00000000000E+00 0. -1.
<scales pt_clust_5="13000.00000" pt_clust_6="13000.00000" pt_clust_7="13000.00000" pt_clust_8="13000.00000" pt_clust_9="39.05049"></scales>
<clustering>
<clus scale="   39.050">  2  9  1 -1</clus>
<clus scale="   91.101">  5  6 -1 -1</clus>
<clus scale="   91.799">  7  8 -1 -1</clus>
<clus scale="  148.099">  1  5  2 -1</clus>
<clus scale="   39.050">  2  5  1 -1</clus>
</clustering>
</event>
<event>
 9    1  0.1426358E-005  0.1727643E+03  0.7546771E-02  0.1175164E+00
          1   -1    0    0  502    0 -0.00000000000E+00  0.00000000000E+00  0.87398017921E+03  0.87398017921E+03  0.00000000000E+00 0. -1.
         21   -1    0    0  501  502  0.00000000000E+00 -0.00000000000E+00 -0.40978694933E+02  0.40978694933E+02  0.00000000000E+00 0.  1.
         23    2    1    2    0    0  0.45226054338E+02 -0.15267108931E+03  0.45528670235E+03  0.49097273267E+03  0.91729959018E+02 0.  0.
         23    2    1    2    0    0 -0.41500386046E+02  0.12452601067E+03  0.27971183294E+03  0.32195377374E+03  0.90479354355E+02 0.  0.
        -11    1    3    3    0    0  0.66598070622E+02 -0.14022853311E+03  0.42090769675E+03  0.44862304186E+03  0.00000000000E+00 0. -1.
         11    1    3    3    0    0 -0.21372016284E+02 -0.12442556206E+02  0.34379005604E+02  0.42349690805E+02  0.00000000000E+00 0.  1.
        -11    1    4    4    0    0  0.92885182552E+01  0.45324526861E+02  0.17575079565E+03  0.18173863507E+03  0.00000000000E+00 0. -1.
         11    1    4    4    0    0 -0.50788904301E+02  0.79201483807E+02  0.10396103729E+03  0.14021513867E+03  0.00000000000E+00 0.  1.
          1    1    1    2  501    0 -0.37256682915E+01  0.28145078643E+02  0.98002948984E+02  0.10203236774E+03  0.00000000000E+00 0. -1.
<scales pt_clust_5="13000.00000" pt_clust_6="13000.00000" pt_clust_7="13000.00000" pt_clust_8="13000.00000" pt_clust_9="28.39061"></scales>
<clustering>
<clus scale="   28.391">  2  9  1 -1</clus>
<clus scale="   90.479">  7  8 -1 -1</clus>
<clus scale="   91.730">  5  6 -1 -1</clus>
<clus scale="  172.104">  2  7  1 -1</clus>
<clus scale="   28.391">  2  5  1 -1</clus>
</clustering>
</event>
<event>
 9    1  0.1426358E-005  0.1049880E+03  0.7546771E-02  0.1271682E+00
         -1   -1    0    0    0  501 -0.00000000000E+00  0.00000000000E+00  0.17284173535E+03  0.17284173535E+03  0.00000000000E+00 0.  1.
         21   -1    0    0  501  502  0.00000000000E+00 -0.00000000000E+00 -0.17534465354E+03  0.17534465354E+03  0.00000000000E+00 0. -1.
         23    2    1    2    0    0  0.52091540524E+02 -0.13057911761E+02  0.12978830008E+03  0.16595113284E+03  0.88378379702E+02 0.  0.
         23    2    1    2    0    0 -0.34147636380E+02 -0.57522178539E+01 -0.93964518344E+02  0.13592391188E+03  0.91906637582E+02 0.  0.
        -11    1    4    4    0    0  0.16943662248E+00  0.37285430841E+02 -0.61783348956E+02  0.72162415910E+02  0.00000000000E+00 0. -1.
         11    1    4    4    0    0 -0.34317073003E+02 -0.43037648695E+02 -0.32181169388E+02  0.63761495967E+02  0.00000000000E+00 0.  1.
        -13    1    3    3    0    0 -0.12002285987E+01  0.32462982976E+02  0.31638677353E+02  0.45346352853E+02  0.00000000000E+00 0. -1.
         13    1    3    3    0    0  0.53291769123E+02 -0.45520894737E+02  0.98149622724E+02  0.12060477998E+03  0.00000000000E+00 0.  1.
         -1    1    1    2    0  502 -0.17943904144E+02  0.18810129615E+02 -0.38326699923E+02  0.46311344172E+02  0.00000000000E+00 0.  1.
<scales pt_clust_5="13000.00000" pt_clust_6="13000.00000" pt_clust_7="13000.00000" pt_clust_8="13000.00000" pt_clust_9="25.99624"></scales>
<clustering>
<clus scale="   25.996">  2  9  1 -1</clus>
<clus scale="   88.378">  7  8 -1 -1</clus>
<clus scale="   91.907">  5  6 -1 -1</clus>
<clus scale="  101.914">  1  7  2 -1</clus>
<clus scale="   25.996">  2  5  1 -1</clus>
</clustering>
</event>
<event>
 9    1  0.1426358E-005  0.9733546E+02  0.7546771E-02  0.1288922E+00
          2   -1    0    0  502    0 -0.00000000000E+00  0.00000000000E+00  0.47258573026E+03  0.47258573026E+03  0.00000000000E+00 0. -1.
         21   -1    0    0  501  502  0.00000000000E+00 -0.00000000000E+00 -0.76313219333E+02  0.76313219333E+02  0.00000000000E+00 0. -1.
         23    2    1    2    0    0  0.78883322923E+00  0.28405458152E+02  0.27692405468E+03  0.29436806847E+03  0.95698147141E+02 0.  0.
         23    2    1    2    0    0  0.51322364971E+02  0.34170587494E+02  0.13271323470E+03  0.17200842497E+03  0.90401777644E+02 0.  0.
        -13    1    4    4    0    0  0.76859116988E+02  0.17655348439E+02  0.91611588070E+02  0.12087894052E+03  0.00000000000E+00 0. -1.
         13    1    4    4    0    0 -0.25536752018E+02  0.16515239055E+02  0.41101646627E+02  0.51129484450E+02  0.00000000000E+00 0.  1.
        -13    1    3    3    0    0 -0.19444030716E+02  0.56425114298E+02  0.21833482199E+03  0.22634477761E+03  0.00000000000E+00 0. -1.
         13    1    3    3    0    0  0.20232863945E+02 -0.28019656146E+02  0.58589232684E+02  0.68023290867E+02  0.00000000000E+00 0.  1.
          2    1    1    2  501    0 -0.52111198200E+02 -0.62576045646E+02 -0.13364778445E+02  0.82522456152E+02  0.00000000000E+00 0. -1.
<scales pt_clust_5="13000.00000" pt_clust_6="13000.00000" pt_clust_7="13000.00000" pt_clust_8="13000.00000" pt_clust_9="81.43303"></scales>
<clustering>
<clus scale="   81.433">  2  9  1 -1</clus>
<clus scale="   90.402">  5  6 -1 -1</clus>
<clus scale="   92.133">  2  5  1 -1</clus>
<clus scale="   95.698">  7  8 -1 -1</clus>
<clus scale="   81.433">  2  5  1 -1</clus>
</clustering>
</event>
<event>
 9    1  0.1426358E-005  0.1039065E+03  0.7546771E-02  0.1275280E+00
         21   -1    0    0  501  502  0.00000000000E+00  0.00000000000E+00  0.35176084701E+03  0.35176084701E+03  0.00000000000E+00 0. -1.
          3   -1    0    0  502    0 -0.00000000000E+00 -0.00000000000E+00 -0.66138123017E+02  0.66138123017E+02  0.00000000000E+00 0. -1.
         23    2    1    2    0    0 -0.34738775726E+02  0.33789162115E+02  0.85531433526E+01  0.98739318569E+02  0.85602609510E+02 0.  0.
         23    2    1    2    0    0  0.50753111325E+02 -0.11417980553E+02  0.12138404912E+03  0.16106185440E+03  0.92198616979E+02 0.  0.
        -11    1    3    3    0    0 -0.53063120572E+02 -0.59631030694E+01 -0.29567897334E+01  0.53478930137E+02  0.00000000000E+00 0.  1.
         11    1    3    3    0    0  0.18324344847E+02  0.39752265185E+02  0.11509933086E+02  0.45260388432E+02  0.00000000000E+00 0. -1.
        -13    1    4    4    0    0 -0.19674280559E+02 -0.18089738252E+02  0.66038065238E+02  0.71241434615E+02  0.00000000000E+00 0.  1.
         13    1    4    4    0    0  0.70427391885E+02  0.66717576998E+01  0.55345983879E+02  0.89820419783E+02  0.00000000000E+00 0. -1.
          3    1    1    2  501    0 -0.16014335600E+02 -0.22371181563E+02  0.15568553152E+03  0.15809779706E+03  0.00000000000E+00 0. -1.
<scales pt_clust_5="13000.00000" pt_clust_6="13000.00000" pt_clust_7="13000.00000" pt_clust_8="13000.00000" pt_clust_9="27.51234"></scales>
<clustering>
<clus scale="   27.512">  1  9  2 -1</clus>
<clus scale="   85.603">  5  6 -1 -1</clus>
<clus scale="   92.199">  7  8 -1 -1</clus>
<clus scale="   98.101">  2  5  1 -1</clus>
<clus scale="   27.512">  1  5  2 -1</clus>
</clustering>
</event>
<event>
 9    1  0.1426358E-005  0.1086569E+03  0.7546771E-02  0.1263208E+00
          1   -1    0    0  502    0 -0.00000000000E+00  0.00000000000E+00  0.31134057418E+03  0.31134057418E+03  0.00000000000E+00 0. -1.
         21   -1    0    0  501  502  0.00000000000E+00 -0.00000000000E+00 -0.74932847572E+02  0.74932847572E+02  0.00000000000E+00 0. -1.
         23    2    1    2    0    0 -0.54198744284E+02 -0.35647519003E+02  0.17724837049E+03  0.20955975709E+03  0.91049752647E+02 0.  0.
         23    2    1    2    0    0  0.18438188527E+02  0.39926488728E+02 -0.67194348383E+01  0.10163276145E+03  0.91378203617E+02 0.  0.
        -11    1    4    4    0    0  0.63842646962E+01 -0.29641076295E+02  0.25260548065E+01  0.30425863875E+02  0.00000000000E+00 0.  1.
         11    1    4    4    0    0  0.12053923831E+02  0.69567565023E+02 -0.92454896449E+01  0.71206897571E+02  0.00000000000E+00 0. -1.
        -11    1    3    3    0    0  0.34822185674E+01  0.20600023501E+02  0.82905632474E+02  0.85497547978E+02  0.00000000000E+00 0.  1.
         11    1    3    3    0    0 -0.57680962851E+02 -0.56247542504E+02  0.94342738012E+02  0.12406220911E+03  0.00000000000E+00 0. -1.
          1    1    1    2  501    0  0.35760555757E+02 -0.42789697244E+01  0.65878790956E+02  0.75080903216E+02  0.00000000000E+00 0. -1.
<scales pt_clust_5="13000.00000" pt_clust_6="13000.00000" pt_clust_7="13000.00000" pt_clust_8="13000.00000" pt_clust_9="36.01567"></scales>
<clustering>
<clus scale="   36.016">  2  9  1 -1</clus>
<clus scale="   91.050">  7  8 -1 -1</clus>
<clus scale="   91.378">  5  6 -1 -1</clus>
<clus scale="  108.381">  1  7  2 -1</clus>
<clus scale="   36.016">  2  5  1 -1</clus>
</clustering>
</event>
<event>
 9    1  0.1426358E-005  0.9700985E+02  0.7546771E-02  0.1291152E+00
         21   -1    0    0  501  502  0.00000000000E+00  0.00000000000E+00  0.52912068640E+02  0.52912068640E+02  0.00000000000E+00 0.  1.
          1   -1    0    0  502    0 -0.00000000000E+00 -0.00000000000E+00 -0.43804337424E+03  0.43804337424E+03  0.00000000000E+00 0. -1.
         23    2    1    2    0    0  0.13882635868E+01  0.38054281058E+02 -0.30283299743E+03  0.31594493783E+03  0.81629184887E+02 0.  0.
         23    2    1    2    0    0  0.36247380841E+02 -0.22649325373E+02 -0.21658409563E+02  0.10199713850E+03  0.90041462675E+02 0.  0.
        -11    1    4    4    0    0  0.13510116796E+02 -0.16251492397E+02  0.34846340354E+02  0.40754161714E+02  0.00000000000E+00 0.  1.
         11    1    4    4    0    0  0.22737264045E+02 -0.63978329764E+01 -0.56504749916E+02  0.61242976791E+02  0.00000000000E+00 0. -1.
        -11    1    3    3    0    0  0.29023399505E+02  0.37196438274E+02 -0.26453684662E+03  0.26871113851E+03  0.00000000000E+00 0. -1.
         11    1    3    3    0    0 -0.27635135918E+02  0.85784278431E+00 -0.38296150810E+02  0.47233799321E+02  0.00000000000E+00 0.  1.
          1    1    1    2  501    0 -0.37635644428E+02 -0.15404955685E+02 -0.60639898607E+02  0.73013366545E+02  0.00000000000E+00 0. -1.
<scales pt_clust_5="13000.00000" pt_clust_6="13000.00000" pt_clust_7="13000.00000" pt_clust_8="13000.00000" pt_clust_9="40.66640"></scales>
<clustering>
<clus scale="   40.666">  1  9  2 -1</clus>
<clus scale="   81.629">  7  8 -1 -1</clus>
<clus scale="   89.257">  2  7  1 -1</clus>
<clus scale="   90.041">  5  6 -1 -1</clus>
<clus scale="   40.666">  1  5  2 -1</clus>
</clustering>
</event>
<event>
 9    1  0.1426358E-005  0.1520504E+03  0.7546771E-02  0.1198077E+00
         21   -1    0    0  501  502  0.00000000000E+00  0.00000000000E+00  0.94054066698E+02  0.94054066698E+02  0.00000000000E+00 0.  1.
          3   -1    0    0  502    0 -0.00000000000E+00 -0.00000000000E+00 -0.36074001011E+03  0.36074001011E+03  0.00000000000E+00 0. -1.
         23    2    1    2    0    0 -0.10457904273E+03  0.48795426466E+02 -0.19516968102E+03  0.24434308717E+03  0.91074530110E+02 0.  0.
         23    2    1    2    0    0  0.11334787039E+03 -0.74930691141E+02 -0.79723026544E+02  0.18168824680E+03  0.90512484588E+02 0.  0.
        -11    1    4    4    0    0  0.42312072108E+02 -0.12601744007E+02 -0.75045594546E+02  0.87068689314E+02  0.00000000000E+00 0. -1.
         11    1    4    4    0    0  0.71035798282E+02 -0.62328947133E+02 -0.46774319981E+01  0.94619557483E+02  0.00000000000E+00 0.  1.
        -11    1    3    3    0    0  0.28432562652E+00  0.33569103368E+02 -0.85456903093E+02  0.91814202759E+02  0.00000000000E+00 0.  1.
         11    1    3    3    0    0 -0.10486336836E+03  0.15226323098E+02 -0.10971277793E+03  0.15252888441E+03  0.00000000000E+00 0. -1.
          3    1    1    2  501    0 -0.87688276554E+01  0.26135264675E+02  0.82067641504E+01  0.28762742843E+02  0.00000000000E+00 0. -1.
<scales pt_clust_5="13000.00000" pt_clust_6="13000.00000" pt_clust_7="13000.00000" pt_clust_8="13000.00000" pt_clust_9="27.56709"></scales>
<clustering>
<clus scale="   27.567">  1  9  2 -1</clus>
<clus scale="   90.512">  5  6 -1 -1</clus>
<clus scale="   91.075">  7  8 -1 -1</clus>
<clus scale="  151.714">  1  5  2 -1</clus>
<clus scale="   27.567">  1  5  2 -1</clus>
</clustering>
</event>
<event>
 9    1  0.1426358E-005  0.1199951E+03  0.7546771E-02  0.1243186E+00
          2   -1    0    0  502    0 -0.00000000000E+00  0.00000000000E+00  0.17644506145E+03  0.17644506145E+03  0.00000000000E+00 0. -1.
         21   -1    0    0  501  502  0.00000000000E+00 -0.00000000000E+00 -0.19084963957E+03  0.19084963957E+03  0.00000000000E+00 0. -1.
         23    2    1    2    0    0 -0.72673926400E+02 -0.71727129528E+02  0.69099847714E+02  0.15349622400E+03  0.91433151199E+02 0.  0.
         23    2    1    2    0    0  0.56435624134E+02 -0.45618213516E+01 -0.12792656584E+02  0.10851865560E+03  0.91688912449E+02 0.  0.
        -13    1    4    4    0    0  0.21879255605E+02  0.15446111630E+02  0.36379986987E+02  0.45175077681E+02  0.00000000000E+00 0. -1.
         13    1    4    4    0    0  0.34556368529E+02 -0.20007932982E+02 -0.49172643572E+02  0.63343577922E+02  0.00000000000E+00 0.  1.
        -13    1    3    3    0    0 -0.32250403754E+02 -0.80205115547E+02  0.71413232713E+02  0.11212849285E+03  0.00000000000E+00 0. -1.
         13    1    3    3    0    0 -0.40423522646E+02  0.84779860192E+01 -0.23133849984E+01  0.41367731147E+02  0.00000000000E+00 0.  1.
          2    1    1    2  501    0  0.16238302266E+02  0.76288950880E+02 -0.70711769253E+02  0.10527982142E+03  0.00000000000E+00 0. -1.
<scales pt_clust_5="13000.00000" pt_clust_6="13000.00000" pt_clust_7="13000.00000" pt_clust_8="13000.00000" pt_clust_9="77.99799"></scales>
<clustering>
<clus scale="   77.998">  2  9  1 -1</clus>
<clus scale="   91.433">  7  8 -1 -1</clus>
<clus scale="   91.689">  5  6 -1 -1</clus>
<clus scale="  119.800">  1  7  2 -1</clus>
<clus scale="   77.998">  2  5  1 -1</clus>
</clustering>
</event>
<event>
 9    1  0.1426358E-005  0.9563630E+02  0.7546771E-02  0.1290084E+00
          2   -1    0    0  502    0 -0.00000000000E+00  0.00000000000E+00  0.57208981210E+03  0.57208981210E+03  0.00000000000E+00 0. -1.
         21   -1    0    0  501  502  0.00000000000E+00 -0.00000000000E+00 -0.21305658240E+02  0.21305658240E+02  0.00000000000E+00 0.  1.
         23    2    1    2    0    0  0.24842906508E+02 -0.13803549884E+02  0.30292854066E+03  0.31834625168E+03  0.93653228560E+02 0.  0.
         23    2    1    2    0    0 -0.95360210251E+01 -0.11193895310E+00  0.22772724611E+03  0.24618587280E+03  0.93042125494E+02 0.  0.
        -11    1    4    4    0    0 -0.38800652624E+02  0.16040714320E+02  0.19477146980E+03  0.19924537789E+03  0.00000000000E+00 0. -1.
         11    1    4    4    0    0  0.29264631599E+02 -0.16152653273E+02  0.32955776306E+02  0.46940494909E+02  0.00000000000E+00 0.  1.
        -11    1    3    3    0    0 -0.71927997445E+01 -0.47511522890E+02  0.11271215713E+03  0.12252800308E+03  0.00000000000E+00 0.  1.
         11    1    3    3    0    0  0.32035706253E+02  0.33707973006E+02  0.19021638353E+03  0.19581824859E+03  0.00000000000E+00 0. -1.
          2    1    1    2  501    0 -0.15306885483E+02  0.13915488837E+02  0.20128367096E+02  0.28863345869E+02  0.00000000000E+00 0. -1.
<scales pt_clust_5="13000.00000" pt_clust_6="13000.00000" pt_clust_7="13000.00000" pt_clust_8="13000.00000" pt_clust_9="20.68675"></scales>
<clustering>
<clus scale="   20.687">  2  9  1 -1</clus>
<clus scale="   93.042">  5  6 -1 -1</clus>
<clus scale="   93.653">  7  8 -1 -1</clus>
<clus scale="   95.038">  2  5  1 -1</clus>
<clus scale="   20.687">  2  5  1 -1</clus>
</clustering>
</event>
<event>
 9    1  0.1426358E-005  0.9511011E+02  0.7546771E-02  0.1290950E+00
         21   -1    0    0  501  502  0.00000000000E+00  0.00000000000E+00  0.67361464325E+02  0.67361464325E+02  0.00000000000E+00 0.  1.
         -4   -1    0    0    0  501 -0.00000000000E+00 -0.00000000000E+00 -0.30770240079E+03  0.30770240079E+03  0.00000000000E+00 0.  1.
         23    2    1    2    0    0  0.43460325850E+02  0.11984641971E+01 -0.15219799828E+03  0.18282548626E+03  0.91491483249E+02 0.  0.
         23    2    1    2    0    0 -0.72970009362E+01  0.62323095180E+01 -0.11451746905E+03  0.14686637928E+03  0.91451597795E+02 0.  0.
        -11    1    4    4    0    0 -0.21099114299E+02  0.43956196626E+02 -0.43827618078E+02  0.65560506042E+02  0.00000000000E+00 0.  1.
         11    1    4    4    0    0  0.13802113363E+02 -0.37723887108E+02 -0.70689850976E+02  0.81305873237E+02  0.00000000000E+00 0. -1.
        -13    1    3    3    0    0  0.70129689147E+02 -0.10362840932E+02 -0.12058946513E+03  0.13988345460E+03  0.00000000000E+00 0.  1.
         13    1    3    3    0    0 -0.26669363297E+02  0.11561305129E+02 -0.31608533156E+02  0.42942031662E+02  0.00000000000E+00 0. -1.
         -4    1    1    2    0  502 -0.36163324913E+02 -0.74307737152E+01  0.26374530870E+02  0.45371999575E+02  0.00000000000E+00 0.  1.
<scales pt_clust_5="13000.00000" pt_clust_6="13000.00000" pt_clust_7="13000.00000" pt_clust_8="13000.00000" pt_clust_9="36.91886"></scales>
<clustering>
<clus scale="   36.919">  1  9  2 -1</clus>
<clus scale="   91.452">  5  6 -1 -1</clus>
<clus scale="   91.491">  7  8 -1 -1</clus>
<clus scale="   95.072">  1  5  2 -1</clus>
<clus scale="   36.919">  1  5  2 -1</clus>
</clustering>
</event>
<event>
 9    1  0.1426358E-005  0.1450972E+03  0.7546771E-02  0.1221801E+00
         21   -1    0    0  501  502  0.00000000000E+00  0.00000000000E+00  0.56774869716E+03  0.56774869716E+03  0.00000000000E+00 0. -1.
          1   -1    0    0  502    0 -0.00000000000E+00 -0.00000000000E+00 -0.41156229872E+03  0.41156229872E+03  0.00000000000E+00 0. -1.
         23    2    1    2    0    0 -0.39424353024E+02 -0.18569521401E+02 -0.36966663336E+03  0.38434096931E+03  0.95736378329E+02 0.  0.
         23    2    1    2    0    0 -0.78465738999E+02  0.43652600228E+02  0.13875335551E+03  0.18954013865E+03  0.92793042795E+02 0.  0.
        -11    1    3    3    0    0 -0.44362545649E+02  0.31686268296E+02 -0.20291870626E+03  0.21011438886E+03  0.00000000000E+00 0. -1.
         11    1    3    3    0    0  0.49381926251E+01 -0.50255789697E+02 -0.16674792709E+03  0.17422658045E+03  0.00000000000E+00 0.  1.
        -13    1    4    4    0    0 -0.45060194388E+02 -0.23244192504E+02  0.78784055052E+02  0.93689065177E+02  0.00000000000E+00 0. -1.
         13    1    4    4    0    0 -0.33405544611E+02  0.66896792732E+02  0.59969300459E+02  0.95851073474E+02  0.00000000000E+00 0.  1.
          1    1    1    2  501    0  0.11789009202E+03 -0.25083078827E+02  0.38709967629E+03  0.40542988793E+03  0.00000000000E+00 0. -1.
<scales pt_clust_5="13000.00000" pt_clust_6="13000.00000" pt_clust_7="13000.00000" pt_clust_8="13000.00000" pt_clust_9="111.54662"></scales>
<clustering>
<clus scale="   92.793">  7  8 -1 -1</clus>
<clus scale="   95.736">  5  6 -1 -1</clus>
<clus scale="  105.188">  2  5  1 -1</clus>
<clus scale="  111.547">  1  9  2 -1</clus>
<clus scale="  111.547">  1  5  2 -1</clus>
</clustering>
</event>
<event>
 9    1  0.1426358E-005  0.9727878E+02  0.7546771E-02  0.1292973E+00
         21   -1    0    0  501  502  0.00000000000E+00  0.00000000000E+00  0.11650866833E+03  0.11650866833E+03  0.00000000000E+00 0.  1.
         -1   -1    0    0    0  501 -0.00000000000E+00 -0.00000000000E+00 -0.14626257342E+03  0.14626257342E+03  0.00000000000E+00 0.  1.
         23    2    1    2    0    0 -0.43429918346E+02  0.23302471622E+02 -0.63361016373E+02  0.12139841068E+03  0.91070262597E+02 0.  0.
         23    2    1    2    0    0  0.20040617982E+02  0.78348720586E+01 -0.11101878939E+02  0.82081285719E+02  0.78428784002E+02 0.  0.
        -11    1    4    4    0    0  0.60185790223E+01 -0.32263190561E+02 -0.20336922418E+02  0.38609936183E+02  0.00000000000E+00 0.  1.
         11    1    4    4    0    0  0.14022038959E+02  0.40098062620E+02  0.92350434792E+01  0.43471349536E+02  0.00000000000E+00 0. -1.
        -13    1    3    3    0    0 -0.15124252328E+02  0.53280764647E+02 -0.14085074452E+02  0.57148685131E+02  0.00000000000E+00 0. -1.
         13    1    3    3    0    0 -0.28305666018E+02 -0.29978293025E+02 -0.49275941920E+02  0.64249725552E+02  0.00000000000E+00 0.  1.
         -1    1    1    2    0  502  0.23389300365E+02 -0.31137343681E+02  0.44708990226E+02  0.59291545351E+02  0.00000000000E+00 0.  1.
<scales pt_clust_5="13000.00000" pt_clust_6="13000.00000" pt_clust_7="13000.00000" pt_clust_8="13000.00000" pt_clust_9="38.94347"></scales>
<clustering>
<clus scale="   38.943">  1  9  2 -1</clus>
<clus scale="   78.429">  5  6 -1 -1</clus>
<clus scale="   85.560">  1  5  2 -1</clus>
<clus scale="   91.070">  7  8 -1 -1</clus>
<clus scale="   38.943">  1  5  2 -1</clus>
</clustering>
</event>
<event>
 9    1  0.1426358E-005  0.1004429E+03  0.7546771E-02  0.1281327E+00
         21   -1    0    0  501  502  0.00000000000E+00  0.00000000000E+00  0.46070150815E+02  0.46070150815E+02  0.00000000000E+00 0.  1.
          1   -1    0    0  502    0 -0.00000000000E+00 -0.00000000000E+00 -0.30697021975E+03  0.30697021975E+03  0.00000000000E+00 0. -1.
         23    2    1    2    0    0 -0.31096790969E+02  0.16777073170E+02 -0.17124123133E+03  0.19582772972E+03  0.88184237973E+02 0.  0.
         23    2    1    2    0    0  0.33365203153E+02 -0.39435184325E+02 -0.79650480170E+02  0.13233890141E+03  0.92200950599E+02 0.  0.
        -11    1    4    4    0    0 -0.31922395789E+02 -0.12388638283E+02 -0.18690339508E+02  0.39010851084E+02  0.00000000000E+00 0.  1.
         11    1    4    4    0    0  0.65287598942E+02 -0.27046546042E+02 -0.60960140662E+02  0.93328050327E+02  0.00000000000E+00 0. -1.
        -13    1    3    3    0    0 -0.22696328423E+01  0.48060803607E+02 -0.61191794588E+02  0.77842326542E+02  0.00000000000E+00 0. -1.
         13    1    3    3    0    0 -0.28827158127E+02 -0.31283730437E+02 -0.11004943674E+03  0.11798540318E+03  0.00000000000E+00 0.  1.
          1    1    1    2  501    0 -0.22684121842E+01  0.22658111155E+02 -0.10008357438E+02  0.24873739436E+02  0.00000000000E+00 0. -1.
<scales pt_clust_5="13000.00000" pt_clust_6="13000.00000" pt_clust_7="13000.00000" pt_clust_8="13000.00000" pt_clust_9="22.77138"></scales>
<clustering>
<clus scale="   22.771">  1  9  2 -1</clus>
<clus scale="   88.184">  7  8 -1 -1</clus>
<clus scale="   92.201">  5  6 -1 -1</clus>
<clus scale="   96.769">  2  7  1 -1</clus>
<clus scale="   22.771">  1  5  2 -1</clus>
</clustering>
</event>
<event>
 9    1  0.1426358E-005  0.1102058E+03  0.7546771E-02  0.1260405E+00
          3   -1    0    0  502    0 -0.00000000000E+00  0.00000000000E+00  0.33250829310E+02  0.33250829310E+02  0.00000000000E+00 0. -1.
         21   -1    0    0  501  502  0.00000000000E+00 -0.00000000000E+00 -0.46089714734E+03  0.46089714734E+03  0.00000000000E+00 0.  1.
         23    2    1    2    0    0 -0.73031371990E+02 -0.99921913415E+01 -0.16931129453E+03  0.20532413707E+03  0.89767820666E+02 0.  0.
         23    2    1    2    0    0  0.49686844317E+02  0.19510988228E+02 -0.20765381372E+03  0.23221854397E+03  0.89195765871E+02 0.  0.
        -11    1    4    4    0    0  0.57407389728E+02  0.42261682105E+02 -0.18838385365E+03  0.20142029313E+03  0.00000000000E+00 0.  1.
         11    1    4    4    0    0 -0.77205454111E+01 -0.22750693877E+02 -0.19269960073E+02  0.30798250835E+02  0.00000000000E+00 0. -1.
        -13    1    3    3    0    0 -0.34788823471E+02  0.30271783146E+02 -0.12816908172E+03  0.13621290909E+03  0.00000000000E+00 0.  1.
         13    1    3    3    0    0 -0.38242548518E+02 -0.40263974487E+02 -0.41142212808E+02  0.69111227984E+02  0.00000000000E+00 0. -1.
          3    1    1    2  501    0  0.23344527673E+02 -0.95187968866E+01 -0.50681209787E+02  0.56605295617E+02  0.00000000000E+00 0. -1.
<scales pt_clust_5="13000.00000" pt_clust_6="13000.00000" pt_clust_7="13000.00000" pt_clust_8="13000.00000" pt_clust_9="25.21060"></scales>
<clustering>
<clus scale="   25.211">  2  9  1 -1</clus>
<clus scale="   89.196">  5  6 -1 -1</clus>
<clus scale="   89.768">  7  8 -1 -1</clus>
<clus scale="  109.740">  2  5  1 -1</clus>
<clus scale="   25.211">  2  5  1 -1</clus>
</clustering>
</event>
<event>
 9    1  0.1426358E-005  0.1114149E+03  0.7546771E-02  0.1258103E+00
         21   -1    0    0  501  502  0.00000000000E+00  0.00000000000E+00  0.19562362164E+03  0.19562362164E+03  0.00000000000E+00 0. -1.
          1   -1    0    0  502    0 -0.00000000000E+00 -0.00000000000E+00 -0.10005706721E+03  0.10005706721E+03  0.00000000000E+00 0. -1.
         23    2    1    2    0    0  0.65124314890E+02 -0.52557130738E+01  0.72172361457E+01  0.11293737422E+03  0.91836610832E+02 0.  0.
         23    2    1    2    0    0 -0.57107957745E+02  0.25281161154E+02  0.21946724636E+02  0.11292508637E+03  0.91487488009E+02 0.  0.
        -11    1    4    4    0    0  0.21511657539E+02 -0.95414541807E+01  0.11850038615E+02  0.26347944382E+02  0.00000000000E+00 0.  1.
         11    1    4    4    0    0 -0.78619615284E+02  0.34822615335E+02  0.10096686021E+02  0.86577141988E+02  0.00000000000E+00 0. -1.
        -11    1    3    3    0    0  0.26709574888E+02 -0.44031981874E+02  0.22582071478E+02  0.56233146548E+02  0.00000000000E+00 0.  1.
         11    1    3    3    0    0  0.38414740003E+02  0.38776268800E+02 -0.15364835332E+02  0.56704227676E+02  0.00000000000E+00 0. -1.
          1    1    1    2  501    0 -0.80163571454E+01 -0.20025448080E+02  0.66402593654E+02  0.69818228255E+02  0.00000000000E+00 0. -1.
<scales pt_clust_5="13000.00000" pt_clust_6="13000.00000" pt_clust_7="13000.00000" pt_clust_8="13000.00000" pt_clust_9="21.57036"></scales>
<clustering>
<clus scale="   21.570">  1  9  2 -1</clus>
<clus scale="   91.487">  5  6 -1 -1</clus>
<clus scale="   91.837">  7  8 -1 -1</clus>
<clus scale="  111.127">  1  5  2 -1</clus>
<clus scale="   21.570">  1  5  2 -1</clus>
</clustering>
</event>
<event>
 9    1  0.1426358E-005  0.1523873E+03  0.7546771E-02  0.1198133E+00
         -1   -1    0    0    0  501 -0.00000000000E+00  0.00000000000E+00  0.47049979003E+03  0.47049979003E+03  0.00000000000E+00 0.  1.
         21   -1    0    0  501  502  0.00000000000E+00 -0.00000000000E+00 -0.11886337722E+03  0.11886337722E+03  0.00000000000E+00 0.  1.
         23    2    1    2    0    0 -0.53047867946E+02  0.11094827326E+03  0.23872776402E+03  0.28416687771E+03  0.92931552456E+02 0.  0.
         23    2    1    2    0    0  0.15927633090E+02 -0.12032544138E+03  0.17568352460E+03  0.23166719224E+03  0.89850352298E+02 0.  0.
        -11    1    3    3    0    0 -0.30213105883E+02  0.12356348609E+03  0.18598003258E+03  0.22532052587E+03  0.00000000000E+00 0.  1.
         11    1    3    3    0    0 -0.22834762063E+02 -0.12615212823E+02  0.52747731437E+02  0.58846351839E+02  0.00000000000E+00 0. -1.
        -11    1    4    4    0    0  0.42413169175E+02 -0.72500780435E+02  0.58502424146E+02  0.10236099704E+03  0.00000000000E+00 0. -1.
         11    1    4    4    0    0 -0.26485536085E+02 -0.47824660941E+02  0.11718110045E+03  0.12930619520E+03  0.00000000000E+00 0.  1.
         -1    1    1    2    0  502  0.37120234856E+02  0.93771681136E+01 -0.62774875804E+02  0.73529097300E+02  0.00000000000E+00 0.  1.
<scales pt_clust_5="13000.00000" pt_clust_6="13000.00000" pt_clust_7="13000.00000" pt_clust_8="13000.00000" pt_clust_9="38.28633"></scales>
<clustering>
<clus scale="   38.286">  2  9  1 -1</clus>
<clus scale="   89.850">  7  8 -1 -1</clus>
<clus scale="   92.932">  5  6 -1 -1</clus>
<clus scale="  150.528">  2  7  1 -1</clus>
<clus scale="   38.286">  2  5  1 -1</clus>
</clustering>
</event>
<event>
 9    1  0.1426358E-005  0.1104590E+03  0.7546771E-02  0.1259890E+00
         21   -1    0    0  501  502  0.00000000000E+00  0.00000000000E+00  0.70680708994E+02  0.70680708994E+02  0.00000000000E+00 0. -1.
          2   -1    0    0  502    0 -0.00000000000E+00 -0.00000000000E+00 -0.68632009582E+03  0.68632009582E+03  0.00000000000E+00 0. -1.
         23    2    1    2    0    0  0.36451655340E+02 -0.15374677073E+02 -0.30629011337E+03  0.32173503590E+03  0.90192549062E+02 0.  0.
         23    2    1    2    0    0 -0.10938782436E+03  0.20510109923E+02 -0.32970458066E+03  0.35936849654E+03  0.89745445944E+02 0.  0.
        -11    1    3    3    0    0 -0.14605570447E+02  0.27335514696E+02 -0.11890712689E+03  0.12287985139E+03  0.00000000000E+00 0. -1.
         11    1    3    3    0    0  0.51057225787E+02 -0.42710191770E+02 -0.18738298648E+03  0.19885518451E+03  0.00000000000E+00 0.  1.
        -11    1    4    4    0    0  0.83542537572E+01  0.20571817533E+02 -0.29669440834E+02  0.37057643636E+02  0.00000000000E+00 0.  1.
         11    1    4    4    0    0 -0.11774207812E+03 -0.61707610327E-01 -0.30003513983E+03  0.32231085291E+03  0.00000000000E+00 0. -1.
          2    1    1    2  501    0  0.72936169021E+02 -0.51354328492E+01  0.20355307207E+02  0.75897272372E+02  0.00000000000E+00 0. -1.
<scales pt_clust_5="13000.00000" pt_clust_6="13000.00000" pt_clust_7="13000.00000" pt_clust_8="13000.00000" pt_clust_9="73.11674"></scales>
<clustering>
<clus scale="   73.117">  1  9  2 -1</clus>
<clus scale="   89.745">  7  8 -1 -1</clus>
<clus scale="   90.193">  5  6 -1 -1</clus>
<clus scale="  110.094">  1  7  2 -1</clus>
<clus scale="   73.117">  1  5  2 -1</clus>
</clustering>
</event>
<event>
 9    1  0.1426358E-005  0.1581190E+03  0.7546771E-02  0.1191520E+00
         -1   -1    0    0    0  501 -0.00000000000E+00  0.00000000000E+00  0.65021870219E+03  0.65021870219E+03  0.00000000000E+00 0.  1.
         21   -1    0    0  501  502  0.00000000000E+00 -0.00000000000E+00 -0.92570464991E+02  0.92570464991E+02  0.00000000000E+00 0.  1.
         23    2    1    2    0    0  0.10534061667E+03  0.79386126915E+02  0.48494381412E+03  0.51143051931E+03  0.94825474221E+02 0.  0.
         23    2    1    2    0    0 -0.42841419053E+02 -0.10904247644E+03  0.34002953886E+02  0.15209041661E+03  0.90827556930E+02 0.  0.
        -13    1    3    3    0    0  0.66177240415E+02  0.97427416053E+02  0.32148481387E+03  0.34237992654E+03  0.00000000000E+00 0.  1.
         13    1    3    3    0    0  0.39163376256E+02 -0.18041289138E+02  0.16345900025E+03  0.16905059277E+03  0.00000000000E+00 0. -1.
        -13    1    4    4    0    0  0.16844049974E+02 -0.76347011855E+02  0.30578878544E+02  0.83950318950E+02  0.00000000000E+00 0.  1.
         13    1    4    4    0    0 -0.59685469027E+02 -0.32695464580E+02  0.34240753422E+01  0.68140097660E+02  0.00000000000E+00 0. -1.
         -1    1    1    2    0  502 -0.62499197617E+02  0.29656349521E+02  0.38701469193E+02  0.79268231262E+02  0.00000000000E+00 0.  1.
<scales pt_clust_5="13000.00000" pt_clust_6="13000.00000" pt_clust_7="13000.00000" pt_clust_8="13000.00000" pt_clust_9="69.17838"></scales>
<clustering>
<clus scale="   69.178">  2  9  1 -1</clus>
<clus scale="   90.828">  7  8 -1 -1</clus>
<clus scale="   94.825">  5  6 -1 -1</clus>
<clus scale="  155.754">  2  7  1 -1</clus>
<clus scale="   69.178">  2  5  1 -1</clus>
</clustering>
</event>
<event>
 9    1  0.1426358E-005  0.1987550E+03  0.7546771E-02  0.1151101E+00
         21   -1    0    0  501  502  0.00000000000E+00  0.00000000000E+00  0.37288133919E+03  0.37288133919E+03  0.00000000000E+00 0.  1.
         -3   -1    0    0    0  501 -0.00000000000E+00 -0.00000000000E+00 -0.17513178146E+03  0.17513178146E+03  0.00000000000E+00 0.  1.
         23    2    1    2    0    0  0.29055992390E+02 -0.15176028061E+03  0.45483525287E+02  0.18392463922E+03  0.88792389181E+02 0.  0.
         23    2    1    2    0    0  0.39333619140E+02  0.20947542117E+03  0.69785034076E+02  0.24238683185E+03  0.91947482872E+02 0.  0.
        -11    1    3    3    0    0  0.60212008317E+02 -0.88688060931E+02  0.19643744358E+02  0.10898135065E+03  0.00000000000E+00 0.  1.
         11    1    3    3    0    0 -0.31156015927E+02 -0.63072219677E+02  0.25839780929E+02  0.74943288571E+02  0.00000000000E+00 0. -1.
        -11    1    4    4    0    0  0.22989452419E+02  0.16383768470E+03  0.10457496840E+02  0.16577292026E+03  0.00000000000E+00 0.  1.
         11    1    4    4    0    0  0.16344166721E+02  0.45637736472E+02  0.59327537236E+02  0.76613911600E+02  0.00000000000E+00 0. -1.
         -3    1    1    2    0  502 -0.68389611530E+02 -0.57715140562E+02  0.82480998374E+02  0.12170164957E+03  0.00000000000E+00 0.  1.
<scales pt_clust_5="13000.00000" pt_clust_6="13000.00000" pt_clust_7="13000.00000" pt_clust_8="13000.00000" pt_clust_9="89.48841"></scales>
<clustering>
<clus scale="   88.792">  5  6 -1 -1</clus>
<clus scale="   89.488">  1  9  2 -1</clus>
<clus scale="   91.947">  7  8 -1 -1</clus>
<clus scale="  197.315">  2  5  1 -1</clus>
<clus scale="   89.488">  1  5  2 -1</clus>
</clustering>
</event>
<event>
 9    1  0.1426358E-005  0.1469932E+03  0.7546771E-02  0.1204301E+00
          1   -1    0    0  502    0 -0.00000000000E+00  0.00000000000E+00  0.10836157381E+04  0.10836157381E+04  0.00000000000E+00 0. -1.
         21   -1    0    0  501  502  0.00000000000E+00 -0.00000000000E+00 -0.38322604671E+02  0.38322604671E+02  0.00000000000E+00 0. -1.
         23    2    1    2    0    0  0.38008782631E+01  0.99188090134E+02  0.54338789551E+03  0.55992572422E+03  0.91617071324E+02 0.  0.
         23    2    1    2    0    0 -0.41972143043E+02 -0.15510164420E+03  0.35245409275E+03  0.39794246350E+03  0.91192850276E+02 0.  0.
        -11    1    3    3    0    0  0.44350990313E+02  0.52962072595E+02  0.35806201921E+03  0.36466477904E+03  0.00000000000E+00 0.  1.
         11    1    3    3    0    0 -0.40550112050E+02  0.46226017538E+02  0.18532587630E+03  0.19526094518E+03  0.00000000000E+00 0. -1.
        -13    1    4    4    0    0 -0.57714654225E+02 -0.13698352891E+03  0.23503378118E+03  0.27809413298E+03  0.00000000000E+00 0. -1.
         13    1    4    4    0    0  0.15742511182E+02 -0.18118115290E+02  0.11742031157E+03  0.11984833052E+03  0.00000000000E+00 0.  1.
          1    1    1    2  501    0  0.38171264780E+02  0.55913554066E+02  0.14945114517E+03  0.16407015504E+03  0.00000000000E+00 0. -1.
<scales pt_clust_5="13000.00000" pt_clust_6="13000.00000" pt_clust_7="13000.00000" pt_clust_8="13000.00000" pt_clust_9="67.70060"></scales>
<clustering>
<clus scale="   67.701">  2  9  1 -1</clus>
<clus scale="   91.193">  7  8 -1 -1</clus>
<clus scale="   91.617">  5  6 -1 -1</clus>
<clus scale="  146.729">  2  7  1 -1</clus>
<clus scale="   67.701">  2  5  1 -1</clus>
</clustering>
</event>
<event>
 9    1  0.1426358E-005  0.1372528E+03  0.7546771E-02  0.1217486E+00
         -1   -1    0    0    0  501 -0.00000000000E+00  0.00000000000E+00  0.26449477491E+03  0.26449477491E+03  0.00000000000E+00 0.  1.
         21   -1    0    0  501  502  0.00000000000E+00 -0.00000000000E+00 -0.14814822804E+03  0.14814822804E+03  0.00000000000E+00 0. -1.
         23    2    1    2    0    0  0.87913800715E+02  0.59641484334E+02  0.18068179112E+03  0.22821287993E+03  0.90273284616E+02 0.  0.
         23    2    1    2    0    0 -0.87911588069E+02 -0.23633243804E+02 -0.26405503540E+02  0.13213042302E+03  0.92055529655E+02 0.  0.
        -13    1    3    3    0    0  0.40271437526E+02 -0.21127462815E+02  0.64206404963E+02  0.78680498242E+02  0.00000000000E+00 0.  1.
         13    1    3    3    0    0  0.47642363189E+02  0.80768947148E+02  0.11647538615E+03  0.14953238169E+03  0.00000000000E+00 0. -1.
        -13    1    4    4    0    0  0.37464400510E+01  0.22340536790E+02  0.79184879128E+01  0.23996621595E+02  0.00000000000E+00 0.  1.
         13    1    4    4    0    0 -0.91658028120E+02 -0.45973780594E+02 -0.34323991453E+02  0.10813380142E+03  0.00000000000E+00 0. -1.
         -1    1    1    2    0  502 -0.22126462358E-02 -0.36008240530E+02 -0.37929740699E+02  0.52299700003E+02  0.00000000000E+00 0.  1.
<scales pt_clust_5="13000.00000" pt_clust_6="13000.00000" pt_clust_7="13000.00000" pt_clust_8="13000.00000" pt_clust_9="36.00824"></scales>
<clustering>
<clus scale="   36.008">  2  9  1 -1</clus>
<clus scale="   90.273">  5  6 -1 -1</clus>
<clus scale="   92.056">  7  8 -1 -1</clus>
<clus scale="  136.064">  1  5  2 -1</clus>
<clus scale="   36.008">  2  5  1 -1</clus>
</clustering>
</event>
<event>
 9    1  0.1426358E-005  0.1169832E+03  0.7546771E-02  0.1249461E+00
         21   -1    0    0  501  502  0.00000000000E+00  0.00000000000E+00  0.22187377728E+02  0.22187377728E+02  0.00000000000E+00 0.  1.
          1   -1    0    0  502    0 -0.00000000000E+00 -0.00000000000E+00 -0.11521616198E+04  0.11521616198E+04  0.00000000000E+00 0. -1.
         23    2    1    2    0    0 -0.90808262689E+02  0.30181919854E+02 -0.71721735092E+03  0.72979754848E+03  0.95113849981E+02 0.  0.
         23    2    1    2    0    0  0.26940629037E+02 -0.23752115440E+01 -0.22944222940E+03  0.24844802513E+03  0.91385148885E+02 0.  0.
        -11    1    4    4    0    0  0.50576213415E+02  0.23120192551E+02 -0.17698646263E+03  0.18551739709E+03  0.00000000000E+00 0. -1.
         11    1    4    4    0    0 -0.23635584378E+02 -0.25495404095E+02 -0.52455766769E+02  0.62930628045E+02  0.00000000000E+00 0.  1.
        -13    1    3    3    0    0 -0.88436839834E+02  0.56844584795E+02 -0.62474938306E+03  0.63353308761E+03  0.00000000000E+00 0.  1.
         13    1    3    3    0    0 -0.23714228547E+01 -0.26662664941E+02 -0.92467967851E+02  0.96264460870E+02  0.00000000000E+00 0. -1.
          1    1    1    2  501    0  0.63867633652E+02 -0.27806708310E+02 -0.18331466174E+03  0.19610342389E+03  0.00000000000E+00 0. -1.
<scales pt_clust_5="13000.00000" pt_clust_6="13000.00000" pt_clust_7="13000.00000" pt_clust_8="13000.00000" pt_clust_9="69.65836"></scales>
<clustering>
<clus scale="   69.658">  1  9  2 -1</clus>
<clus scale="   91.385">  5  6 -1 -1</clus>
<clus scale="   95.114">  7  8 -1 -1</clus>
<clus scale="  113.972">  1  5  2 -1</clus>
<clus scale="   69.658">  1  5  2 -1</clus>
</clustering>
</event>
<event>
 9    1  0.1426358E-005  0.1023041E+03  0.7546771E-02  0.1276054E+00
         21   -1    0    0  501  502  0.00000000000E+00  0.00000000000E+00  0.24425709181E+03  0.24425709181E+03  0.00000000000E+00 0.  1.
          3   -1    0    0  502    0 -0.00000000000E+00 -0.00000000000E+00 -0.90837487123E+02  0.90837487123E+02  0.00000000000E+00 0. -1.
         23    2    1    2    0    0  0.29245966475E+02 -0.41854769396E+01 -0.72045338556E+01  0.10002425867E+03  0.95289570485E+02 0.  0.
         23    2    1    2    0    0 -0.41271781513E+02 -0.29039416258E+02  0.51508384242E+02  0.12037611120E+03  0.96388001610E+02 0.  0.
        -11    1    4    4    0    0 -0.62160117283E+02 -0.22972305930E+02  0.66559941629E+02  0.93924612589E+02  0.00000000000E+00 0.  1.
         11    1    4    4    0    0  0.20888335769E+02 -0.60671103281E+01 -0.15051557387E+02  0.26451498610E+02  0.00000000000E+00 0. -1.
        -13    1    3    3    0    0 -0.90908021212E+01  0.31389009796E+02 -0.28687465567E+02  0.43484287966E+02  0.00000000000E+00 0. -1.
         13    1    3    3    0    0  0.38336768596E+02 -0.35574486736E+02  0.21482931712E+02  0.56539970709E+02  0.00000000000E+00 0.  1.
          3    1    1    2  501    0  0.12025815039E+02  0.33224893197E+02  0.10911575430E+03  0.11469420906E+03  0.00000000000E+00 0. -1.
<scales pt_clust_5="13000.00000" pt_clust_6="13000.00000" pt_clust_7="13000.00000" pt_clust_8="13000.00000" pt_clust_9="35.33431"></scales>
<clustering>
<clus scale="   35.334">  1  9  2 -1</clus>
<clus scale="   95.290">  7  8 -1 -1</clus>
<clus scale="   96.388">  5  6 -1 -1</clus>
<clus scale="  101.270">  2  7  1 -1</clus>
<clus scale="   35.334">  1  5  2 -1</clus>
</clustering>
</event>
<event>
 9    1  0.1448439E-005  0.1255822E+03  0.7546771E-02  0.1234609E+00
          2   -1    0    0  502    0 -0.00000000000E+00  0.00000000000E+00  0.73674980690E+03  0.73674980690E+03  0.00000000000E+00 0. -1.
         21   -1    0    0  501  502  0.00000000000E+00 -0.00000000000E+00 -0.63954962708E+02  0.63954962708E+02  0.00000000000E+00 0. -1.
         23    2    1    2    0    0  0.42616672632E+02 -0.81430763856E+02  0.55888829305E+03  0.57367946987E+03  0.91131004348E+02 0.  0.
         23    2    1    2    0    0 -0.62594037916E+02  0.44244515824E+02  0.13551194721E+03  0.17960478407E+03  0.89547751841E+02 0.  0.
        -11    1    3    3    0    0  0.36706320151E+02  0.93605553816E+01  0.14087847640E+03  0.14588255224E+03  0.00000000000E+00 0. -1.
         11    1    3    3    0    0  0.59103524806E+01 -0.90791319238E+02  0.41800981665E+03  0.42779691763E+03  0.00000000000E+00 0.  1.
        -13    1    4    4    0    0 -0.39798977928E+02  0.67962399815E+02  0.66208677344E+02  0.10289040474E+03  0.00000000000E+00 0.  1.
         13    1    4    4    0    0 -0.22795059988E+02 -0.23717883990E+02  0.69303269865E+02  0.76714379322E+02  0.00000000000E+00 0. -1.
          2    1    1    2  501    0  0.19977365284E+02  0.37186248032E+02 -0.21605396074E+02  0.47420515665E+02  0.00000000000E+00 0. -1.
<scales pt_clust_5="13000.00000" pt_clust_6="13000.00000" pt_clust_7="13000.00000" pt_clust_8="13000.00000" pt_clust_9="42.21270"></scales>
<clustering>
<clus scale="   42.213">  2  9  1 -1</clus>
<clus scale="   89.548">  7  8 -1 -1</clus>
<clus scale="   91.131">  5  6 -1 -1</clus>
<clus scale="  124.438">  2  7  1 -1</clus>
<clus scale="   42.213">  2  5  1 -1</clus>
</clustering>
</event>
<event>
 9    1  0.1426358E-005  0.1805003E+03  0.7546771E-02  0.1172065E+00
         -2   -1    0    0    0  501 -0.00000000000E+00  0.00000000000E+00  0.85789459139E+03  0.85789459139E+03  0.00000000000E+00 0.  1.
         21   -1    0    0  501  502  0.00000000000E+00 -0.00000000000E+00 -0.95169012030E+02  0.95169012030E+02  0.00000000000E+00 0.  1.
         23    2    1    2    0    0 -0.81046806713E+02 -0.10685521799E+03  0.30485709002E+03  0.34519160282E+03  0.90734639638E+02 0.  0.
         23    2    1    2    0    0  0.11829469728E+03 -0.64572021173E+02  0.38501233913E+03  0.41791747366E+03  0.90869864018E+02 0.  0.
        -11    1    3    3    0    0 -0.80138873665E+02 -0.36219511551E+02  0.20304928090E+03  0.22127607770E+03  0.00000000000E+00 0. -1.
         11    1    3    3    0    0 -0.90793304851E+00 -0.70635706443E+02  0.10180780912E+03  0.12391552512E+03  0.00000000000E+00 0.  1.
        -13    1    4    4    0    0  0.98611613370E+02 -0.87625702115E+02  0.32271056172E+03  0.34863250079E+03  0.00000000000E+00 0.  1.
         13    1    4    4    0    0  0.19683083915E+02  0.23053680942E+02  0.62301777407E+02  0.69284972869E+02  0.00000000000E+00 0. -1.
         -2    1    1    2    0  502 -0.37247890572E+02  0.17142723917E+03  0.72856150207E+02  0.18995452694E+03  0.00000000000E+00 0.  1.
<scales pt_clust_5="13000.00000" pt_clust_6="13000.00000" pt_clust_7="13000.00000" pt_clust_8="13000.00000" pt_clust_9="155.95837"></scales>
<clustering>
<clus scale="   90.735">  5  6 -1 -1</clus>
<clus scale="   90.870">  7  8 -1 -1</clus>
<clus scale="  161.924">  1  5  2 -1</clus>
<clus scale="  155.958">  2  9  1 -1</clus>
<clus scale="  155.958">  2  5  1 -1</clus>
</clustering>
</event>
<event>
 9    1  0.1426358E-005  0.1231924E+03  0.7546771E-02  0.1239171E+00
          1   -1    0    0  502    0 -0.00000000000E+00  0.00000000000E+00  0.41531444166E+03  0.41531444166E+03  0.00000000000E+00 0. -1.
         21   -1    0    0  501  502  0.00000000000E+00 -0.00000000000E+00 -0.20598492241E+03  0.20598492241E+03  0.00000000000E+00 0. -1.
         23    2    1    2    0    0  0.10622015511E+02 -0.77931259606E+02  0.28411718276E+03  0.30829035539E+03  0.90190139428E+02 0.  0.
         23    2    1    2    0    0 -0.48030886729E+02  0.93905672239E+02  0.76688055977E+02  0.15616673409E+03  0.85917108581E+02 0.  0.
        -11    1    4    4    0    0 -0.11989405289E+02  0.30443193089E+02 -0.17426185089E+02  0.37070281512E+02  0.00000000000E+00 0.  1.
         11    1    4    4    0    0 -0.36041481440E+02  0.63462479150E+02  0.94114241066E+02  0.11909645257E+03  0.00000000000E+00 0. -1.
        -13    1    3    3    0    0 -0.31114070821E+02 -0.62050869026E+02  0.12449018520E+03  0.14253491488E+03  0.00000000000E+00 0.  1.
         13    1    3    3    0    0  0.41736086332E+02 -0.15880390580E+02  0.15962699756E+03  0.16575544051E+03  0.00000000000E+00 0. -1.
          1    1    1    2  501    0  0.37408871219E+02 -0.15974412633E+02 -0.15147571948E+03  0.15684227459E+03  0.00000000000E+00 0. -1.
<scales pt_clust_5="13000.00000" pt_clust_6="13000.00000" pt_clust_7="13000.00000" pt_clust_8="13000.00000" pt_clust_9="40.67684"></scales>
<clustering>
<clus scale="   40.677">  2  9  1 -1</clus>
<clus scale="   85.917">  5  6 -1 -1</clus>
<clus scale="   90.190">  7  8 -1 -1</clus>
<clus scale="  120.099">  2  5  1 -1</clus>
<clus scale="   40.677">  2  5  1 -1</clus>
</clustering>
</event>
<event>
 9    1  0.1426358E-005  0.1022210E+03  0.7546771E-02  0.1282403E+00
          2   -1    0    0  502    0 -0.00000000000E+00  0.00000000000E+00  0.76160348602E+02  0.76160348602E+02  0.00000000000E+00 0. -1.
         21   -1    0    0  501  502  0.00000000000E+00 -0.00000000000E+00 -0.22084431947E+03  0.22084431947E+03  0.00000000000E+00 0. -1.
         23    2    1    2    0    0  0.49930090905E+02 -0.74488654291E+01 -0.34013811941E+02  0.11605951661E+03  0.98814839064E+02 0.  0.
         23    2    1    2    0    0  0.61653465252E+01  0.95667401682E+01 -0.71949982966E+02  0.11275104966E+03  0.86060822306E+02 0.  0.
        -11    1    3    3    0    0 -0.21153066050E+02 -0.28814718768E+02 -0.38963195109E+01  0.35957218006E+02  0.00000000000E+00 0.  1.
         11    1    3    3    0    0  0.71083156955E+02  0.21365853339E+02 -0.30117492430E+02  0.80102298605E+02  0.00000000000E+00 0. -1.
        -13    1    4    4    0    0  0.96726406330E+01  0.46695394748E+02 -0.51621241707E+02  0.70276400469E+02  0.00000000000E+00 0. -1.
         13    1    4    4    0    0 -0.35072941078E+01 -0.37128654580E+02 -0.20328741259E+02  0.42474649193E+02  0.00000000000E+00 0.  1.
          2    1    1    2  501    0 -0.56095437430E+02 -0.21178747392E+01 -0.38720175966E+02  0.68194101803E+02  0.00000000000E+00 0. -1.
<scales pt_clust_5="13000.00000" pt_clust_6="13000.00000" pt_clust_7="13000.00000" pt_clust_8="13000.00000" pt_clust_9="56.13540"></scales>
<clustering>
<clus scale="   56.135">  2  9  1 -1</clus>
<clus scale="   86.061">  7  8 -1 -1</clus>
<clus scale="   89.951">  2  7  1 -1</clus>
<clus scale="   98.815">  5  6 -1 -1</clus>
<clus scale="   56.135">  2  5  1 -1</clus>
</clustering>
</event>
<event>
 9    1  0.1426358E-005  0.1167189E+03  0.7546771E-02  0.1248738E+00
          1   -1    0    0  502    0 -0.00000000000E+00  0.00000000000E+00  0.73566806043E+03  0.73566806043E+03  0.00000000000E+00 0. -1.
         21   -1    0    0  501  502  0.00000000000E+00 -0.00000000000E+00 -0.41749667177E+02  0.41749667177E+02  0.00000000000E+00 0.  1.
         23    2    1    2    0    0 -0.24332212624E+02  0.70177538594E+02  0.54022052211E+03  0.55282296512E+03  0.90873949823E+02 0.  0.
         23    2    1    2    0    0 -0.18779370165E+01 -0.71744775770E+02  0.15991311871E+03  0.19761222222E+03  0.91255385260E+02 0.  0.
        -11    1    4    4    0    0  0.16031330362E+02 -0.88408077954E+02  0.11003848598E+03  0.14206146627E+03  0.00000000000E+00 0.  1.
         11    1    4    4    0    0 -0.17909267378E+02  0.16663302183E+02  0.49874632730E+02  0.55550755959E+02  0.00000000000E+00 0. -1.
        -13    1    3    3    0    0  0.28376411087E+02  0.54878915622E+02  0.25575660093E+03  0.26311281802E+03  0.00000000000E+00 0.  1.
         13    1    3    3    0    0 -0.52708623711E+02  0.15298622971E+02  0.28446392118E+03  0.28971014710E+03  0.00000000000E+00 0. -1.
          1    1    1    2  501    0  0.26210149640E+02  0.15672371767E+01 -0.62152475736E+01  0.26982540261E+02  0.00000000000E+00 0. -1.
<scales pt_clust_5="13000.00000" pt_clust_6="13000.00000" pt_clust_7="13000.00000" pt_clust_8="13000.00000" pt_clust_9="26.25696"></scales>
<clustering>
<clus scale="   26.257">  2  9  1 -1</clus>
<clus scale="   90.874">  7  8 -1 -1</clus>
<clus scale="   91.255">  5  6 -1 -1</clus>
<clus scale="  116.421">  1  7  2 -1</clus>
<clus scale="   26.257">  2  5  1 -1</clus>
</clustering>
</event>
<event>
 9    1  0.1426358E-005  0.1031367E+03  0.7546771E-02  0.1274101E+00
         21   -1    0    0  501  502  0.00000000000E+00  0.00000000000E+00  0.52313273382E+02  0.52313273382E+02  0.00000000000E+00 0.  1.
          1   -1    0    0  502    0 -0.00000000000E+00 -0.00000000000E+00 -0.35017091463E+03  0.35017091463E+03  0.00000000000E+00 0. -1.
         23    2    1    2    0    0  0.12444255131E+02  0.18796668913E+02 -0.21291293149E+03  0.23574294683E+03  0.98664311355E+02 0.  0.
         23    2    1    2    0    0 -0.37762614954E+02 -0.21227045130E+02 -0.90032336411E+02  0.14080265954E+03  0.99211717050E+02 0.  0.
        -13    1    4    4    0    0 -0.69105417489E+02 -0.18053186909E+02 -0.40520318390E+02  0.82118039957E+02  0.00000000000E+00 0. -1.
         13    1    4    4    0    0  0.31342802536E+02 -0.31738582208E+01 -0.49512018021E+02  0.58684619581E+02  0.00000000000E+00 0.  1.
        -13    1    3    3    0    0  0.13770208422E+02 -0.32110033764E+02 -0.30574963356E+02  0.46427376541E+02  0.00000000000E+00 0.  1.
         13    1    3    3    0    0 -0.13259532910E+01  0.50906702677E+02 -0.18233796813E+03  0.18931557028E+03  0.00000000000E+00 0. -1.
          1    1    1    2  501    0  0.25318359823E+02  0.24303762163E+01  0.50876266563E+01  0.25938581643E+02  0.00000000000E+00 0. -1.
<scales pt_clust_5="13000.00000" pt_clust_6="13000.00000" pt_clust_7="13000.00000" pt_clust_8="13000.00000" pt_clust_9="25.43474"></scales>
<clustering>
<clus scale="   25.435">  1  9  2 -1</clus>
<clus scale="   98.664">  7  8 -1 -1</clus>
<clus scale="   99.212">  5  6 -1 -1</clus>
<clus scale="  102.610">  2  7  1 -1</clus>
<clus scale="   25.435">  1  5  2 -1</clus>
</clustering>
</event>
<event>
 9    1  0.1426358E-005  0.1516018E+03  0.7546771E-02  0.1199331E+00
          2   -1    0    0  502    0 -0.00000000000E+00  0.00000000000E+00  0.11916844497E+04  0.11916844497E+04  0.00000000000E+00 0. -1.
         21   -1    0    0  501  502  0.00000000000E+00 -0.00000000000E+00 -0.43233131247E+02  0.43233131247E+02  0.00000000000E+00 0.  1.
         23    2    1    2    0    0  0.85585192701E+02  0.47347961301E+02  0.58213325882E+03  0.59772273783E+03  0.93950442497E+02 0.  0.
         23    2    1    2    0    0 -0.17093604601E+03 -0.50335574524E+02  0.45576390604E+03  0.49749546993E+03  0.89600238064E+02 0.  0.
        -11    1    4    4    0    0 -0.12439991191E+03 -0.49231106554E+02  0.41356181952E+03  0.43466356932E+03  0.00000000000E+00 0. -1.
         11    1    4    4    0    0 -0.46536134101E+02 -0.11044679695E+01  0.42202086525E+02  0.62831900605E+02  0.00000000000E+00 0.  1.
        -11    1    3    3    0    0  0.67839655370E+02 -0.16101652140E+02  0.29512397060E+03  0.30324847908E+03  0.00000000000E+00 0.  1.
         11    1    3    3    0    0  0.17745537331E+02  0.63449613441E+02  0.28700928822E+03  0.29447425875E+03  0.00000000000E+00 0. -1.
          2    1    1    2  501    0  0.85350853311E+02  0.29876132231E+01  0.11055415361E+03  0.13969937320E+03  0.00000000000E+00 0. -1.
<scales pt_clust_5="13000.00000" pt_clust_6="13000.00000" pt_clust_7="13000.00000" pt_clust_8="13000.00000" pt_clust_9="85.40313"></scales>
<clustering>
<clus scale="   85.403">  2  9  1 -1</clus>
<clus scale="   89.600">  5  6 -1 -1</clus>
<clus scale="   93.950">  7  8 -1 -1</clus>
<clus scale="  148.945">  2  5  1 -1</clus>
<clus scale="   85.403">  2  5  1 -1</clus>
</clustering>
</event>
<event>
 9    1  0.1426358E-005  0.1031023E+03  0.7546771E-02  0.1275037E+00
         21   -1    0    0  501  502  0.00000000000E+00  0.00000000000E+00  0.12254988599E+03  0.12254988599E+03  0.00000000000E+00 0. -1.
          1   -1    0    0  502    0 -0.00000000000E+00 -0.00000000000E+00 -0.23655523479E+03  0.23655523479E+03  0.00000000000E+00 0. -1.
         23    2    1    2    0    0 -0.47694754009E+02 -0.50741343063E+00 -0.93627439297E+02  0.13847965963E+03  0.90196849802E+02 0.  0.
         23    2    1    2    0    0  0.35334096422E+02 -0.36512321544E+02 -0.91308508532E+02  0.13966623367E+03  0.92670195333E+02 0.  0.
        -11    1    4    4    0    0  0.47686694807E+02  0.17070622393E+02 -0.41699236134E+02  0.65606808371E+02  0.00000000000E+00 0.  1.
         11    1    4    4    0    0 -0.12352598386E+02 -0.53582943937E+02 -0.49609272398E+02  0.74059425300E+02  0.00000000000E+00 0. -1.
        -13    1    3    3    0    0 -0.19639358319E+02  0.73611536280E+01 -0.10509421224E+03  0.10716661991E+03  0.00000000000E+00 0. -1.
         13    1    3    3    0    0 -0.28055395690E+02 -0.78685670586E+01  0.11466772939E+02  0.31313039720E+02  0.00000000000E+00 0.  1.
          1    1    1    2  501    0  0.12360657588E+02  0.37019734975E+02  0.70930599029E+02  0.80959227468E+02  0.00000000000E+00 0. -1.
<scales pt_clust_5="13000.00000" pt_clust_6="13000.00000" pt_clust_7="13000.00000" pt_clust_8="13000.00000" pt_clust_9="39.02879"></scales>
<clustering>
<clus scale="   39.029">  1  9  2 -1</clus>
<clus scale="   90.197">  7  8 -1 -1</clus>
<clus scale="   92.670">  5  6 -1 -1</clus>
<clus scale="  100.885">  2  7  1 -1</clus>
<clus scale="   39.029">  1  5  2 -1</clus>
</clustering>
</event>
<event>
 9    1  0.1426358E-005  0.1057415E+03  0.7546771E-02  0.1269738E+00
         21   -1    0    0  501  502  0.00000000000E+00  0.00000000000E+00  0.48038252764E+03  0.48038252764E+03  0.00000000000E+00 0. -1.
         -1   -1    0    0    0  501 -0.00000000000E+00 -0.00000000000E+00 -0.36695165315E+02  0.36695165315E+02  0.00000000000E+00 0.  1.
         23    2    1    2    0    0 -0.40178874250E+02 -0.18428302505E+02  0.89423239485E+02  0.13482442074E+03  0.90703717672E+02 0.  0.
         23    2    1    2    0    0  0.66711172902E+02  0.75223369555E+01  0.27946632134E+03  0.30214325995E+03  0.93178101630E+02 0.  0.
        -13    1    3    3    0    0  0.22431614941E+02 -0.29699612351E+02  0.35368611112E+02  0.51343772501E+02  0.00000000000E+00 0. -1.
         13    1    3    3    0    0 -0.62610489191E+02  0.11271309845E+02  0.54054628372E+02  0.83480648241E+02  0.00000000000E+00 0.  1.
        -13    1    4    4    0    0 -0.18462009918E+02 -0.88049706288E+01  0.20161227332E+02  0.28720174190E+02  0.00000000000E+00 0.  1.
         13    1    4    4    0    0  0.85173182820E+02  0.16327307584E+02  0.25930509401E+03  0.27342308576E+03  0.00000000000E+00 0. -1.
         -1    1    1    2    0  502 -0.26532298651E+02  0.10905965550E+02  0.74797801496E+02  0.80110012264E+02  0.00000000000E+00 0.  1.
<scales pt_clust_5="13000.00000" pt_clust_6="13000.00000" pt_clust_7="13000.00000" pt_clust_8="13000.00000" pt_clust_9="28.68629"></scales>
<clustering>
<clus scale="   28.686">  1  9  2 -1</clus>
<clus scale="   90.704">  5  6 -1 -1</clus>
<clus scale="   93.178">  7  8 -1 -1</clus>
<clus scale="  103.568">  2  5  1 -1</clus>
<clus scale="   28.686">  1  5  2 -1</clus>
</clustering>
</event>
<event>
 9    1  0.1426358E-005  0.1072162E+03  0.7546771E-02  0.1266030E+00
          3   -1    0    0  502    0 -0.00000000000E+00  0.00000000000E+00  0.33171972120E+02  0.33171972120E+02  0.00000000000E+00 0. -1.
         21   -1    0    0  501  502  0.00000000000E+00 -0.00000000000E+00 -0.53541843075E+03  0.53541843075E+03  0.00000000000E+00 0. -1.
         23    2    1    2    0    0 -0.56308282091E+02  0.66380320599E+01 -0.11592657100E+03  0.15783715741E+03  0.90878557933E+02 0.  0.
         23    2    1    2    0    0  0.55259422108E+02  0.22807084314E+02 -0.32165020272E+03  0.33968790136E+03  0.91407059895E+02 0.  0.
        -13    1    3    3    0    0 -0.37110795663E+02  0.20002047326E+02 -0.27269122944E+01  0.42246054284E+02  0.00000000000E+00 0. -1.
         13    1    3    3    0    0 -0.19197486428E+02 -0.13364015266E+02 -0.11319965871E+03  0.11559110312E+03  0.00000000000E+00 0.  1.
        -13    1    4    4    0    0  0.59606102883E+02 -0.21920730268E+02 -0.16810655586E+03  0.17970314421E+03  0.00000000000E+00 0. -1.
         13    1    4    4    0    0 -0.43466807749E+01  0.44727814581E+02 -0.15354364686E+03  0.15998475715E+03  0.00000000000E+00 0.  1.
          3    1    1    2  501    0  0.10488599825E+01 -0.29445116374E+02 -0.64669684912E+02  0.71065344100E+02  0.00000000000E+00 0. -1.
<scales pt_clust_5="13000.00000" pt_clust_6="13000.00000" pt_clust_7="13000.00000" pt_clust_8="13000.00000" pt_clust_9="29.46379"></scales>
<clustering>
<clus scale="   29.464">  2  9  1 -1</clus>
<clus scale="   90.879">  5  6 -1 -1</clus>
<clus scale="   91.407">  7  8 -1 -1</clus>
<clus scale="  106.766">  1  5  2 -1</clus>
<clus scale="   29.464">  2  5  1 -1</clus>
</clustering>
</event>
<event>
 9    1  0.1426358E-005  0.9549159E+02  0.7546771E-02  0.1291364E+00
         21   -1    0    0  501  502  0.00000000000E+00  0.00000000000E+00  0.10257550049E+03  0.10257550049E+03  0.00000000000E+00 0. -1.
          2   -1    0    0  502    0 -0.00000000000E+00 -0.00000000000E+00 -0.35052763524E+03  0.35052763524E+03  0.00000000000E+00 0. -1.
         23    2    1    2    0    0  0.20957545125E+02 -0.12661912613E+02 -0.20522679677E+03  0.22552428254E+03  0.90242014452E+02 0.  0.
         23    2    1    2    0    0 -0.27315405296E+02 -0.16412879360E+02 -0.11403355416E+03  0.15030901685E+03  0.92593925804E+02 0.  0.
        -11    1    3    3    0    0  0.40780190654E+02 -0.34708177846E+02 -0.76198980363E+02  0.93134129982E+02  0.00000000000E+00 0. -1.
         11    1    3    3    0    0 -0.19822645529E+02  0.22046265233E+02 -0.12902781641E+03  0.13239015256E+03  0.00000000000E+00 0.  1.
        -13    1    4    4    0    0  0.32922816151E+02 -0.15026136034E+02 -0.30597976326E+02  0.47391272854E+02  0.00000000000E+00 0.  1.
         13    1    4    4    0    0 -0.60238221447E+02 -0.13867433256E+01 -0.83435577836E+02  0.10291774399E+03  0.00000000000E+00 0. -1.
          2    1    1    2  501    0  0.63578601709E+01  0.29074791972E+02  0.71308216179E+02  0.77269836345E+02  0.00000000000E+00 0. -1.
<scales pt_clust_5="13000.00000" pt_clust_6="13000.00000" pt_clust_7="13000.00000" pt_clust_8="13000.00000" pt_clust_9="29.76182"></scales>
<clustering>
<clus scale="   29.762">  1  9  2 -1</clus>
<clus scale="   90.242">  5  6 -1 -1</clus>
<clus scale="   92.594">  7  8 -1 -1</clus>
<clus scale="   93.213">  2  5  1 -1</clus>
<clus scale="   29.762">  1  5  2 -1</clus>
</clustering>
</event>
<event>
 9    1  0.1426358E-005  0.1555557E+03  0.7546771E-02  0.1207483E+00
          1   -1    0    0  502    0 -0.00000000000E+00  0.00000000000E+00  0.38025342881E+02  0.38025342881E+02  0.00000000000E+00 0. -1.
         21   -1    0    0  501  502  0.00000000000E+00 -0.00000000000E+00 -0.14956474925E+04  0.14956474925E+04  0.00000000000E+00 0. -1.
         23    2    1    2    0    0  0.52941541783E+02  0.48122342657E+02 -0.23721427577E+03  0.26389092118E+03  0.90825321042E+02 0.  0.
         23    2    1    2    0    0  0.84728882599E+01 -0.15424630171E+03 -0.37716196348E+03  0.41766825261E+03  0.91279302816E+02 0.  0.
        -11    1    3    3    0    0  0.60785194151E+02  0.38310406537E+01 -0.18605190285E+03  0.19576727831E+03  0.00000000000E+00 0. -1.
         11    1    3    3    0    0 -0.78436523684E+01  0.44291302004E+02 -0.51162372918E+02  0.68123642873E+02  0.00000000000E+00 0.  1.
        -13    1    4    4    0    0  0.93623371138E+01 -0.36666187643E+02 -0.20946410945E+03  0.21285505825E+03  0.00000000000E+00 0.  1.
         13    1    4    4    0    0 -0.88944885390E+00 -0.11758011407E+03 -0.16769785402E+03  0.20481319437E+03  0.00000000000E+00 0. -1.
          1    1    1    2  501    0 -0.61414430043E+02  0.10612395905E+03 -0.84324591037E+03  0.85211366158E+03  0.00000000000E+00 0. -1.
<scales pt_clust_5="13000.00000" pt_clust_6="13000.00000" pt_clust_7="13000.00000" pt_clust_8="13000.00000" pt_clust_9="125.95900"></scales>
<clustering>
<clus scale="   90.825">  5  6 -1 -1</clus>
<clus scale="   91.279">  7  8 -1 -1</clus>
<clus scale="  115.619">  1  5  2 -1</clus>
<clus scale="  125.959">  2  9  1 -1</clus>
<clus scale="  125.959">  2  5  1 -1</clus>
</clustering>
</event>
<event>
 9    1  0.1426358E-005  0.1410374E+03  0.7546771E-02  0.1212413E+00
         21   -1    0    0  501  502  0.00000000000E+00  0.00000000000E+00  0.26518122500E+03  0.26518122500E+03  0.00000000000E+00 0. -1.
          3   -1    0    0  502    0 -0.00000000000E+00 -0.00000000000E+00 -0.19431136185E+03  0.19431136185E+03  0.00000000000E+00 0. -1.
         23    2    1    2    0    0  0.81852297212E+02  0.73713116769E+02 -0.11202141635E+03  0.18053215012E+03  0.88936142060E+02 0.  0.
         23    2    1    2    0    0 -0.10749087280E+03 -0.17398720662E+02  0.15754605810E+03  0.21209469054E+03  0.91139421299E+02 0.  0.
        -11    1    4    4    0    0 -0.33724153427E+02 -0.29453173880E+02  0.12074817283E+03  0.12878248801E+03  0.00000000000E+00 0.  1.
         11    1    4    4    0    0 -0.73766719370E+02  0.12054453219E+02  0.36797885267E+02  0.83312202523E+02  0.00000000000E+00 0. -1.
        -13    1    3    3    0    0  0.61349310364E+02  0.16608592218E+02 -0.13732202541E+02  0.65024277037E+02  0.00000000000E+00 0.  1.
         13    1    3    3    0    0  0.20502986848E+02  0.57104524551E+02 -0.98289213807E+02  0.11550787309E+03  0.00000000000E+00 0. -1.
          3    1    1    2  501    0  0.25638575585E+02 -0.56314396107E+02  0.25345221400E+02  0.66865746199E+02  0.00000000000E+00 0. -1.
<scales pt_clust_5="13000.00000" pt_clust_6="13000.00000" pt_clust_7="13000.00000" pt_clust_8="13000.00000" pt_clust_9="61.87607"></scales>
<clustering>
<clus scale="   61.876">  1  9  2 -1</clus>
<clus scale="   88.936">  7  8 -1 -1</clus>
<clus scale="   91.139">  5  6 -1 -1</clus>
<clus scale="  139.624">  2  7  1 -1</clus>
<clus scale="   61.876">  1  5  2 -1</clus>
</clustering>
</event>
<event>
 9    1  0.1426358E-005  0.1016882E+03  0.7546771E-02  0.1280060E+00
          1   -1    0    0  502    0 -0.00000000000E+00  0.00000000000E+00  0.36835117388E+03  0.36835117388E+03  0.00000000000E+00 0. -1.
         21   -1    0    0  501  502  0.00000000000E+00 -0.00000000000E+00 -0.14657164074E+03  0.14657164074E+03  0.00000000000E+00 0.  1.
         23    2    1    2    0    0 -0.18311341848E+02  0.18607968090E+02  0.28986457293E+03  0.30679110467E+03  0.97045090280E+02 0.  0.
         23    2    1    2    0    0  0.10939134213E+01 -0.82825956485E+02 -0.16212774511E+02  0.12380424242E+03  0.90572074452E+02 0.  0.
        -11    1    4    4    0    0  0.36737983822E+02 -0.78246743972E+02 -0.71203694480E+01  0.86734837629E+02  0.00000000000E+00 0.  1.
         11    1    4    4    0    0 -0.35644070400E+02 -0.45792125129E+01 -0.90924050634E+01  0.37069404794E+02  0.00000000000E+00 0. -1.
        -11    1    3    3    0    0 -0.44502838666E+02  0.44861144697E+02  0.19231649609E+03  0.20243186414E+03  0.00000000000E+00 0. -1.
         11    1    3    3    0    0  0.26191496818E+02 -0.26253176607E+02  0.97548076839E+02  0.10435924052E+03  0.00000000000E+00 0.  1.
          1    1    1    2  501    0  0.17217428427E+02  0.64217988395E+02 -0.51872265278E+02  0.84327467532E+02  0.00000000000E+00 0. -1.
<scales pt_clust_5="13000.00000" pt_clust_6="13000.00000" pt_clust_7="13000.00000" pt_clust_8="13000.00000" pt_clust_9="66.48601"></scales>
<clustering>
<clus scale="   66.486">  2  9  1 -1</clus>
<clus scale="   90.572">  5  6 -1 -1</clus>
<clus scale="   95.530">  2  5  1 -1</clus>
<clus scale="   97.045">  7  8 -1 -1</clus>
<clus scale="   66.486">  2  5  1 -1</clus>
</clustering>
</event>
<event>
 9    1  0.1426358E-005  0.1394282E+03  0.7546771E-02  0.1217273E+00
         21   -1    0    0  501  502  0.00000000000E+00  0.00000000000E+00  0.27437899983E+03  0.27437899983E+03  0.00000000000E+00 0. -1.
         -4   -1    0    0    0  501 -0.00000000000E+00 -0.00000000000E+00 -0.12792366519E+03  0.12792366519E+03  0.00000000000E+00 0.  1.
         23    2    1    2    0    0  0.10011762067E+02  0.79588796257E+02 -0.10147757132E+02  0.13220664742E+03  0.10459927714E+03 0.  0.
         23    2    1    2    0    0 -0.12409544925E+02 -0.11010893186E+03  0.40073251553E+02  0.14961186219E+03  0.92194740299E+02 0.  0.
        -11    1    3    3    0    0  0.49733370616E+02  0.40761132191E+02 -0.32840476115E+02  0.72203704350E+02  0.00000000000E+00 0.  1.
         11    1    3    3    0    0 -0.39721608548E+02  0.38827664066E+02  0.22692718983E+02  0.60002943072E+02  0.00000000000E+00 0. -1.
        -13    1    4    4    0    0 -0.74957545695E+01 -0.20480387753E+02  0.54495527889E+02  0.58697488694E+02  0.00000000000E+00 0.  1.
         13    1    4    4    0    0 -0.49137903552E+01 -0.89628544106E+02 -0.14422276336E+02  0.90914373500E+02  0.00000000000E+00 0. -1.
         -4    1    1    2    0  502  0.23977828574E+01  0.30520135601E+02  0.11652984023E+03  0.12048415540E+03  0.00000000000E+00 0.  1.
<scales pt_clust_5="13000.00000" pt_clust_6="13000.00000" pt_clust_7="13000.00000" pt_clust_8="13000.00000" pt_clust_9="30.61418"></scales>
<clustering>
<clus scale="   30.614">  1  9  2 -1</clus>
<clus scale="   92.195">  7  8 -1 -1</clus>
<clus scale="  104.599">  5  6 -1 -1</clus>
<clus scale="  130.381">  1  7  2 -1</clus>
<clus scale="   30.614">  1  5  2 -1</clus>
</clustering>
</event>
<event>
 9    1  0.1426358E-005  0.1230189E+03  0.7546771E-02  0.1238701E+00
         21   -1    0    0  501  502  0.00000000000E+00  0.00000000000E+00  0.30931347936E+03  0.30931347936E+03  0.00000000000E+00 0.  1.
          1   -1    0    0  502    0 -0.00000000000E+00 -0.00000000000E+00 -0.61455561213E+02  0.61455561213E+02  0.00000000000E+00 0. -1.
         23    2    1    2    0    0  0.69068351560E+02 -0.54537483082E+02  0.10913556002E+03  0.16842938614E+03  0.93344059294E+02 0.  0.
         23    2    1    2    0    0 -0.40853769099E+02  0.62151039765E+02  0.11241967294E+03  0.16302222628E+03  0.91685774269E+02 0.  0.
        -11    1    3    3    0    0  0.43615913520E+02  0.15081382085E+02  0.14820000658E+02  0.48470902790E+02  0.00000000000E+00 0. -1.
         11    1    3    3    0    0  0.25452438040E+02 -0.69618865167E+02  0.94315559360E+02  0.11995848335E+03  0.00000000000E+00 0.  1.
        -13    1    4    4    0    0  0.18101855975E+02  0.28308806719E+02  0.81865150743E+02  0.88492760347E+02  0.00000000000E+00 0.  1.
         13    1    4    4    0    0 -0.58955625073E+02  0.33842233046E+02  0.30554522195E+02  0.74529465930E+02  0.00000000000E+00 0. -1.
          1    1    1    2  501    0 -0.28214582461E+02 -0.76135566830E+01  0.26302685191E+02  0.39317428160E+02  0.00000000000E+00 0. -1.
<scales pt_clust_5="13000.00000" pt_clust_6="13000.00000" pt_clust_7="13000.00000" pt_clust_8="13000.00000" pt_clust_9="29.22377"></scales>
<clustering>
<clus scale="   29.224">  1  9  2 -1</clus>
<clus scale="   91.686">  7  8 -1 -1</clus>
<clus scale="   93.344">  5  6 -1 -1</clus>
<clus scale="  121.765">  1  7  2 -1</clus>
<clus scale="   29.224">  1  5  2 -1</clus>
</clustering>
</event>
<event>
 9    1  0.1426358E-005  0.1235431E+03  0.7546771E-02  0.1237891E+00
          1   -1    0    0  502    0 -0.00000000000E+00  0.00000000000E+00  0.84511635644E+03  0.84511635644E+03  0.00000000000E+00 0. -1.
         21   -1    0    0  501  502  0.00000000000E+00 -0.00000000000E+00 -0.34592066547E+02  0.34592066547E+02  0.00000000000E+00 0.  1.
         23    2    1    2    0    0  0.37936025579E+02  0.76374102314E+02  0.59078938054E+03  0.60393689807E+03  0.91845191228E+02 0.  0.
         23    2    1    2    0    0 -0.41791682266E+02 -0.48129703542E+02  0.94970072704E+02  0.14779153970E+03  0.93594932712E+02 0.  0.
        -11    1    4    4    0    0 -0.63054194865E+02 -0.26846860932E+02  0.95689235246E+02  0.11769883251E+03  0.00000000000E+00 0. -1.
         11    1    4    4    0    0  0.21262512599E+02 -0.21282842610E+02 -0.71916254272E+00  0.30092707195E+02  0.00000000000E+00 0.  1.
        -11    1    3    3    0    0  0.23183063741E+02  0.92943032382E+02  0.54118890705E+03  0.54960103241E+03  0.00000000000E+00 0.  1.
         11    1    3    3    0    0  0.14752961838E+02 -0.16568930069E+02  0.49600473488E+02  0.54335865659E+02  0.00000000000E+00 0. -1.
          1    1    1    2  501    0  0.38556566866E+01 -0.28244398772E+02  0.12476483665E+03  0.12797998521E+03  0.00000000000E+00 0. -1.
<scales pt_clust_5="13000.00000" pt_clust_6="13000.00000" pt_clust_7="13000.00000" pt_clust_8="13000.00000" pt_clust_9="28.50637"></scales>
<clustering>
<clus scale="   28.506">  2  9  1 -1</clus>
<clus scale="   91.845">  7  8 -1 -1</clus>
<clus scale="   93.595">  5  6 -1 -1</clus>
<clus scale="  122.223">  1  7  2 -1</clus>
<clus scale="   28.506">  2  5  1 -1</clus>
</clustering>
</event>
<event>
 9    1  0.1426358E-005  0.1251632E+03  0.7546771E-02  0.1242741E+00
          1   -1    0    0  502    0 -0.00000000000E+00  0.00000000000E+00  0.81469049772E+03  0.81469049772E+03  0.00000000000E+00 0. -1.
         21   -1    0    0  501  502  0.00000000000E+00 -0.00000000000E+00 -0.26674979291E+02  0.26674979291E+02  0.00000000000E+00 0.  1.
         23    2    1    2    0    0 -0.23876239182E+02  0.41681593466E+02  0.43387493280E+03  0.45092243557E+03  0.11303165735E+03 0.  0.
         23    2    1    2    0    0  0.13584525585E+02 -0.58969826819E+02  0.35357468643E+03  0.37031538327E+03  0.91958927766E+02 0.  0.
        -13    1    4    4    0    0 -0.37406498816E+02 -0.31330773465E+02  0.11767634074E+03  0.12739146239E+03  0.00000000000E+00 0. -1.
         13    1    4    4    0    0  0.50991024401E+02 -0.27639053353E+02  0.23589834569E+03  0.24292392088E+03  0.00000000000E+00 0.  1.
        -13    1    3    3    0    0  0.24401058631E+02 -0.27179918733E+02  0.95323888800E+02  0.10208233648E+03  0.00000000000E+00 0.  1.
         13    1    3    3    0    0 -0.48277297813E+02  0.68861512199E+02  0.33855104400E+03  0.34884009910E+03  0.00000000000E+00 0. -1.
          1    1    1    2  501    0  0.10291713597E+02  0.17288233353E+02  0.56589920350E+00  0.20127658163E+02  0.00000000000E+00 0. -1.
<scales pt_clust_5="13000.00000" pt_clust_6="13000.00000" pt_clust_7="13000.00000" pt_clust_8="13000.00000" pt_clust_9="20.11970"></scales>
<clustering>
<clus scale="   20.120">  2  9  1 -1</clus>
<clus scale="   91.959">  5  6 -1 -1</clus>
<clus scale="  106.518">  2  5  1 -1</clus>
<clus scale="  113.032">  7  8 -1 -1</clus>
<clus scale="   20.120">  2  5  1 -1</clus>
</clustering>
</event>
<event>
 9    1  0.1426358E-005  0.1003966E+03  0.7546771E-02  0.1282658E+00
         21   -1    0    0  501  502  0.00000000000E+00  0.00000000000E+00  0.29952554282E+02  0.29952554282E+02  0.00000000000E+00 0. -1.
         -3   -1    0    0    0  501 -0.00000000000E+00 -0.00000000000E+00 -0.72252075159E+03  0.72252075159E+03  0.00000000000E+00 0.  1.
         23    2    1    2    0    0  0.21099820220E+02 -0.21896003672E+02 -0.31548212046E+03  0.32956901029E+03  0.90344489720E+02 0.  0.
         23    2    1    2    0    0  0.40669800103E+02  0.41633710313E+02 -0.15564253726E+03  0.19216135574E+03  0.96509008716E+02 0.  0.
        -13    1    3    3    0    0 -0.29584411691E+02 -0.19204556729E+02 -0.64575550480E+02  0.73580256415E+02  0.00000000000E+00 0.  1.
         13    1    3    3    0    0  0.50684231911E+02 -0.26914469428E+01 -0.25090656998E+03  0.25598875387E+03  0.00000000000E+00 0. -1.
        -13    1    4    4    0    0  0.67532240077E+02  0.17603434087E+02 -0.68187849308E+02  0.97570831373E+02  0.00000000000E+00 0. -1.
         13    1    4    4    0    0 -0.26862439974E+02  0.24030276226E+02 -0.87454687948E+02  0.94590524372E+02  0.00000000000E+00 0.  1.
         -3    1    1    2    0  502 -0.61769620323E+02 -0.19737706641E+02 -0.22144353959E+03  0.23074293984E+03  0.00000000000E+00 0.  1.
<scales pt_clust_5="13000.00000" pt_clust_6="13000.00000" pt_clust_7="13000.00000" pt_clust_8="13000.00000" pt_clust_9="64.84649"></scales>
<clustering>
<clus scale="   64.846">  1  9  2 -1</clus>
<clus scale="   90.344">  5  6 -1 -1</clus>
<clus scale="   94.486">  2  5  1 -1</clus>
<clus scale="   96.509">  7  8 -1 -1</clus>
<clus scale="   64.846">  1  5  2 -1</clus>
</clustering>
</event>
<event>
 9    1  0.1426358E-005  0.1480885E+03  0.7546771E-02  0.1203411E+00
         21   -1    0    0  501  502  0.00000000000E+00  0.00000000000E+00  0.38204679657E+02  0.38204679657E+02  0.00000000000E+00 0. -1.
          1   -1    0    0  502    0 -0.00000000000E+00 -0.00000000000E+00 -0.75177054601E+03  0.75177054601E+03  0.00000000000E+00 0. -1.
         23    2    1    2    0    0  0.82991695379E+02 -0.10511549879E+03 -0.40242297933E+03  0.43379032062E+03  0.91065352276E+02 0.  0.
         23    2    1    2    0    0 -0.58285187750E+02  0.72103985105E+02 -0.23071711734E+03  0.26580528354E+03  0.93946329062E+02 0.  0.
        -11    1    4    4    0    0 -0.43203966014E+02 -0.68207246050E+01 -0.12878841375E+03  0.13601308937E+03  0.00000000000E+00 0.  1.
         11    1    4    4    0    0 -0.15081221737E+02  0.78924709710E+02 -0.10192870359E+03  0.12979219417E+03  0.00000000000E+00 0. -1.
        -13    1    3    3    0    0  0.58408882187E+02 -0.69486919087E+01 -0.11690993801E+03  0.13087328009E+03  0.00000000000E+00 0.  1.
         13    1    3    3    0    0  0.24582813192E+02 -0.98166806877E+02 -0.28551304132E+03  0.30291704053E+03  0.00000000000E+00 0. -1.
          1    1    1    2  501    0 -0.24706507629E+02  0.33011513681E+02 -0.80425769684E+02  0.90379621508E+02  0.00000000000E+00 0. -1.
<scales pt_clust_5="13000.00000" pt_clust_6="13000.00000" pt_clust_7="13000.00000" pt_clust_8="13000.00000" pt_clust_9="41.23314"></scales>
<clustering>
<clus scale="   41.233">  1  9  2 -1</clus>
<clus scale="   91.065">  7  8 -1 -1</clus>
<clus scale="   93.946">  5  6 -1 -1</clus>
<clus scale="  146.278">  2  7  1 -1</clus>
<clus scale="   41.233">  1  5  2 -1</clus>
</clustering>
</event>
<event>
 9    1  0.1426358E-005  0.9460984E+02  0.7546771E-02  0.1294757E+00
          2   -1    0    0  502    0 -0.00000000000E+00  0.00000000000E+00  0.50453792946E+02  0.50453792946E+02  0.00000000000E+00 0. -1.
         21   -1    0    0  501  502  0.00000000000E+00 -0.00000000000E+00 -0.25086852035E+03  0.25086852035E+03  0.00000000000E+00 0.  1.
         23    2    1    2    0    0 -0.19178566489E+02 -0.79756368654E+01 -0.33312871385E+02  0.97031097145E+02  0.88734763296E+02 0.  0.
         23    2    1    2    0    0  0.25534935706E+01 -0.67486161681E+01 -0.14703109182E+03  0.17435741832E+03  0.93436091599E+02 0.  0.
        -11    1    4    4    0    0  0.41818544544E+02 -0.26668298309E+02 -0.81633378339E+02  0.95519617156E+02  0.00000000000E+00 0.  1.
         11    1    4    4    0    0 -0.39265050974E+02  0.19919682141E+02 -0.65397713482E+02  0.78837801169E+02  0.00000000000E+00 0. -1.
        -13    1    3    3    0    0  0.23856882433E+02  0.39305618346E+01 -0.44815018620E+02  0.50921371247E+02  0.00000000000E+00 0.  1.
         13    1    3    3    0    0 -0.43035448922E+02 -0.11906198700E+02  0.11502147235E+02  0.46109725898E+02  0.00000000000E+00 0. -1.
          2    1    1    2  501    0  0.16625072918E+02  0.14724253034E+02 -0.20070764202E+02  0.29933797831E+02  0.00000000000E+00 0. -1.
<scales pt_clust_5="13000.00000" pt_clust_6="13000.00000" pt_clust_7="13000.00000" pt_clust_8="13000.00000" pt_clust_9="22.20803"></scales>
<clustering>
<clus scale="   22.208">  2  9  1 -1</clus>
<clus scale="   88.735">  7  8 -1 -1</clus>
<clus scale="   89.970">  1  7  2 -1</clus>
<clus scale="   93.436">  5  6 -1 -1</clus>
<clus scale="   22.208">  2  5  1 -1</clus>
</clustering>
</event>
<event>
 9    1  0.1426358E-005  0.1423264E+03  0.7546771E-02  0.1210274E+00
          4   -1    0    0  502    0 -0.00000000000E+00  0.00000000000E+00  0.30548867271E+03  0.30548867271E+03  0.00000000000E+00 0. -1.
         21   -1    0    0  501  502  0.00000000000E+00 -0.00000000000E+00 -0.12974442395E+03  0.12974442395E+03  0.00000000000E+00 0. -1.
         23    2    1    2    0    0  0.42592206579E+02 -0.12641391189E+03  0.17809290590E+03  0.24035004344E+03  0.90865213759E+02 0.  0.
         23    2    1    2    0    0 -0.50606165356E+02  0.56518339429E+02  0.21781128026E+02  0.12050657094E+03  0.91061020414E+02 0.  0.
        -11    1    3    3    0    0  0.30003073108E+02 -0.11029018448E+03  0.18608792102E+03  0.21838686668E+03  0.00000000000E+00 0. -1.
         11    1    3    3    0    0  0.12589133471E+02 -0.16123727404E+02 -0.79950151158E+01  0.21963176766E+02  0.00000000000E+00 0.  1.
        -13    1    4    4    0    0 -0.77361802257E+02  0.43746762476E+02  0.16301684943E+02  0.90356917873E+02  0.00000000000E+00 0.  1.
         13    1    4    4    0    0  0.26755636901E+02  0.12771576953E+02  0.54794430833E+01  0.30149653072E+02  0.00000000000E+00 0. -1.
          4    1    1    2  501    0  0.80139587771E+01  0.69895572457E+02 -0.24129785165E+02  0.74376482281E+02  0.00000000000E+00 0. -1.
<scales pt_clust_5="13000.00000" pt_clust_6="13000.00000" pt_clust_7="13000.00000" pt_clust_8="13000.00000" pt_clust_9="70.35350"></scales>
<clustering>
<clus scale="   70.353">  2  9  1 -1</clus>
<clus scale="   90.865">  5  6 -1 -1</clus>
<clus scale="   91.061">  7  8 -1 -1</clus>
<clus scale="  142.201">  1  5  2 -1</clus>
<clus scale="   70.353">  2  5  1 -1</clus>
</clustering>
</event>
<event>
 9    1  0.1426358E-005  0.9347583E+02  0.7546771E-02  0.1295390E+00
         21   -1    0    0  501  502  0.00000000000E+00  0.00000000000E+00  0.25279687054E+03  0.25279687054E+03  0.00000000000E+00 0. -1.
          2   -1    0    0  502    0 -0.00000000000E+00 -0.00000000000E+00 -0.12386998628E+03  0.12386998628E+03  0.00000000000E+00 0. -1.
         23    2    1    2    0    0 -0.17770176656E+02 -0.41807692665E+00 -0.45821102568E+02  0.10180205753E+03  0.89152293916E+02 0.  0.
         23    2    1    2    0    0  0.40447456182E+01  0.73243981515E+02  0.43879070442E+02  0.12446974248E+03  0.90478191707E+02 0.  0.
        -13    1    3    3    0    0 -0.53012939652E+02  0.22300547033E+01 -0.15613327567E+02  0.55309320302E+02  0.00000000000E+00 0. -1.
         13    1    3    3    0    0  0.35242762996E+02 -0.26481316300E+01 -0.30207775000E+02  0.46492737230E+02  0.00000000000E+00 0.  1.
        -13    1    4    4    0    0  0.37878016800E+02  0.39905101556E+02  0.52667398980E+02  0.76164402460E+02  0.00000000000E+00 0. -1.
         13    1    4    4    0    0 -0.33833271182E+02  0.33338879960E+02 -0.87883285379E+01  0.48305340018E+02  0.00000000000E+00 0.  1.
          2    1    1    2  501    0  0.13725431038E+02 -0.72825904589E+02  0.13086891639E+03  0.15039505681E+03  0.00000000000E+00 0. -1.
<scales pt_clust_5="13000.00000" pt_clust_6="13000.00000" pt_clust_7="13000.00000" pt_clust_8="13000.00000" pt_clust_9="74.10803"></scales>
<clustering>
<clus scale="   74.108">  1  9  2 -1</clus>
<clus scale="   89.152">  5  6 -1 -1</clus>
<clus scale="   90.478">  7  8 -1 -1</clus>
<clus scale="   92.193">  2  5  1 -1</clus>
<clus scale="   74.108">  1  5  2 -1</clus>
</clustering>
</event>
<event>
 9    1  0.1426358E-005  0.1205732E+03  0.7546771E-02  0.1242235E+00
          2   -1    0    0  502    0 -0.00000000000E+00  0.00000000000E+00  0.13621352525E+03  0.13621352525E+03  0.00000000000E+00 0. -1.
         21   -1    0    0  501  502  0.00000000000E+00 -0.00000000000E+00 -0.61273298494E+03  0.61273298494E+03  0.00000000000E+00 0.  1.
         23    2    1    2    0    0 -0.10096700521E+03  0.60518949597E+02  0.38187031283E+02  0.15447143334E+03  0.92446173315E+02 0.  0.
         23    2    1    2    0    0  0.26983219236E+02 -0.14924467159E+02 -0.30230143123E+02  0.10226598607E+03  0.92701868990E+02 0.  0.
        -11    1    4    4    0    0  0.41423580634E+02 -0.43682706402E+02 -0.32772357018E+01  0.60289569123E+02  0.00000000000E+00 0.  1.
         11    1    4    4    0    0 -0.14440361398E+02  0.28758239243E+02 -0.26952907421E+02  0.41976416952E+02  0.00000000000E+00 0. -1.
        -13    1    3    3    0    0 -0.35213890957E+02  0.25132314602E+02  0.62438046592E+02  0.75961575917E+02  0.00000000000E+00 0. -1.
         13    1    3    3    0    0 -0.65753114248E+02  0.35386634995E+02 -0.24251015309E+02  0.78509857427E+02  0.00000000000E+00 0.  1.
          2    1    1    2  501    0  0.73983785969E+02 -0.45594482438E+02 -0.48447634785E+03  0.49220909078E+03  0.00000000000E+00 0. -1.
<scales pt_clust_5="13000.00000" pt_clust_6="13000.00000" pt_clust_7="13000.00000" pt_clust_8="13000.00000" pt_clust_9="86.90488"></scales>
<clustering>
<clus scale="   86.905">  2  9  1 -1</clus>
<clus scale="   92.446">  7  8 -1 -1</clus>
<clus scale="   92.702">  5  6 -1 -1</clus>
<clus scale="  120.377">  1  7  2 -1</clus>
<clus scale="   86.905">  2  5  1 -1</clus>
</clustering>
</event>
<event>
 9    1  0.1426358E-005  0.1683272E+03  0.7546771E-02  0.1179781E+00
         -2   -1    0    0    0  501 -0.00000000000E+00  0.00000000000E+00  0.42153417394E+03  0.42153417394E+03  0.00000000000E+00 0.  1.
         21   -1    0    0  501  502  0.00000000000E+00 -0.00000000000E+00 -0.14263150625E+03  0.14263150625E+03  0.00000000000E+00 0.  1.
         23    2    1    2    0    0  0.96521432073E+02  0.10353060490E+03  0.19287474655E+03  0.25614485811E+03  0.91512553657E+02 0.  0.
         23    2    1    2    0    0 -0.16250665277E+03 -0.21461425496E+02  0.37312576105E+02  0.19199244453E+03  0.92735459462E+02 0.  0.
        -11    1    3    3    0    0  0.96810083912E+02  0.45885354925E+02  0.98364849226E+02  0.14544174678E+03  0.00000000000E+00 0. -1.
         11    1    3    3    0    0 -0.28865183898E+00  0.57645249971E+02  0.94509897329E+02  0.11070311133E+03  0.00000000000E+00 0.  1.
        -13    1    4    4    0    0 -0.38140874471E+02  0.24440565436E+01  0.51963756685E+02  0.64505284486E+02  0.00000000000E+00 0. -1.
         13    1    4    4    0    0 -0.12436577830E+03 -0.23905482039E+02 -0.14651180579E+02  0.12748716004E+03  0.00000000000E+00 0.  1.
         -2    1    1    2    0  502  0.65985220693E+02 -0.82069179400E+02  0.48715345034E+02  0.11602837756E+03  0.00000000000E+00 0.  1.
<scales pt_clust_5="13000.00000" pt_clust_6="13000.00000" pt_clust_7="13000.00000" pt_clust_8="13000.00000" pt_clust_9="105.30622"></scales>
<clustering>
<clus scale="   91.513">  5  6 -1 -1</clus>
<clus scale="   92.735">  7  8 -1 -1</clus>
<clus scale="  105.306">  2  9  1 -1</clus>
<clus scale="  167.657">  1  5  2 -1</clus>
<clus scale="  105.306">  2  5  1 -1</clus>
</clustering>
</event>
<event>
 9    1  0.1426358E-005  0.1424196E+03  0.7546771E-02  0.1223051E+00
         21   -1    0    0  501  502  0.00000000000E+00  0.00000000000E+00  0.89332718560E+02  0.89332718560E+02  0.00000000000E+00 0.  1.
          1   -1    0    0  502    0 -0.00000000000E+00 -0.00000000000E+00 -0.54929499826E+03  0.54929499826E+03  0.00000000000E+00 0.  1.
         23    2    1    2    0    0  0.11492255172E+02  0.58633333498E+02 -0.33319824948E+03  0.35037583340E+03  0.90400284559E+02 0.  0.
         23    2    1    2    0    0  0.10089852124E+03 -0.50807790750E+02 -0.81756533644E+02  0.16693164401E+03  0.91761101730E+02 0.  0.
        -11    1    3    3    0    0  0.11619801244E+02 -0.22590088832E+02 -0.55395415885E+02  0.60942464632E+02  0.00000000000E+00 0. -1.
         11    1    3    3    0    0 -0.12754607176E+00  0.81223422330E+02 -0.27780283359E+03  0.28943336877E+03  0.00000000000E+00 0.  1.
        -11    1    4    4    0    0  0.90677761857E+02 -0.71905035418E+01 -0.81499038121E+02  0.12213211310E+03  0.00000000000E+00 0. -1.
         11    1    4    4    0    0  0.10220759382E+02 -0.43617287209E+02 -0.25749552236E+00  0.44799530910E+02  0.00000000000E+00 0.  1.
          1    1    1    2  501    0 -0.11239077641E+03 -0.78255427473E+01 -0.45007496578E+02  0.12132023941E+03  0.00000000000E+00 0.  1.
<scales pt_clust_5="13000.00000" pt_clust_6="13000.00000" pt_clust_7="13000.00000" pt_clust_8="13000.00000" pt_clust_9="108.91855"></scales>
<clustering>
<clus scale="   90.400">  5  6 -1 -1</clus>
<clus scale="   91.761">  7  8 -1 -1</clus>
<clus scale="  108.361">  2  5  1 -1</clus>
<clus scale="  108.919">  1  9  2 -1</clus>
<clus scale="  108.919">  1  5  2 -1</clus>
</clustering>
</event>
<event>
 9    1  0.1426358E-005  0.1446058E+03  0.7546771E-02  0.1208361E+00
          2   -1    0    0  502    0 -0.00000000000E+00  0.00000000000E+00  0.27285362745E+03  0.27285362745E+03  0.00000000000E+00 0. -1.
         21   -1    0    0  501  502  0.00000000000E+00 -0.00000000000E+00 -0.21061912367E+03  0.21061912367E+03  0.00000000000E+00 0. -1.
         23    2    1    2    0    0  0.11112123753E+03  0.76153452090E+02  0.14923902145E+03  0.22090694225E+03  0.91544054498E+02 0.  0.
         23    2    1    2    0    0 -0.75383452083E+02 -0.98580227285E+01  0.27026524132E+02  0.12590801819E+03  0.96656870302E+02 0.  0.
        -13    1    3    3    0    0  0.36082013435E+02  0.77912972445E+01  0.10289918564E+03  0.10931998176E+03  0.00000000000E+00 0. -1.
         13    1    3    3    0    0  0.75039224097E+02  0.68362154845E+02  0.46339835807E+02  0.11158696049E+03  0.00000000000E+00 0.  1.
        -13    1    4    4    0    0 -0.78965695792E+02 -0.35246947933E+02 -0.28696270083E+01  0.86522616752E+02  0.00000000000E+00 0.  1.
         13    1    4    4    0    0  0.35822437083E+01  0.25388925205E+02  0.29896151140E+02  0.39385401433E+02  0.00000000000E+00 0. -1.
          2    1    1    2  501    0 -0.35737785449E+02 -0.66295429361E+02 -0.11403104179E+03  0.13665779069E+03  0.00000000000E+00 0. -1.
<scales pt_clust_5="13000.00000" pt_clust_6="13000.00000" pt_clust_7="13000.00000" pt_clust_8="13000.00000" pt_clust_9="75.31450"></scales>
<clustering>
<clus scale="   75.314">  2  9  1 -1</clus>
<clus scale="   91.544">  5  6 -1 -1</clus>
<clus scale="   96.657">  7  8 -1 -1</clus>
<clus scale="  141.240">  1  5  2 -1</clus>
<clus scale="   75.314">  2  5  1 -1</clus>
</clustering>
</event>
<event>
 9    1  0.1426358E-005  0.1043600E+03  0.7546771E-02  0.1272335E+00
          4   -1    0    0  502    0 -0.00000000000E+00  0.00000000000E+00  0.34263612734E+03  0.34263612734E+03  0.00000000000E+00 0. -1.
         21   -1    0    0  501  502  0.00000000000E+00 -0.00000000000E+00 -0.21534383143E+03  0.21534383143E+03  0.00000000000E+00 0. -1.
         23    2    1    2    0    0  0.24932293239E+02 -0.42584385379E+02  0.30931265081E+03  0.32668611908E+03  0.92814090114E+02 0.  0.
         23    2    1    2    0    0 -0.38709158328E+01  0.13396802419E+02 -0.17029935238E+03  0.19344045785E+03  0.90680113621E+02 0.  0.
        -13    1    4    4    0    0  0.23714827017E+02 -0.93521415599E+01 -0.15034995724E+03  0.15249578753E+03  0.00000000000E+00 0. -1.
         13    1    4    4    0    0 -0.27585742850E+02  0.22748943979E+02 -0.19949395136E+02  0.40944670313E+02  0.00000000000E+00 0.  1.
        -13    1    3    3    0    0 -0.34515594182E+02 -0.25145809839E+02  0.14146133724E+03  0.14776653183E+03  0.00000000000E+00 0.  1.
         13    1    3    3    0    0  0.59447887421E+02 -0.17438575540E+02  0.16785131357E+03  0.17891958725E+03  0.00000000000E+00 0. -1.
          4    1    1    2  501    0 -0.21061377407E+02  0.29187582960E+02 -0.11721002509E+02  0.37853381845E+02  0.00000000000E+00 0. -1.
<scales pt_clust_5="13000.00000" pt_clust_6="13000.00000" pt_clust_7="13000.00000" pt_clust_8="13000.00000" pt_clust_9="35.99301"></scales>
<clustering>
<clus scale="   35.993">  2  9  1 -1</clus>
<clus scale="   90.680">  5  6 -1 -1</clus>
<clus scale="   92.814">  7  8 -1 -1</clus>
<clus scale="  102.467">  2  5  1 -1</clus>
<clus scale="   35.993">  2  5  1 -1</clus>
</clustering>
</event>
<event>
 9    1  0.1426358E-005  0.1380238E+03  0.7546771E-02  0.1239146E+00
          2   -1    0    0  502    0 -0.00000000000E+00  0.00000000000E+00  0.40134659713E+03  0.40134659713E+03  0.00000000000E+00 0.  1.
         21   -1    0    0  501  502  0.00000000000E+00 -0.00000000000E+00 -0.10353343398E+03  0.10353343398E+03  0.00000000000E+00 0.  1.
         23    2    1    2    0    0  0.17571550907E+02 -0.25454522860E+02  0.22852989046E+03  0.24397828185E+03  0.79641691628E+02 0.  0.
         23    2    1    2    0    0 -0.96849740976E+02 -0.42172027338E+02  0.71315921000E+02  0.15667836719E+03  0.91125177312E+02 0.  0.
        -11    1    3    3    0    0 -0.18566316502E+02 -0.13810687387E+02  0.16118089812E+02  0.28199929321E+02  0.00000000000E+00 0. -1.
         11    1    3    3    0    0  0.36137867409E+02 -0.11643835473E+02  0.21241180064E+03  0.21577835252E+03  0.00000000000E+00 0.  1.
        -13    1    4    4    0    0 -0.18753896303E+02 -0.42078793744E+02  0.63133765855E+02  0.78155011998E+02  0.00000000000E+00 0.  1.
         13    1    4    4    0    0 -0.78095844673E+02 -0.93233594544E-01  0.81821551456E+01  0.78523355191E+02  0.00000000000E+00 0. -1.
          2    1    1    2  501    0  0.79278190069E+02  0.67626550198E+02 -0.20326483026E+01  0.10422338208E+03  0.00000000000E+00 0.  1.
<scales pt_clust_5="13000.00000" pt_clust_6="13000.00000" pt_clust_7="13000.00000" pt_clust_8="13000.00000" pt_clust_9="103.66662"></scales>
<clustering>
<clus scale="   79.642">  5  6 -1 -1</clus>
<clus scale="   85.437">  1  5  2 -1</clus>
<clus scale="   91.125">  7  8 -1 -1</clus>
<clus scale="  103.667">  2  9  1 -1</clus>
<clus scale="  103.667">  2  5  1 -1</clus>
</clustering>
</event>
<event>
 9    1  0.1426358E-005  0.1540442E+03  0.7546771E-02  0.1195624E+00
          1   -1    0    0  502    0 -0.00000000000E+00  0.00000000000E+00  0.36008952580E+03  0.36008952580E+03  0.00000000000E+00 0. -1.
         21   -1    0    0  501  502  0.00000000000E+00 -0.00000000000E+00 -0.24001063074E+03  0.24001063074E+03  0.00000000000E+00 0. -1.
         23    2    1    2    0    0 -0.16860868261E-02  0.11656377667E+03  0.19757409853E+03  0.24769621650E+03  0.93438628121E+02 0.  0.
         23    2    1    2    0    0  0.22967572802E+02 -0.13343474838E+03  0.86626741814E+02  0.18582640685E+03  0.93246552800E+02 0.  0.
        -11    1    4    4    0    0 -0.24857715292E+02 -0.25656988668E+01  0.15230251554E+02  0.29265156460E+02  0.00000000000E+00 0. -1.
         11    1    4    4    0    0  0.47825288094E+02 -0.13086904951E+03  0.71396490259E+02  0.15656125039E+03  0.00000000000E+00 0.  1.
        -11    1    3    3    0    0  0.90250861616E+01  0.39276062296E+02  0.15257735894E+03  0.15780973262E+03  0.00000000000E+00 0. -1.
         11    1    3    3    0    0 -0.90267722485E+01  0.77287714374E+02  0.44996739591E+02  0.89886483880E+02  0.00000000000E+00 0.  1.
          1    1    1    2  501    0 -0.22965886715E+02  0.16870971711E+02 -0.16412194529E+03  0.16657753319E+03  0.00000000000E+00 0. -1.
<scales pt_clust_5="13000.00000" pt_clust_6="13000.00000" pt_clust_7="13000.00000" pt_clust_8="13000.00000" pt_clust_9="28.49670"></scales>
<clustering>
<clus scale="   28.497">  2  9  1 -1</clus>
<clus scale="   93.247">  5  6 -1 -1</clus>
<clus scale="   93.439">  7  8 -1 -1</clus>
<clus scale="  153.928">  2  5  1 -1</clus>
<clus scale="   28.497">  2  5  1 -1</clus>
</clustering>
</event>
<event>
 9    1  0.1426358E-005  0.9609357E+02  0.7546771E-02  0.1289512E+00
         -1   -1    0    0    0  501 -0.00000000000E+00  0.00000000000E+00  0.13163034544E+03  0.13163034544E+03  0.00000000000E+00 0.  1.
         21   -1    0    0  501  502  0.00000000000E+00 -0.00000000000E+00 -0.12559860890E+03  0.12559860890E+03  0.00000000000E+00 0. -1.
         23    2    1    2    0    0  0.34979605685E+02 -0.67476195384E+01  0.50184755209E+02  0.11070054893E+03  0.92016295809E+02 0.  0.
         23    2    1    2    0    0 -0.11173185095E+02 -0.29622999209E+02 -0.25785974774E+02  0.99338195930E+02  0.90558260408E+02 0.  0.
        -11    1    4    4    0    0 -0.18428972874E+02  0.21475225232E+02  0.16375749793E+02  0.32695221688E+02  0.00000000000E+00 0.  1.
         11    1    4    4    0    0  0.72557877786E+01 -0.51098224441E+02 -0.42161724567E+02  0.66642974242E+02  0.00000000000E+00 0. -1.
        -13    1    3    3    0    0  0.42419838544E+01 -0.47349034336E+02  0.27830002271E+02  0.55085701466E+02  0.00000000000E+00 0. -1.
         13    1    3    3    0    0  0.30737621831E+02  0.40601414798E+02  0.22354752938E+02  0.55614847462E+02  0.00000000000E+00 0.  1.
         -1    1    1    2    0  502 -0.23806420590E+02  0.36370618748E+02 -0.18367043901E+02  0.47190209483E+02  0.00000000000E+00 0.  1.
<scales pt_clust_5="13000.00000" pt_clust_6="13000.00000" pt_clust_7="13000.00000" pt_clust_8="13000.00000" pt_clust_9="43.46916"></scales>
<clustering>
<clus scale="   43.469">  2  9  1 -1</clus>
<clus scale="   90.558">  5  6 -1 -1</clus>
<clus scale="   92.016">  7  8 -1 -1</clus>
<clus scale="   94.698">  2  5  1 -1</clus>
<clus scale="   43.469">  2  5  1 -1</clus>
</clustering>
</event>
<event>
 9    1  0.1426358E-005  0.1501470E+03  0.7546771E-02  0.1200734E+00
          2   -1    0    0  502    0 -0.00000000000E+00  0.00000000000E+00  0.10257365583E+04  0.10257365583E+04  0.00000000000E+00 0. -1.
         21   -1    0    0  501  502  0.00000000000E+00 -0.00000000000E+00 -0.61133468690E+02  0.61133468690E+02  0.00000000000E+00 0. -1.
         23    2    1    2    0    0 -0.29790788726E+01  0.11737678163E+03  0.81354343795E+03  0.82738028194E+03  0.94440572502E+02 0.  0.
         23    2    1    2    0    0  0.53615217448E+02 -0.10939605867E+03  0.81658605523E+02  0.17320987675E+03  0.92149033386E+02 0.  0.
        -11    1    3    3    0    0 -0.46520911738E+02  0.82687283220E+02  0.52947273458E+03  0.53790590135E+03  0.00000000000E+00 0. -1.
         11    1    3    3    0    0  0.43541832865E+02  0.34689498407E+02  0.28407070336E+03  0.28947438059E+03  0.00000000000E+00 0.  1.
        -13    1    4    4    0    0 -0.16630474149E+02 -0.67420039472E+02  0.49538348825E+02  0.85299955434E+02  0.00000000000E+00 0.  1.
         13    1    4    4    0    0  0.70245691597E+02 -0.41976019195E+02  0.32120256699E+02  0.87909921316E+02  0.00000000000E+00 0. -1.
          2    1    1    2  501    0 -0.50636138576E+02 -0.79807229599E+01  0.69401046135E+02  0.86279868298E+02  0.00000000000E+00 0. -1.
<scales pt_clust_5="13000.00000" pt_clust_6="13000.00000" pt_clust_7="13000.00000" pt_clust_8="13000.00000" pt_clust_9="51.26120"></scales>
<clustering>
<clus scale="   51.261">  2  9  1 -1</clus>
<clus scale="   92.149">  7  8 -1 -1</clus>
<clus scale="   94.441">  5  6 -1 -1</clus>
<clus scale="  148.716">  2  7  1 -1</clus>
<clus scale="   51.261">  2  5  1 -1</clus>
</clustering>
</event>
<event>
 9    1  0.1426358E-005  0.1298761E+03  0.7546771E-02  0.1228572E+00
         -4   -1    0    0    0  501 -0.00000000000E+00  0.00000000000E+00  0.50094682419E+03  0.50094682419E+03  0.00000000000E+00 0.  1.
         21   -1    0    0  501  502  0.00000000000E+00 -0.00000000000E+00 -0.84432148271E+02  0.84432148271E+02  0.00000000000E+00 0.  1.
         23    2    1    2    0    0  0.20228457906E+02  0.63555662557E+02  0.15768158822E+03  0.19587189198E+03  0.95151468988E+02 0.  0.
         23    2    1    2    0    0  0.61367260201E+02 -0.14064675406E+03  0.15602856309E+03  0.23729122099E+03  0.91732006433E+02 0.  0.
        -13    1    4    4    0    0  0.30149531493E+02 -0.78483119919E+02  0.14392760808E+03  0.16668458456E+03  0.00000000000E+00 0. -1.
         13    1    4    4    0    0  0.31217728708E+02 -0.62163634143E+02  0.12100955011E+02  0.70606636429E+02  0.00000000000E+00 0.  1.
        -13    1    3    3    0    0 -0.69463303573E+01 -0.23718579077E+02  0.30691705150E+02  0.39405624775E+02  0.00000000000E+00 0. -1.
         13    1    3    3    0    0  0.27174788263E+02  0.87274241634E+02  0.12698988307E+03  0.15646626720E+03  0.00000000000E+00 0.  1.
         -4    1    1    2    0  502 -0.81595718106E+02  0.77091091506E+02  0.10280452460E+03  0.15221585949E+03  0.00000000000E+00 0.  1.
<scales pt_clust_5="13000.00000" pt_clust_6="13000.00000" pt_clust_7="13000.00000" pt_clust_8="13000.00000" pt_clust_9="112.25372"></scales>
<clustering>
<clus scale="   91.732">  5  6 -1 -1</clus>
<clus scale="   95.151">  7  8 -1 -1</clus>
<clus scale="  112.254">  2  9  1 -1</clus>
<clus scale="  127.392">  2  5  1 -1</clus>
<clus scale="  112.254">  2  5  1 -1</clus>
</clustering>
</event>
<event>
 9    1  0.1426358E-005  0.1451873E+03  0.7546771E-02  0.1207186E+00
          1   -1    0    0  502    0 -0.00000000000E+00  0.00000000000E+00  0.12241254402E+03  0.12241254402E+03  0.00000000000E+00 0. -1.
         21   -1    0    0  501  502  0.00000000000E+00 -0.00000000000E+00 -0.23058182004E+03  0.23058182004E+03  0.00000000000E+00 0. -1.
         23    2    1    2    0    0  0.11061990669E+03 -0.19116785621E+02 -0.18987337586E+02  0.14508815421E+03  0.89932409374E+02 0.  0.
         23    2    1    2    0    0 -0.10073754202E+03  0.51007141981E+02 -0.46295859367E+02  0.15355667684E+03  0.93201746247E+02 0.  0.
        -11    1    4    4    0    0 -0.50574738296E+02 -0.16977474923E+02 -0.43811002218E+02  0.69032186144E+02  0.00000000000E+00 0.  1.
         11    1    4    4    0    0 -0.50162803719E+02  0.67984616904E+02 -0.24848571498E+01  0.84524490697E+02  0.00000000000E+00 0. -1.
        -13    1    3    3    0    0 -0.57114299682E+01  0.20132001021E+02 -0.50370914848E+01  0.21524176825E+02  0.00000000000E+00 0.  1.
         13    1    3    3    0    0  0.11633133666E+03 -0.39248786641E+02 -0.13950246101E+02  0.12356397739E+03  0.00000000000E+00 0. -1.
          1    1    1    2  501    0 -0.98823646756E+01 -0.31890356360E+02 -0.42886079071E+02  0.54349533010E+02  0.00000000000E+00 0. -1.
<scales pt_clust_5="13000.00000" pt_clust_6="13000.00000" pt_clust_7="13000.00000" pt_clust_8="13000.00000" pt_clust_9="33.38646"></scales>
<clustering>
<clus scale="   33.386">  2  9  1 -1</clus>
<clus scale="   89.932">  7  8 -1 -1</clus>
<clus scale="   93.202">  5  6 -1 -1</clus>
<clus scale="  143.110">  1  7  2 -1</clus>
<clus scale="   33.386">  2  5  1 -1</clus>
</clustering>
</event>
<event>
 9    1  0.1426358E-005  0.1604701E+03  0.7546771E-02  0.1188275E+00
          4   -1    0    0  502    0 -0.00000000000E+00  0.00000000000E+00  0.26700920299E+03  0.26700920299E+03  0.00000000000E+00 0. -1.
         21   -1    0    0  501  502  0.00000000000E+00 -0.00000000000E+00 -0.26589112286E+03  0.26589112286E+03  0.00000000000E+00 0.  1.
         23    2    1    2    0    0  0.11148747290E+03 -0.68476306362E+02  0.26272698030E+02  0.16060046768E+03  0.89352081177E+02 0.  0.
         23    2    1    2    0    0 -0.41953336870E+01  0.17325384160E+03  0.54136416623E+02  0.20266199924E+03  0.90036880658E+02 0.  0.
        -11    1    4    4    0    0  0.47732882501E+01  0.13499751094E+03 -0.84298882231E+00  0.13508450271E+03  0.00000000000E+00 0.  1.
         11    1    4    4    0    0 -0.89686219371E+01  0.38256330653E+02  0.54979405445E+02  0.67577496533E+02  0.00000000000E+00 0. -1.
        -13    1    3    3    0    0  0.32262844213E+02  0.18235104405E+02 -0.86677231131E+01  0.38059684357E+02  0.00000000000E+00 0.  1.
         13    1    3    3    0    0  0.79224628686E+02 -0.86711410767E+02  0.34940421143E+02  0.12254078332E+03  0.00000000000E+00 0. -1.
          4    1    1    2  501    0 -0.10729213921E+03 -0.10477753524E+03 -0.79291034519E+02  0.16963785893E+03  0.00000000000E+00 0. -1.
<scales pt_clust_5="13000.00000" pt_clust_6="13000.00000" pt_clust_7="13000.00000" pt_clust_8="13000.00000" pt_clust_9="149.96645"></scales>
<clustering>
<clus scale="   89.352">  7  8 -1 -1</clus>
<clus scale="   90.037">  5  6 -1 -1</clus>
<clus scale="  149.966">  2  9  1 -1</clus>
<clus scale="  160.087">  1  7  2 -1</clus>
<clus scale="  149.966">  2  5  1 -1</clus>
</clustering>
</event>
<event>
 9    1  0.1426358E-005  0.1398695E+03  0.7546771E-02  0.1233004E+00
          1   -1    0    0  502    0 -0.00000000000E+00  0.00000000000E+00  0.41157330158E+03  0.41157330158E+03  0.00000000000E+00 0. -1.
         21   -1    0    0  501  502  0.00000000000E+00 -0.00000000000E+00 -0.10444889878E+03  0.10444889878E+03  0.00000000000E+00 0. -1.
         23    2    1    2    0    0  0.97935564407E+01 -0.15162373293E+02  0.15402877980E+03  0.17997018225E+03  0.91315881326E+02 0.  0.
         23    2    1    2    0    0  0.88718214747E+02 -0.49931321774E+02 -0.73177133593E+01  0.13686819176E+03  0.91188236435E+02 0.  0.
        -13    1    3    3    0    0 -0.39029033458E+02  0.66604746841E+01  0.64121664216E+02  0.75360567921E+02  0.00000000000E+00 0.  1.
         13    1    3    3    0    0  0.48822589898E+02 -0.21822847977E+02  0.89907115581E+02  0.10460961433E+03  0.00000000000E+00 0. -1.
        -13    1    4    4    0    0  0.99362102384E+02 -0.16411763307E+02 -0.11871600079E+02  0.10140566184E+03  0.00000000000E+00 0. -1.
         13    1    4    4    0    0 -0.10643887636E+02 -0.33519558467E+02  0.45538867200E+01  0.35462529917E+02  0.00000000000E+00 0.  1.
          1    1    1    2  501    0 -0.98511771188E+02  0.65093695067E+02  0.16041333636E+03  0.19918382635E+03  0.00000000000E+00 0. -1.
<scales pt_clust_5="13000.00000" pt_clust_6="13000.00000" pt_clust_7="13000.00000" pt_clust_8="13000.00000" pt_clust_9="106.05746"></scales>
<clustering>
<clus scale="   91.188">  7  8 -1 -1</clus>
<clus scale="   91.316">  5  6 -1 -1</clus>
<clus scale="   93.083">  1  5  2 -1</clus>
<clus scale="  106.057">  2  9  1 -1</clus>
<clus scale="  106.057">  2  5  1 -1</clus>
</clustering>
</event>
<event>
 9    1  0.1426358E-005  0.9151284E+02  0.7546771E-02  0.1299942E+00
         21   -1    0    0  501  502  0.00000000000E+00  0.00000000000E+00  0.72856309616E+02  0.72856309616E+02  0.00000000000E+00 0. -1.
         -1   -1    0    0    0  501 -0.00000000000E+00 -0.00000000000E+00 -0.29579704209E+03  0.29579704209E+03  0.00000000000E+00 0.  1.
         23    2    1    2    0    0 -0.19380764775E+01 -0.75190840429E+01 -0.19007350650E+03  0.21098177422E+03  0.91241867675E+02 0.  0.
         23    2    1    2    0    0 -0.19394592947E+02  0.15254037886E+00 -0.68988853986E+02  0.11507908095E+03  0.90041986843E+02 0.  0.
        -11    1    3    3    0    0 -0.19447035610E+02  0.25199630429E+02 -0.21595219196E+02  0.38465075847E+02  0.00000000000E+00 0. -1.
         11    1    3    3    0    0  0.17508959132E+02 -0.32718714472E+02 -0.16847828730E+03  0.17251669838E+03  0.00000000000E+00 0.  1.
        -11    1    4    4    0    0  0.30599549179E+02  0.21788383849E+02 -0.25992337232E+02  0.45680057743E+02  0.00000000000E+00 0.  1.
         11    1    4    4    0    0 -0.49994142126E+02 -0.21635843470E+02 -0.42996516754E+02  0.69399023210E+02  0.00000000000E+00 0. -1.
         -1    1    1    2    0  502  0.21332669424E+02  0.73665436640E+01  0.36121628011E+02  0.42592496528E+02  0.00000000000E+00 0.  1.
<scales pt_clust_5="13000.00000" pt_clust_6="13000.00000" pt_clust_7="13000.00000" pt_clust_8="13000.00000" pt_clust_9="22.56876"></scales>
<clustering>
<clus scale="   22.569">  1  9  2 -1</clus>
<clus scale="   90.042">  7  8 -1 -1</clus>
<clus scale="   90.317">  1  7  2 -1</clus>
<clus scale="   91.242">  5  6 -1 -1</clus>
<clus scale="   22.569">  1  5  2 -1</clus>
</clustering>
</event>
<event>
 9    1  0.1426358E-005  0.1559260E+03  0.7546771E-02  0.1193975E+00
          2   -1    0    0  502    0 -0.00000000000E+00  0.00000000000E+00  0.32961506867E+03  0.32961506867E+03  0.00000000000E+00 0. -1.
         21   -1    0    0  501  502  0.00000000000E+00 -0.00000000000E+00 -0.16198777443E+03  0.16198777443E+03  0.00000000000E+00 0. -1.
         23    2    1    2    0    0 -0.13934288995E+03 -0.17320515236E+02  0.20633475971E+03  0.26569324300E+03  0.91117644179E+02 0.  0.
         23    2    1    2    0    0  0.10244787421E+03  0.74166608106E+01  0.37987309670E+02  0.14022753050E+03  0.87579397264E+02 0.  0.
        -11    1    4    4    0    0  0.49936458362E+01 -0.25743339464E+02  0.25420468439E+02  0.36521996675E+02  0.00000000000E+00 0.  1.
         11    1    4    4    0    0  0.97454228378E+02  0.33160000275E+02  0.12566841232E+02  0.10370553382E+03  0.00000000000E+00 0. -1.
        -13    1    3    3    0    0 -0.11529666103E+03 -0.80241101703E-01  0.20603802851E+03  0.23610378158E+03  0.00000000000E+00 0. -1.
         13    1    3    3    0    0 -0.24046228921E+02 -0.17240274134E+02  0.29673120072E+00  0.29589461417E+02  0.00000000000E+00 0.  1.
          2    1    1    2  501    0  0.36895015736E+02  0.99038544251E+01 -0.76694775143E+02  0.85682069611E+02  0.00000000000E+00 0. -1.
<scales pt_clust_5="13000.00000" pt_clust_6="13000.00000" pt_clust_7="13000.00000" pt_clust_8="13000.00000" pt_clust_9="38.20116"></scales>
<clustering>
<clus scale="   38.201">  2  9  1 -1</clus>
<clus scale="   87.579">  5  6 -1 -1</clus>
<clus scale="   91.118">  7  8 -1 -1</clus>
<clus scale="  153.885">  2  5  1 -1</clus>
<clus scale="   38.201">  2  5  1 -1</clus>
</clustering>
</event>
<event>
 9    1  0.1426358E-005  0.1077872E+03  0.7546771E-02  0.1264882E+00
          2   -1    0    0  502    0 -0.00000000000E+00  0.00000000000E+00  0.49461124439E+03  0.49461124439E+03  0.00000000000E+00 0. -1.
         21   -1    0    0  501  502  0.00000000000E+00 -0.00000000000E+00 -0.41257658711E+02  0.41257658711E+02  0.00000000000E+00 0. -1.
         23    2    1    2    0    0  0.73142569797E+01  0.52707088245E+02  0.27157670896E+03  0.29109345778E+03  0.90277111200E+02 0.  0.
         23    2    1    2    0    0 -0.44652083917E+02 -0.58193770880E+02  0.16818034218E+03  0.20466207151E+03  0.90673107652E+02 0.  0.
        -11    1    4    4    0    0 -0.50246763489E+01 -0.21321964690E+02 -0.56304001267E+01  0.22618022819E+02  0.00000000000E+00 0.  1.
         11    1    4    4    0    0 -0.39627407568E+02 -0.36871806190E+02  0.17381074231E+03  0.18204404869E+03  0.00000000000E+00 0. -1.
        -13    1    3    3    0    0  0.33946789846E+02  0.19464930670E+02  0.41237331146E+02  0.56848795475E+02  0.00000000000E+00 0.  1.
         13    1    3    3    0    0 -0.26632532867E+02  0.33242157575E+02  0.23033937782E+03  0.23424466231E+03  0.00000000000E+00 0. -1.
          2    1    1    2  501    0  0.37337826937E+02  0.54866826348E+01  0.13596534532E+02  0.40113373805E+02  0.00000000000E+00 0. -1.
<scales pt_clust_5="13000.00000" pt_clust_6="13000.00000" pt_clust_7="13000.00000" pt_clust_8="13000.00000" pt_clust_9="37.73880"></scales>
<clustering>
<clus scale="   37.739">  2  9  1 -1</clus>
<clus scale="   90.277">  7  8 -1 -1</clus>
<clus scale="   90.673">  5  6 -1 -1</clus>
<clus scale="  107.454">  1  7  2 -1</clus>
<clus scale="   37.739">  2  5  1 -1</clus>
</clustering>
</event>
<event>
 9    1  0.1426358E-005  0.1016435E+03  0.7546771E-02  0.1279015E+00
         -1   -1    0    0    0  501 -0.00000000000E+00  0.00000000000E+00  0.25942819393E+03  0.25942819393E+03  0.00000000000E+00 0.  1.
         21   -1    0    0  501  502  0.00000000000E+00 -0.00000000000E+00 -0.31224672255E+03  0.31224672255E+03  0.00000000000E+00 0. -1.
         23    2    1    2    0    0 -0.29880792212E+02 -0.29612758892E+02  0.23613616912E+03  0.25546254198E+03  0.87926348468E+02 0.  0.
         23    2    1    2    0    0  0.49027737520E+02  0.19122221776E+02 -0.23191148296E+03  0.25513385753E+03  0.92417373457E+02 0.  0.
        -11    1    4    4    0    0 -0.48802529485E+01  0.45160130291E+02 -0.82563251927E+02  0.94233459055E+02  0.00000000000E+00 0.  1.
         11    1    4    4    0    0  0.53907990469E+02 -0.26037908515E+02 -0.14934823103E+03  0.16090039847E+03  0.00000000000E+00 0. -1.
        -13    1    3    3    0    0  0.23522096236E+02 -0.18079060196E+02  0.15389203931E+03  0.15672556011E+03  0.00000000000E+00 0.  1.
         13    1    3    3    0    0 -0.53402888448E+02 -0.11533698696E+02  0.82244129810E+02  0.98736981867E+02  0.00000000000E+00 0. -1.
         -1    1    1    2    0  502 -0.19146945308E+02  0.10490537116E+02 -0.57043214785E+02  0.61078516982E+02  0.00000000000E+00 0.  1.
<scales pt_clust_5="13000.00000" pt_clust_6="13000.00000" pt_clust_7="13000.00000" pt_clust_8="13000.00000" pt_clust_9="21.83247"></scales>
<clustering>
<clus scale="   21.832">  2  9  1 -1</clus>
<clus scale="   87.926">  7  8 -1 -1</clus>
<clus scale="   92.417">  5  6 -1 -1</clus>
<clus scale="   97.578">  1  7  2 -1</clus>
<clus scale="   21.832">  2  5  1 -1</clus>
</clustering>
</event>
<event>
 9    1  0.1426358E-005  0.1551285E+03  0.7546771E-02  0.1195748E+00
         21   -1    0    0  501  502  0.00000000000E+00  0.00000000000E+00  0.46476289959E+02  0.46476289959E+02  0.00000000000E+00 0.  1.
          4   -1    0    0  502    0 -0.00000000000E+00 -0.00000000000E+00 -0.96386792244E+03  0.96386792244E+03  0.00000000000E+00 0. -1.
         23    2    1    2    0    0  0.10945934365E+03 -0.10512607679E+02 -0.51723650037E+03  0.53653172985E+03  0.90779055861E+02 0.  0.
         23    2    1    2    0    0 -0.15877100557E+03  0.39345677375E+01 -0.38026978508E+03  0.42023695048E+03  0.82281663068E+02 0.  0.
        -11    1    4    4    0    0 -0.66771555870E+01  0.19368374329E+02 -0.88530442686E+02  0.90870003923E+02  0.00000000000E+00 0. -1.
         11    1    4    4    0    0 -0.15209384998E+03 -0.15433806592E+02 -0.29173934239E+03  0.32936694656E+03  0.00000000000E+00 0.  1.
        -13    1    3    3    0    0  0.87851970026E+01 -0.37371234899E+02 -0.13683760495E+03  0.14212079022E+03  0.00000000000E+00 0.  1.
         13    1    3    3    0    0  0.10067414665E+03  0.26858627219E+02 -0.38039889542E+03  0.39441093963E+03  0.00000000000E+00 0. -1.
          4    1    1    2  501    0  0.49311661912E+02  0.65780399416E+01 -0.19885347035E+02  0.53575532071E+02  0.00000000000E+00 0. -1.
<scales pt_clust_5="13000.00000" pt_clust_6="13000.00000" pt_clust_7="13000.00000" pt_clust_8="13000.00000" pt_clust_9="49.74847"></scales>
<clustering>
<clus scale="   49.748">  1  9  2 -1</clus>
<clus scale="   82.282">  5  6 -1 -1</clus>
<clus scale="   90.779">  7  8 -1 -1</clus>
<clus scale="  150.314">  1  5  2 -1</clus>
<clus scale="   49.748">  1  5  2 -1</clus>
</clustering>
</event>
<event>
 9    1  0.1426358E-005  0.9958723E+02  0.7546771E-02  0.1281307E+00
         21   -1    0    0  501  502  0.00000000000E+00  0.00000000000E+00  0.20768718628E+03  0.20768718628E+03  0.00000000000E+00 0. -1.
          3   -1    0    0  502    0 -0.00000000000E+00 -0.00000000000E+00 -0.46506095090E+03  0.46506095090E+03  0.00000000000E+00 0. -1.
         23    2    1    2    0    0 -0.34821283146E+02  0.34082829363E+02 -0.35307976288E+03  0.36803001218E+03  0.91687566705E+02 0.  0.
         23    2    1    2    0    0  0.27710166876E+02  0.38113996605E+02 -0.69326748940E+02  0.12444400788E+03  0.91975990855E+02 0.  0.
        -11    1    3    3    0    0 -0.59614911859E+02  0.16769093214E+01 -0.16166225726E+03  0.17231202849E+03  0.00000000000E+00 0.  1.
         11    1    3    3    0    0  0.24793628713E+02  0.32405920041E+02 -0.19141750563E+03  0.19571798369E+03  0.00000000000E+00 0. -1.
        -13    1    4    4    0    0  0.60346394645E+02  0.12360287240E+02 -0.37852195605E+02  0.72299742457E+02  0.00000000000E+00 0.  1.
         13    1    4    4    0    0 -0.32636227769E+02  0.25753709365E+02 -0.31474553335E+02  0.52144265425E+02  0.00000000000E+00 0. -1.
          3    1    1    2  501    0  0.71111162706E+01 -0.72196825968E+02  0.16503274720E+03  0.18027411712E+03  0.00000000000E+00 0. -1.
<scales pt_clust_5="13000.00000" pt_clust_6="13000.00000" pt_clust_7="13000.00000" pt_clust_8="13000.00000" pt_clust_9="72.54619"></scales>
<clustering>
<clus scale="   72.546">  1  9  2 -1</clus>
<clus scale="   91.688">  5  6 -1 -1</clus>
<clus scale="   91.976">  7  8 -1 -1</clus>
<clus scale="   99.321">  2  5  1 -1</clus>
<clus scale="   72.546">  1  5  2 -1</clus>
</clustering>
</event>
<event>
 9    1  0.1426358E-005  0.9716782E+02  0.7546771E-02  0.1286934E+00
          1   -1    0    0  502    0 -0.00000000000E+00  0.00000000000E+00  0.75250789359E+02  0.75250789359E+02  0.00000000000E+00 0. -1.
         21   -1    0    0  501  502  0.00000000000E+00 -0.00000000000E+00 -0.38236783305E+03  0.38236783305E+03  0.00000000000E+00 0. -1.
         23    2    1    2    0    0  0.29267322592E+02 -0.28749719223E+02  0.16676492826E+02  0.10212182424E+03  0.92019775294E+02 0.  0.
         23    2    1    2    0    0  0.82159565507E+01 -0.92241940978E+01 -0.17831593999E+03  0.20054278758E+03  0.90929904302E+02 0.  0.
        -13    1    4    4    0    0 -0.25250866984E+02  0.30524293972E+02 -0.83560590093E+02  0.92475461732E+02  0.00000000000E+00 0.  1.
         13    1    4    4    0    0  0.33466823535E+02 -0.39748488070E+02 -0.94755349894E+02  0.10806732584E+03  0.00000000000E+00 0. -1.
        -13    1    3    3    0    0  0.60106473530E+02 -0.36118915117E+01  0.39283718123E+01  0.60342903689E+02  0.00000000000E+00 0. -1.
         13    1    3    3    0    0 -0.30839150938E+02 -0.25137827712E+02  0.12748121013E+02  0.41778920547E+02  0.00000000000E+00 0.  1.
          1    1    1    2  501    0 -0.37483279142E+02  0.37973913321E+02 -0.14547759653E+03  0.15495401059E+03  0.00000000000E+00 0. -1.
<scales pt_clust_5="13000.00000" pt_clust_6="13000.00000" pt_clust_7="13000.00000" pt_clust_8="13000.00000" pt_clust_9="53.35742"></scales>
<clustering>
<clus scale="   53.357">  2  9  1 -1</clus>
<clus scale="   90.930">  5  6 -1 -1</clus>
<clus scale="   92.020">  7  8 -1 -1</clus>
<clus scale="   96.136">  2  5  1 -1</clus>
<clus scale="   53.357">  2  5  1 -1</clus>
</clustering>
</event>
<event>
 9    1  0.1426358E-005  0.9544140E+02  0.7546771E-02  0.1290993E+00
         21   -1    0    0  501  502  0.00000000000E+00  0.00000000000E+00  0.25557014218E+02  0.25557014218E+02  0.00000000000E+00 0.  1.
          1   -1    0    0  502    0 -0.00000000000E+00 -0.00000000000E+00 -0.70173808431E+03  0.70173808431E+03  0.00000000000E+00 0. -1.
         23    2    1    2    0    0  0.34824430403E+02  0.10894489545E+02 -0.38848625530E+03  0.40101621984E+03  0.92525710822E+02 0.  0.
         23    2    1    2    0    0 -0.87868998395E+01  0.33533566883E+00 -0.28315355883E+03  0.29756154981E+03  0.91047328273E+02 0.  0.
        -11    1    4    4    0    0  0.40166229756E+02 -0.28074725729E+01 -0.16023288251E+03  0.16521435940E+03  0.00000000000E+00 0.  1.
         11    1    4    4    0    0 -0.48953129595E+02  0.31428082417E+01 -0.12292067632E+03  0.13234719040E+03  0.00000000000E+00 0. -1.
        -13    1    3    3    0    0  0.16896516461E+02 -0.39477315431E+02 -0.22333353002E+03  0.22742430902E+03  0.00000000000E+00 0. -1.
         13    1    3    3    0    0  0.17927913942E+02  0.50371804976E+02 -0.16515272528E+03  0.17359191082E+03  0.00000000000E+00 0.  1.
          1    1    1    2  501    0 -0.26037530564E+02 -0.11229825214E+02 -0.45412559572E+01  0.28717328878E+02  0.00000000000E+00 0. -1.
<scales pt_clust_5="13000.00000" pt_clust_6="13000.00000" pt_clust_7="13000.00000" pt_clust_8="13000.00000" pt_clust_9="28.35599"></scales>
<clustering>
<clus scale="   28.356">  1  9  2 -1</clus>
<clus scale="   91.047">  5  6 -1 -1</clus>
<clus scale="   92.526">  7  8 -1 -1</clus>
<clus scale="   94.009">  1  5  2 -1</clus>
<clus scale="   28.356">  1  5  2 -1</clus>
</clustering>
</event>
<event>
 9    1  0.1426358E-005  0.1059198E+03  0.7546771E-02  0.1269045E+00
         21   -1    0    0  501  502  0.00000000000E+00  0.00000000000E+00  0.16347434670E+03  0.16347434670E+03  0.00000000000E+00 0.  1.
         -1   -1    0    0    0  501 -0.00000000000E+00 -0.00000000000E+00 -0.12726145996E+03  0.12726145996E+03  0.00000000000E+00 0.  1.
         23    2    1    2    0    0 -0.46779844455E+02 -0.24883080416E+02 -0.34002911962E+02  0.10939661366E+03  0.89464515428E+02 0.  0.
         23    2    1    2    0    0  0.57260913676E+02  0.59919543015E+01 -0.31585378796E-01  0.10784482295E+03  0.91190948504E+02 0.  0.
        -11    1    3    3    0    0  0.25470603386E+02  0.46852446390E+01 -0.92298785949E+01  0.27493523111E+02  0.00000000000E+00 0.  1.
         11    1    3    3    0    0 -0.72250447841E+02 -0.29568325055E+02 -0.24773033367E+02  0.81903090552E+02  0.00000000000E+00 0. -1.
        -13    1    4    4    0    0  0.50007368533E+02 -0.36334155857E+02  0.12595510907E+02  0.63083711721E+02  0.00000000000E+00 0. -1.
         13    1    4    4    0    0  0.72535451434E+01  0.42326110158E+02 -0.12627096286E+02  0.44761111234E+02  0.00000000000E+00 0.  1.
         -1    1    1    2    0  502 -0.10481069221E+02  0.18891126114E+02  0.70247384084E+02  0.73494370046E+02  0.00000000000E+00 0.  1.
<scales pt_clust_5="13000.00000" pt_clust_6="13000.00000" pt_clust_7="13000.00000" pt_clust_8="13000.00000" pt_clust_9="21.60388"></scales>
<clustering>
<clus scale="   21.604">  1  9  2 -1</clus>
<clus scale="   89.465">  5  6 -1 -1</clus>
<clus scale="   91.191">  7  8 -1 -1</clus>
<clus scale="  104.437">  2  5  1 -1</clus>
<clus scale="   21.604">  1  5  2 -1</clus>
</clustering>
</event>
<event>
 9    1  0.1426358E-005  0.1249576E+03  0.7546771E-02  0.1235696E+00
         -3   -1    0    0    0  501 -0.00000000000E+00  0.00000000000E+00  0.98553387698E+02  0.98553387698E+02  0.00000000000E+00 0.  1.
         21   -1    0    0  501  502  0.00000000000E+00 -0.00000000000E+00 -0.44010266489E+03  0.44010266489E+03  0.00000000000E+00 0. -1.
         23    2    1    2    0    0  0.91529564247E+02 -0.23668574780E+01  0.29252988544E+02  0.13269287708E+03  0.91478954642E+02 0.  0.
         23    2    1    2    0    0 -0.49041416198E+02  0.22801349620E+02 -0.18411234659E+03  0.21341204697E+03  0.93393702016E+02 0.  0.
        -13    1    4    4    0    0 -0.28621064238E+02 -0.27833312448E+02 -0.30070688105E+02  0.49981045238E+02  0.00000000000E+00 0.  1.
         13    1    4    4    0    0 -0.20420351960E+02  0.50634662069E+02 -0.15404165849E+03  0.16343100173E+03  0.00000000000E+00 0. -1.
        -13    1    3    3    0    0  0.90557937164E+02  0.22962233342E+02 -0.73579124259E+00  0.93426685332E+02  0.00000000000E+00 0.  1.
         13    1    3    3    0    0  0.97162708337E+00 -0.25329090820E+02  0.29988779787E+02  0.39266191744E+02  0.00000000000E+00 0. -1.
         -3    1    1    2    0  502 -0.42488148049E+02 -0.20434492142E+02 -0.18668991914E+03  0.19255112854E+03  0.00000000000E+00 0.  1.
<scales pt_clust_5="13000.00000" pt_clust_6="13000.00000" pt_clust_7="13000.00000" pt_clust_8="13000.00000" pt_clust_9="47.14670"></scales>
<clustering>
<clus scale="   47.147">  2  9  1 -1</clus>
<clus scale="   91.479">  7  8 -1 -1</clus>
<clus scale="   93.394">  5  6 -1 -1</clus>
<clus scale="  123.533">  1  7  2 -1</clus>
<clus scale="   47.147">  2  5  1 -1</clus>
</clustering>
</event>
<event>
 9    1  0.1426358E-005  0.1446043E+03  0.7546771E-02  0.1228239E+00
         -1   -1    0    0    0  501 -0.00000000000E+00  0.00000000000E+00  0.78270361187E+02  0.78270361187E+02  0.00000000000E+00 0.  1.
         21   -1    0    0  501  502  0.00000000000E+00 -0.00000000000E+00 -0.68159744601E+03  0.68159744601E+03  0.00000000000E+00 0.  1.
         23    2    1    2    0    0 -0.18661272844E+02  0.10814380315E+02 -0.57047156293E+01  0.93110646466E+02  0.90398311816E+02 0.  0.
         23    2    1    2    0    0 -0.97951051442E+02 -0.13825097522E+01 -0.13548571490E+03  0.19004164641E+03  0.90350033838E+02 0.  0.
        -13    1    4    4    0    0 -0.10347441700E+03  0.22941557326E+02 -0.12227447474E+03  0.16181568897E+03  0.00000000000E+00 0.  1.
         13    1    4    4    0    0  0.55233655570E+01 -0.24324067079E+02 -0.13211240168E+02  0.28225957434E+02  0.00000000000E+00 0. -1.
        -13    1    3    3    0    0  0.25912140406E+02  0.33225815831E+02  0.38589912944E+01  0.42311767534E+02  0.00000000000E+00 0.  1.
         13    1    3    3    0    0 -0.44573413250E+02 -0.22411435516E+02 -0.95637069237E+01  0.50798878932E+02  0.00000000000E+00 0. -1.
         -1    1    1    2    0  502  0.11661232429E+03 -0.94318705629E+01 -0.46213665429E+03  0.47671551433E+03  0.00000000000E+00 0.  1.
<scales pt_clust_5="13000.00000" pt_clust_6="13000.00000" pt_clust_7="13000.00000" pt_clust_8="13000.00000" pt_clust_9="112.90383"></scales>
<clustering>
<clus scale="   90.350">  5  6 -1 -1</clus>
<clus scale="   90.398">  7  8 -1 -1</clus>
<clus scale="   92.936">  1  7  2 -1</clus>
<clus scale="  112.904">  2  9  1 -1</clus>
<clus scale="  112.904">  2  5  1 -1</clus>
</clustering>
</event>
<event>
 9    1  0.1426358E-005  0.1285056E+03  0.7546771E-02  0.1229812E+00
         21   -1    0    0  501  502  0.00000000000E+00  0.00000000000E+00  0.57298190820E+02  0.57298190820E+02  0.00000000000E+00 0.  1.
          1   -1    0    0  502    0 -0.00000000000E+00 -0.00000000000E+00 -0.52064258889E+03  0.52064258889E+03  0.00000000000E+00 0. -1.
         23    2    1    2    0    0  0.82789684617E+02 -0.30331552517E+02 -0.37194809896E+03  0.39295646776E+03  0.91078330453E+02 0.  0.
         23    2    1    2    0    0 -0.99378847318E+02  0.12249923468E+02 -0.71245554688E+02  0.15323217613E+03  0.91531168575E+02 0.  0.
        -11    1    4    4    0    0 -0.10267563288E+03 -0.10264182838E+02 -0.32296399043E+02  0.10812352393E+03  0.00000000000E+00 0.  1.
         11    1    4    4    0    0  0.32967855626E+01  0.22514106307E+02 -0.38949155645E+02  0.45108652200E+02  0.00000000000E+00 0. -1.
        -11    1    3    3    0    0  0.10175473506E+03 -0.19916562789E+02 -0.28244274934E+03  0.30087306665E+03  0.00000000000E+00 0. -1.
         11    1    3    3    0    0 -0.18965050446E+02 -0.10414989728E+02 -0.89505349619E+02  0.92083401110E+02  0.00000000000E+00 0.  1.
          1    1    1    2  501    0  0.16589162701E+02  0.18081629049E+02 -0.20150744428E+02  0.31752135821E+02  0.00000000000E+00 0. -1.
<scales pt_clust_5="13000.00000" pt_clust_6="13000.00000" pt_clust_7="13000.00000" pt_clust_8="13000.00000" pt_clust_9="24.53866"></scales>
<clustering>
<clus scale="   24.539">  1  9  2 -1</clus>
<clus scale="   91.078">  7  8 -1 -1</clus>
<clus scale="   91.531">  5  6 -1 -1</clus>
<clus scale="  128.183">  2  7  1 -1</clus>
<clus scale="   24.539">  1  5  2 -1</clus>
</clustering>
</event>
<event>
 9    1  0.1426358E-005  0.1074434E+03  0.7546771E-02  0.1266730E+00
         21   -1    0    0  501  502  0.00000000000E+00  0.00000000000E+00  0.85617957921E+02  0.85617957921E+02  0.00000000000E+00 0. -1.
          3   -1    0    0  502    0 -0.00000000000E+00 -0.00000000000E+00 -0.28835275007E+03  0.28835275007E+03  0.00000000000E+00 0. -1.
         23    2    1    2    0    0 -0.41585628165E+02 -0.30349779721E+02 -0.16918793204E+03  0.19880752805E+03  0.90826225630E+02 0.  0.
         23    2    1    2    0    0  0.45117258174E+02  0.55591967960E+02 -0.68278352909E+02  0.13208282397E+03  0.87509456781E+02 0.  0.
        -11    1    4    4    0    0  0.84346493455E+00  0.51044757273E+02 -0.56808173389E+00  0.51054886104E+02  0.00000000000E+00 0.  1.
         11    1    4    4    0    0  0.44273793240E+02  0.45472106864E+01 -0.67710271175E+02  0.81027937870E+02  0.00000000000E+00 0. -1.
        -11    1    3    3    0    0 -0.66179378250E+02 -0.38891280145E+02 -0.10987917094E+03  0.13403609209E+03  0.00000000000E+00 0.  1.
         11    1    3    3    0    0  0.24593750085E+02  0.85415004243E+01 -0.59308761103E+02  0.64771435959E+02  0.00000000000E+00 0. -1.
          3    1    1    2  501    0 -0.35316300088E+01 -0.25242188239E+02  0.34731492804E+02  0.43080355964E+02  0.00000000000E+00 0. -1.
<scales pt_clust_5="13000.00000" pt_clust_6="13000.00000" pt_clust_7="13000.00000" pt_clust_8="13000.00000" pt_clust_9="25.48805"></scales>
<clustering>
<clus scale="   25.488">  1  9  2 -1</clus>
<clus scale="   87.509">  5  6 -1 -1</clus>
<clus scale="   90.826">  7  8 -1 -1</clus>
<clus scale="  104.655">  1  5  2 -1</clus>
<clus scale="   25.488">  1  5  2 -1</clus>
</clustering>
</event>
<event>
 9    1  0.1426358E-005  0.9643785E+02  0.7546771E-02  0.1288914E+00
          1   -1    0    0  502    0 -0.00000000000E+00  0.00000000000E+00  0.63500604742E+03  0.63500604742E+03  0.00000000000E+00 0. -1.
         21   -1    0    0  501  502  0.00000000000E+00 -0.00000000000E+00 -0.20123475613E+02  0.20123475613E+02  0.00000000000E+00 0.  1.
         23    2    1    2    0    0  0.58571421195E+00  0.39369676632E+02  0.35050931070E+03  0.36385991177E+03  0.89369704101E+02 0.  0.
         23    2    1    2    0    0 -0.81536276355E+01 -0.16758977995E+02  0.16859542846E+03  0.19256849560E+03  0.91163929332E+02 0.  0.
        -13    1    4    4    0    0  0.14906098586E+02 -0.48758259846E+02  0.11697802138E+03  0.12760649342E+03  0.00000000000E+00 0. -1.
         13    1    4    4    0    0 -0.23059726222E+02  0.31999281851E+02  0.51617407085E+02  0.64962002175E+02  0.00000000000E+00 0.  1.
        -13    1    3    3    0    0 -0.67500278890E+01 -0.23775246652E+02  0.40864022641E+02  0.47756607671E+02  0.00000000000E+00 0.  1.
         13    1    3    3    0    0  0.73357421010E+01  0.63144923284E+02  0.30964528806E+03  0.31610330410E+03  0.00000000000E+00 0. -1.
          1    1    1    2  501    0  0.75679134236E+01 -0.22610698637E+02  0.95777832645E+02  0.98701115660E+02  0.00000000000E+00 0. -1.
<scales pt_clust_5="13000.00000" pt_clust_6="13000.00000" pt_clust_7="13000.00000" pt_clust_8="13000.00000" pt_clust_9="23.84361"></scales>
<clustering>
<clus scale="   23.844">  2  9  1 -1</clus>
<clus scale="   89.370">  7  8 -1 -1</clus>
<clus scale="   91.164">  5  6 -1 -1</clus>
<clus scale="   94.744">  1  7  2 -1</clus>
<clus scale="   23.844">  2  5  1 -1</clus>
</clustering>
</event>
<event>
 9    1  0.1426358E-005  0.1855471E+03  0.7546771E-02  0.1162949E+00
         21   -1    0    0  501  502  0.00000000000E+00  0.00000000000E+00  0.51105387948E+02  0.51105387948E+02  0.00000000000E+00 0.  1.
          1   -1    0    0  502    0 -0.00000000000E+00 -0.00000000000E+00 -0.78472682130E+03  0.78472682130E+03  0.00000000000E+00 0. -1.
         23    2    1    2    0    0 -0.17935702728E+02  0.17102760316E+03 -0.40639160408E+03  0.45033408912E+03  0.89858363493E+02 0.  0.
         23    2    1    2    0    0 -0.36997187602E+01 -0.15220848321E+03 -0.28623841167E+03  0.33547265604E+03  0.86187959483E+02 0.  0.
        -11    1    3    3    0    0  0.26037766015E+02  0.58096442966E+02 -0.80462352112E+02  0.10260288520E+03  0.00000000000E+00 0.  1.
         11    1    3    3    0    0 -0.43973468743E+02  0.11293116020E+03 -0.32592925196E+03  0.34773120392E+03  0.00000000000E+00 0. -1.
        -13    1    4    4    0    0 -0.12679475879E+02 -0.88967290419E+02 -0.24097251605E+03  0.25718417791E+03  0.00000000000E+00 0. -1.
         13    1    4    4    0    0  0.89797571191E+01 -0.63241192787E+02 -0.45265895616E+02  0.78288478136E+02  0.00000000000E+00 0.  1.
          1    1    1    2  501    0  0.21635421488E+02 -0.18819119956E+02 -0.40991417605E+02  0.50025464077E+02  0.00000000000E+00 0. -1.
<scales pt_clust_5="13000.00000" pt_clust_6="13000.00000" pt_clust_7="13000.00000" pt_clust_8="13000.00000" pt_clust_9="28.67491"></scales>
<clustering>
<clus scale="   28.675">  1  9  2 -1</clus>
<clus scale="   86.188">  7  8 -1 -1</clus>
<clus scale="   89.858">  5  6 -1 -1</clus>
<clus scale="  183.798">  1  7  2 -1</clus>
<clus scale="   28.675">  1  5  2 -1</clus>
</clustering>
</event>
<event>
 9    1  0.1426358E-005  0.1130059E+03  0.7546771E-02  0.1256804E+00
         21   -1    0    0  501  502  0.00000000000E+00  0.00000000000E+00  0.16115464916E+03  0.16115464916E+03  0.00000000000E+00 0. -1.
         -1   -1    0    0    0  501 -0.00000000000E+00 -0.00000000000E+00 -0.14259216252E+03  0.14259216252E+03  0.00000000000E+00 0.  1.
         23    2    1    2    0    0  0.19322722457E+02  0.53405692111E+02 -0.62516571217E+02  0.12226782748E+03  0.88405680857E+02 0.  0.
         23    2    1    2    0    0 -0.22153488627E+02 -0.85189952027E+02  0.51643643079E+02  0.13806589793E+03  0.92989361312E+02 0.  0.
        -13    1    3    3    0    0 -0.32725369682E+02  0.25375680922E+02 -0.86794829831E+01  0.42310854729E+02  0.00000000000E+00 0. -1.
         13    1    3    3    0    0  0.52048092139E+02  0.28030011189E+02 -0.53837088233E+02  0.79956972754E+02  0.00000000000E+00 0.  1.
        -13    1    4    4    0    0 -0.47847917855E+02 -0.30407451267E+02 -0.26709784203E+01  0.56755356235E+02  0.00000000000E+00 0.  1.
         13    1    4    4    0    0  0.25694429228E+02 -0.54782500760E+02  0.54314621499E+02  0.81310541699E+02  0.00000000000E+00 0. -1.
         -1    1    1    2    0  502  0.28307661700E+01  0.31784259916E+02  0.29435414779E+02  0.43413086261E+02  0.00000000000E+00 0.  1.
<scales pt_clust_5="13000.00000" pt_clust_6="13000.00000" pt_clust_7="13000.00000" pt_clust_8="13000.00000" pt_clust_9="31.91007"></scales>
<clustering>
<clus scale="   31.910">  1  9  2 -1</clus>
<clus scale="   88.406">  5  6 -1 -1</clus>
<clus scale="   92.989">  7  8 -1 -1</clus>
<clus scale="  109.265">  2  5  1 -1</clus>
<clus scale="   31.910">  1  5  2 -1</clus>
</clustering>
</event>
<event>
 9    1  0.1426358E-005  0.1105639E+03  0.7546771E-02  0.1260583E+00
         21   -1    0    0  501  502  0.00000000000E+00  0.00000000000E+00  0.26801238921E+03  0.26801238921E+03  0.00000000000E+00 0.  1.
          3   -1    0    0  502    0 -0.00000000000E+00 -0.00000000000E+00 -0.12427667900E+03  0.12427667900E+03  0.00000000000E+00 0. -1.
         23    2    1    2    0    0 -0.66950024204E+02 -0.82154577908E+01  0.50984782676E+01  0.11080294569E+03  0.87758183690E+02 0.  0.
         23    2    1    2    0    0  0.21825020307E+02  0.85321720078E+02  0.12514376901E+02  0.12692669634E+03  0.90540870248E+02 0.  0.
        -11    1    4    4    0    0  0.35155978771E+02  0.42301132222E+02 -0.31973191236E+02  0.63620858124E+02  0.00000000000E+00 0. -1.
         11    1    4    4    0    0 -0.13330958465E+02  0.43020587856E+02  0.44487568136E+02  0.63305838212E+02  0.00000000000E+00 0.  1.
        -11    1    3    3    0    0  0.12026541690E+02 -0.19615613975E+02  0.18958162431E+02  0.29813116902E+02  0.00000000000E+00 0. -1.
         11    1    3    3    0    0 -0.78976565894E+02  0.11400156185E+02 -0.13859684164E+02  0.80989828784E+02  0.00000000000E+00 0.  1.
          3    1    1    2  501    0  0.45125003897E+02 -0.77106262288E+02  0.12612285504E+03  0.15455942619E+03  0.00000000000E+00 0. -1.
<scales pt_clust_5="13000.00000" pt_clust_6="13000.00000" pt_clust_7="13000.00000" pt_clust_8="13000.00000" pt_clust_9="89.34003"></scales>
<clustering>
<clus scale="   87.758">  7  8 -1 -1</clus>
<clus scale="   89.340">  1  9  2 -1</clus>
<clus scale="   90.541">  5  6 -1 -1</clus>
<clus scale="  108.297">  2  7  1 -1</clus>
<clus scale="   89.340">  1  5  2 -1</clus>
</clustering>
</event>
<event>
 9    1  0.1426358E-005  0.1325766E+03  0.7546771E-02  0.1225409E+00
         21   -1    0    0  501  502  0.00000000000E+00  0.00000000000E+00  0.21113514550E+03  0.21113514550E+03  0.00000000000E+00 0. -1.
         -4   -1    0    0    0  501 -0.00000000000E+00 -0.00000000000E+00 -0.17560219196E+03  0.17560219196E+03  0.00000000000E+00 0.  1.
         23    2    1    2    0    0  0.94977524202E+02  0.16217276314E+02 -0.91576407203E+02  0.16272232559E+03  0.93854071481E+02 0.  0.
         23    2    1    2    0    0 -0.77552970865E+02 -0.49550418160E+02  0.46355199701E+02  0.13493107432E+03  0.87108455663E+02 0.  0.
        -11    1    3    3    0    0  0.70540777441E+01 -0.32167082549E+02 -0.32500020053E+02  0.46268050705E+02  0.00000000000E+00 0. -1.
         11    1    3    3    0    0  0.87923446458E+02  0.48384358864E+02 -0.59076387150E+02  0.11645427488E+03  0.00000000000E+00 0.  1.
        -13    1    4    4    0    0 -0.14057374002E+02 -0.55215730089E+02  0.42471836729E+02  0.71065065456E+02  0.00000000000E+00 0.  1.
         13    1    4    4    0    0 -0.63495596863E+02  0.56653119297E+01  0.38833629722E+01  0.63866008864E+02  0.00000000000E+00 0. -1.
         -4    1    1    2    0  502 -0.17424553337E+02  0.33333141845E+02  0.80754161037E+02  0.89083937548E+02  0.00000000000E+00 0.  1.
<scales pt_clust_5="13000.00000" pt_clust_6="13000.00000" pt_clust_7="13000.00000" pt_clust_8="13000.00000" pt_clust_9="37.61268"></scales>
<clustering>
<clus scale="   37.613">  1  9  2 -1</clus>
<clus scale="   87.108">  7  8 -1 -1</clus>
<clus scale="   93.854">  5  6 -1 -1</clus>
<clus scale="  127.890">  1  7  2 -1</clus>
<clus scale="   37.613">  1  5  2 -1</clus>
</clustering>
</event>
<event>
 9    1  0.1426358E-005  0.1036534E+03  0.7546771E-02  0.1273988E+00
          3   -1    0    0  502    0 -0.00000000000E+00  0.00000000000E+00  0.32767621645E+03  0.32767621645E+03  0.00000000000E+00 0. -1.
         21   -1    0    0  501  502  0.00000000000E+00 -0.00000000000E+00 -0.51036050965E+02  0.51036050965E+02  0.00000000000E+00 0.  1.
         23    2    1    2    0    0  0.37721362912E+02  0.32808654594E+02  0.16884081108E+03  0.19795964762E+03  0.90451608957E+02 0.  0.
         23    2    1    2    0    0 -0.53204371359E+01 -0.46510761808E+02  0.10063354164E+03  0.14485113506E+03  0.93076224731E+02 0.  0.
        -13    1    4    4    0    0  0.11279579161E+02  0.20560614684E+02  0.83284936371E+00  0.23466176090E+02  0.00000000000E+00 0.  1.
         13    1    4    4    0    0 -0.16600016297E+02 -0.67071376492E+02  0.99800692280E+02  0.12138495897E+03  0.00000000000E+00 0. -1.
        -13    1    3    3    0    0  0.20061132398E+01  0.58697307269E+02  0.86628651461E+02  0.10466098425E+03  0.00000000000E+00 0. -1.
         13    1    3    3    0    0  0.35715249672E+02 -0.25888652675E+02  0.82212159622E+02  0.93298663368E+02  0.00000000000E+00 0.  1.
          3    1    1    2  501    0 -0.32400925776E+02  0.13702107215E+02  0.71658127562E+01  0.35901484729E+02  0.00000000000E+00 0. -1.
<scales pt_clust_5="13000.00000" pt_clust_6="13000.00000" pt_clust_7="13000.00000" pt_clust_8="13000.00000" pt_clust_9="35.17908"></scales>
<clustering>
<clus scale="   35.179">  2  9  1 -1</clus>
<clus scale="   90.452">  7  8 -1 -1</clus>
<clus scale="   93.076">  5  6 -1 -1</clus>
<clus scale="  101.303">  1  7  2 -1</clus>
<clus scale="   35.179">  2  5  1 -1</clus>
</clustering>
</event>
<event>
 9    1  0.1426358E-005  0.1825154E+03  0.7546771E-02  0.1194948E+00
         21   -1    0    0  501  502  0.00000000000E+00  0.00000000000E+00  0.27843253607E+03  0.27843253607E+03  0.00000000000E+00 0. -1.
          2   -1    0    0  502    0 -0.00000000000E+00 -0.00000000000E+00 -0.25797787835E+03  0.25797787835E+03  0.00000000000E+00 0. -1.
         23    2    1    2    0    0 -0.22854007839E+02  0.15387696989E+02 -0.49277888927E+02  0.10606746244E+03  0.89793704451E+02 0.  0.
         23    2    1    2    0    0 -0.11899757498E+03 -0.90245083875E+02 -0.96101515284E+02  0.19963439988E+03  0.91180010748E+02 0.  0.
        -11    1    4    4    0    0 -0.19220191320E+02  0.16205496763E+02 -0.30876940519E+02  0.39817324565E+02  0.00000000000E+00 0.  1.
         11    1    4    4    0    0 -0.99777383658E+02 -0.10645058064E+03 -0.65224574764E+02  0.15981707531E+03  0.00000000000E+00 0. -1.
        -11    1    3    3    0    0 -0.46095967605E+02 -0.19810418583E+02 -0.36332488745E+02  0.61946272303E+02  0.00000000000E+00 0. -1.
         11    1    3    3    0    0  0.23241959765E+02  0.35198115572E+02 -0.12945400182E+02  0.44121190140E+02  0.00000000000E+00 0.  1.
          2    1    1    2  501    0  0.14185158282E+03  0.74857386886E+02  0.16583406193E+03  0.23070855211E+03  0.00000000000E+00 0. -1.
<scales pt_clust_5="13000.00000" pt_clust_6="13000.00000" pt_clust_7="13000.00000" pt_clust_8="13000.00000" pt_clust_9="158.10781"></scales>
<clustering>
<clus scale="   89.794">  7  8 -1 -1</clus>
<clus scale="   91.180">  5  6 -1 -1</clus>
<clus scale="   93.925">  2  7  1 -1</clus>
<clus scale="  158.108">  1  9  2 -1</clus>
<clus scale="  158.108">  1  5  2 -1</clus>
</clustering>
</event>
<event>
 9    1  0.1426358E-005  0.9778733E+02  0.7546771E-02  0.1285087E+00
         21   -1    0    0  501  502  0.00000000000E+00  0.00000000000E+00  0.70832596737E+02  0.70832596737E+02  0.00000000000E+00 0. -1.
         -1   -1    0    0    0  501 -0.00000000000E+00 -0.00000000000E+00 -0.18480647036E+03  0.18480647036E+03  0.00000000000E+00 0.  1.
         23    2    1    2    0    0 -0.29822615821E+00  0.40144039549E+02 -0.93512190995E+02  0.13648922226E+03  0.90956830849E+02 0.  0.
         23    2    1    2    0    0  0.15292321006E+02 -0.26149524408E+02 -0.22311942150E+02  0.98556331425E+02  0.91092672553E+02 0.  0.
        -11    1    3    3    0    0 -0.28653977055E+02  0.49426919848E+02 -0.89784746107E+02  0.10642072843E+03  0.00000000000E+00 0.  1.
         11    1    3    3    0    0  0.28355750897E+02 -0.92828802995E+01 -0.37274448878E+01  0.30068493826E+02  0.00000000000E+00 0. -1.
        -13    1    4    4    0    0  0.33313462502E+02  0.22931214582E+02 -0.22481533108E+02  0.46271446022E+02  0.00000000000E+00 0.  1.
         13    1    4    4    0    0 -0.18021141495E+02 -0.49080738989E+02  0.16959095773E+00  0.52284885403E+02  0.00000000000E+00 0. -1.
         -1    1    1    2    0  502 -0.14994094848E+02 -0.13994515141E+02  0.18502595237E+01  0.20593513412E+02  0.00000000000E+00 0.  1.
<scales pt_clust_5="13000.00000" pt_clust_6="13000.00000" pt_clust_7="13000.00000" pt_clust_8="13000.00000" pt_clust_9="20.51023"></scales>
<clustering>
<clus scale="   20.510">  1  9  2 -1</clus>
<clus scale="   90.957">  5  6 -1 -1</clus>
<clus scale="   91.093">  7  8 -1 -1</clus>
<clus scale="   97.661">  2  5  1 -1</clus>
<clus scale="   20.510">  1  5  2 -1</clus>
</clustering>
</event>
<event>
 9    1  0.1426358E-005  0.1717535E+03  0.7546771E-02  0.1176571E+00
         21   -1    0    0  501  502  0.00000000000E+00  0.00000000000E+00  0.42725545310E+03  0.42725545310E+03  0.00000000000E+00 0. -1.
          2   -1    0    0  502    0 -0.00000000000E+00 -0.00000000000E+00 -0.20267343380E+03  0.20267343380E+03  0.00000000000E+00 0. -1.
         23    2    1    2    0    0 -0.95549449907E+02  0.39800074012E+02  0.14770553984E+02  0.13775500838E+03  0.89691302817E+02 0.  0.
         23    2    1    2    0    0  0.17146903189E+03 -0.75246938052E+02 -0.53326631534E+02  0.21601826820E+03  0.93575808760E+02 0.  0.
        -11    1    3    3    0    0  0.97695474917E+00  0.20784940197E+02  0.31708368168E+02  0.37926096444E+02  0.00000000000E+00 0. -1.
         11    1    3    3    0    0 -0.96526404656E+02  0.19015133815E+02 -0.16937814184E+02  0.99828911940E+02  0.00000000000E+00 0.  1.
        -13    1    4    4    0    0  0.17686782245E+02 -0.17557490091E+02 -0.45145800543E+02  0.51567732460E+02  0.00000000000E+00 0.  1.
         13    1    4    4    0    0  0.15378224964E+03 -0.57689447961E+02 -0.81808309910E+01  0.16445053574E+03  0.00000000000E+00 0. -1.
          2    1    1    2  501    0 -0.75919581979E+02  0.35446864040E+02  0.26313809685E+03  0.27615561032E+03  0.00000000000E+00 0. -1.
<scales pt_clust_5="13000.00000" pt_clust_6="13000.00000" pt_clust_7="13000.00000" pt_clust_8="13000.00000" pt_clust_9="83.78701"></scales>
<clustering>
<clus scale="   83.787">  1  9  2 -1</clus>
<clus scale="   89.691">  5  6 -1 -1</clus>
<clus scale="   93.576">  7  8 -1 -1</clus>
<clus scale="  169.668">  2  5  1 -1</clus>
<clus scale="   83.787">  1  5  2 -1</clus>
</clustering>
</event>
<event>
 9    1  0.1426358E-005  0.1133432E+03  0.7546771E-02  0.1254980E+00
         21   -1    0    0  501  502  0.00000000000E+00  0.00000000000E+00  0.40804172128E+02  0.40804172128E+02  0.00000000000E+00 0.  1.
          1   -1    0    0  502    0 -0.00000000000E+00 -0.00000000000E+00 -0.40662049324E+03  0.40662049324E+03  0.00000000000E+00 0. -1.
         23    2    1    2    0    0 -0.56718126882E+02 -0.26357939829E+02 -0.21698897565E+03  0.24337826490E+03  0.90758345971E+02 0.  0.
         23    2    1    2    0    0  0.72382011128E+02  0.12767382494E+02 -0.13468967113E+03  0.17894790741E+03  0.92080858306E+02 0.  0.
        -11    1    3    3    0    0 -0.25200755937E+02 -0.59110696401E+02 -0.11541188286E+03  0.13209487209E+03  0.00000000000E+00 0. -1.
         11    1    3    3    0    0 -0.31517370945E+02  0.32752756572E+02 -0.10157709279E+03  0.11128339281E+03  0.00000000000E+00 0.  1.
        -11    1    4    4    0    0  0.12929481647E+02  0.25676161076E+02  0.25174423666E+01  0.28857828389E+02  0.00000000000E+00 0.  1.
         11    1    4    4    0    0  0.59452529481E+02 -0.12908778582E+02 -0.13720711350E+03  0.15009007902E+03  0.00000000000E+00 0. -1.
          1    1    1    2  501    0 -0.15663884247E+02  0.13590557335E+02 -0.14137674336E+02  0.25098493062E+02  0.00000000000E+00 0. -1.
<scales pt_clust_5="13000.00000" pt_clust_6="13000.00000" pt_clust_7="13000.00000" pt_clust_8="13000.00000" pt_clust_9="20.73790"></scales>
<clustering>
<clus scale="   20.738">  1  9  2 -1</clus>
<clus scale="   90.758">  5  6 -1 -1</clus>
<clus scale="   92.081">  7  8 -1 -1</clus>
<clus scale="  112.271">  2  5  1 -1</clus>
<clus scale="   20.738">  1  5  2 -1</clus>
</clustering>
</event>
<event>
 9    1  0.1426358E-005  0.1111764E+03  0.7546771E-02  0.1261721E+00
          2   -1    0    0  502    0 -0.00000000000E+00  0.00000000000E+00  0.34443183746E+03  0.34443183746E+03  0.00000000000E+00 0. -1.
         21   -1    0    0  501  502  0.00000000000E+00 -0.00000000000E+00 -0.86814181380E+02  0.86814181380E+02  0.00000000000E+00 0. -1.
         23    2    1    2    0    0  0.24636095422E+02  0.58617706808E+02  0.25170737558E+03  0.27754448187E+03  0.98139511647E+02 0.  0.
         23    2    1    2    0    0  0.18123439745E+02 -0.25823409764E+02  0.20951056234E+02  0.97754520062E+02  0.90120429843E+02 0.  0.
        -11    1    3    3    0    0 -0.14797971489E+02  0.62910631969E+02  0.88498117291E+02  0.10958396023E+03  0.00000000000E+00 0.  1.
         11    1    3    3    0    0  0.39434066911E+02 -0.42929251617E+01  0.16320925829E+03  0.16796052164E+03  0.00000000000E+00 0. -1.
        -11    1    4    4    0    0 -0.21055401328E+02 -0.44577079860E+02 -0.51840876068E+00  0.49302279071E+02  0.00000000000E+00 0.  1.
         11    1    4    4    0    0  0.39178841073E+02  0.18753670096E+02  0.21469464995E+02  0.48452240991E+02  0.00000000000E+00 0. -1.
          2    1    1    2  501    0 -0.42759535167E+02 -0.32794297044E+02 -0.15040775734E+02  0.55947016909E+02  0.00000000000E+00 0. -1.
<scales pt_clust_5="13000.00000" pt_clust_6="13000.00000" pt_clust_7="13000.00000" pt_clust_8="13000.00000" pt_clust_9="53.88732"></scales>
<clustering>
<clus scale="   53.887">  2  9  1 -1</clus>
<clus scale="   90.120">  7  8 -1 -1</clus>
<clus scale="   98.140">  5  6 -1 -1</clus>
<clus scale="  104.166">  2  7  1 -1</clus>
<clus scale="   53.887">  2  5  1 -1</clus>
</clustering>
</event>
<event>
 9    1  0.1426358E-005  0.9467974E+02  0.7546771E-02  0.1293704E+00
         21   -1    0    0  501  502  0.00000000000E+00  0.00000000000E+00  0.37154647316E+02  0.37154647316E+02  0.00000000000E+00 0.  1.
          2   -1    0    0  502    0 -0.00000000000E+00 -0.00000000000E+00 -0.41374643648E+03  0.41374643648E+03  0.00000000000E+00 0. -1.
         23    2    1    2    0    0  0.14138175504E+01 -0.25378930111E+02 -0.25842101485E+03  0.27428460630E+03  0.88343281357E+02 0.  0.
         23    2    1    2    0    0  0.30618516942E+02  0.16143291355E+02 -0.89208895716E+02  0.13245588547E+03  0.91587308545E+02 0.  0.
        -13    1    3    3    0    0  0.36250715762E+02  0.14379728312E+02 -0.10456524170E+03  0.11160098903E+03  0.00000000000E+00 0.  1.
         13    1    3    3    0    0 -0.34836898212E+02 -0.39758658423E+02 -0.15385577315E+03  0.16268361727E+03  0.00000000000E+00 0. -1.
        -13    1    4    4    0    0  0.14254583314E+02 -0.37493648632E+02 -0.25264019224E+02  0.47405036657E+02  0.00000000000E+00 0. -1.
         13    1    4    4    0    0  0.16363933628E+02  0.53636939986E+02 -0.63944876492E+02  0.85050848817E+02  0.00000000000E+00 0.  1.
          2    1    1    2  501    0 -0.32032334492E+02  0.92356387562E+01 -0.28961878603E+02  0.44160592031E+02  0.00000000000E+00 0. -1.
<scales pt_clust_5="13000.00000" pt_clust_6="13000.00000" pt_clust_7="13000.00000" pt_clust_8="13000.00000" pt_clust_9="33.33718"></scales>
<clustering>
<clus scale="   33.337">  1  9  2 -1</clus>
<clus scale="   88.343">  5  6 -1 -1</clus>
<clus scale="   91.545">  2  5  1 -1</clus>
<clus scale="   91.587">  7  8 -1 -1</clus>
<clus scale="   33.337">  1  5  2 -1</clus>
</clustering>
</event>
<event>
 9    1  0.1426358E-005  0.2884344E+03  0.7546771E-02  0.1091481E+00
          2   -1    0    0  502    0 -0.00000000000E+00  0.00000000000E+00  0.22310009709E+04  0.22310009709E+04  0.00000000000E+00 0. -1.
         21   -1    0    0  501  502  0.00000000000E+00 -0.00000000000E+00 -0.55631728730E+02  0.55631728730E+02  0.00000000000E+00 0. -1.
         23    2    1    2    0    0 -0.15783156662E+03 -0.24415181710E+03  0.14081490348E+04  0.14407804166E+04  0.91889018205E+02 0.  0.
         23    2    1    2    0    0  0.11815145985E+03  0.20211844753E+03  0.37908521817E+03  0.45343657879E+03  0.84187255863E+02 0.  0.
        -11    1    3    3    0    0 -0.11136431294E+03 -0.20602862259E+03  0.12466785474E+04  0.12684861860E+04  0.00000000000E+00 0. -1.
         11    1    3    3    0    0 -0.46467253682E+02 -0.38123194514E+02  0.16147048736E+03  0.17229423064E+03  0.00000000000E+00 0.  1.
        -11    1    4    4    0    0  0.88032851269E+02  0.73398840267E+02  0.20474270703E+03  0.23464174551E+03  0.00000000000E+00 0. -1.
         11    1    4    4    0    0  0.30118608583E+02  0.12871960726E+03  0.17434251114E+03  0.21879483328E+03  0.00000000000E+00 0.  1.
          2    1    1    2  501    0  0.39680106771E+02  0.42033369572E+02  0.38813498925E+03  0.39241570422E+03  0.00000000000E+00 0. -1.
<scales pt_clust_5="13000.00000" pt_clust_6="13000.00000" pt_clust_7="13000.00000" pt_clust_8="13000.00000" pt_clust_9="57.80414"></scales>
<clustering>
<clus scale="   57.804">  2  9  1 -1</clus>
<clus scale="   84.187">  7  8 -1 -1</clus>
<clus scale="   91.889">  5  6 -1 -1</clus>
<clus scale="  286.074">  2  7  1 -1</clus>
<clus scale="   57.804">  2  5  1 -1</clus>
</clustering>
</event>
<event>
 9    1  0.1426358E-005  0.1357237E+03  0.7546771E-02  0.1220260E+00
         21   -1    0    0  501  502  0.00000000000E+00  0.00000000000E+00  0.23203051309E+03  0.23203051309E+03  0.00000000000E+00 0.  1.
          2   -1    0    0  502    0 -0.00000000000E+00 -0.00000000000E+00 -0.23869326620E+03  0.23869326620E+03  0.00000000000E+00 0. -1.
         23    2    1    2    0    0 -0.10311648576E+03  0.57010952722E+02 -0.11376568884E+03  0.18757989845E+03  0.91434829136E+02 0.  0.
         23    2    1    2    0    0  0.24704739078E+02 -0.77593070697E+02 -0.25018987100E+02  0.12813346799E+03  0.95714299617E+02 0.  0.
        -11    1    4    4    0    0 -0.34289707611E+02 -0.45785175197E+02 -0.18945242103E+01  0.57233342885E+02  0.00000000000E+00 0.  1.
         11    1    4    4    0    0  0.58994446689E+02 -0.31807895500E+02 -0.23124462890E+02  0.70900125108E+02  0.00000000000E+00 0. -1.
        -11    1    3    3    0    0 -0.95361187503E+02  0.31828621301E+02 -0.38189179485E+02  0.10754176233E+03  0.00000000000E+00 0.  1.
         11    1    3    3    0    0 -0.77552982585E+01  0.25182331421E+02 -0.75576509354E+02  0.80038136116E+02  0.00000000000E+00 0. -1.
          2    1    1    2  501    0  0.78411746683E+02  0.20582117976E+02  0.13212192283E+03  0.15501041284E+03  0.00000000000E+00 0. -1.
<scales pt_clust_5="13000.00000" pt_clust_6="13000.00000" pt_clust_7="13000.00000" pt_clust_8="13000.00000" pt_clust_9="81.06803"></scales>
<clustering>
<clus scale="   81.068">  1  9  2 -1</clus>
<clus scale="   91.435">  7  8 -1 -1</clus>
<clus scale="   95.714">  5  6 -1 -1</clus>
<clus scale="  132.740">  2  7  1 -1</clus>
<clus scale="   81.068">  1  5  2 -1</clus>
</clustering>
</event>
<event>
 9    1  0.1426358E-005  0.1037670E+03  0.7546771E-02  0.1272737E+00
         21   -1    0    0  501  502  0.00000000000E+00  0.00000000000E+00  0.13015298038E+03  0.13015298038E+03  0.00000000000E+00 0. -1.
          1   -1    0    0  502    0 -0.00000000000E+00 -0.00000000000E+00 -0.17000242486E+03  0.17000242486E+03  0.00000000000E+00 0. -1.
         23    2    1    2    0    0 -0.50576419667E+02  0.38539918678E+02 -0.91903214757E+02  0.14463522162E+03  0.91814197665E+02 0.  0.
         23    2    1    2    0    0  0.48690113587E+01 -0.18653535369E+02  0.18026103038E+02  0.95166910688E+02  0.91433794878E+02 0.  0.
        -11    1    3    3    0    0 -0.72995667621E+02  0.29931011488E+02 -0.91228504061E+02  0.12061041785E+03  0.00000000000E+00 0. -1.
         11    1    3    3    0    0  0.22419247955E+02  0.86089071898E+01 -0.67471069573E+00  0.24024803774E+02  0.00000000000E+00 0.  1.
        -13    1    4    4    0    0  0.25185261294E+02 -0.49732100047E+02  0.15933767154E+02  0.57978134648E+02  0.00000000000E+00 0.  1.
         13    1    4    4    0    0 -0.20316249935E+02  0.31078564678E+02  0.20923358842E+01  0.37188776040E+02  0.00000000000E+00 0. -1.
          1    1    1    2  501    0  0.45707408308E+02 -0.19886383309E+02  0.34027667237E+02  0.60353272926E+02  0.00000000000E+00 0. -1.
<scales pt_clust_5="13000.00000" pt_clust_6="13000.00000" pt_clust_7="13000.00000" pt_clust_8="13000.00000" pt_clust_9="49.84612"></scales>
<clustering>
<clus scale="   49.846">  1  9  2 -1</clus>
<clus scale="   91.434">  7  8 -1 -1</clus>
<clus scale="   91.814">  5  6 -1 -1</clus>
<clus scale="  103.431">  1  7  2 -1</clus>
<clus scale="   49.846">  1  5  2 -1</clus>
</clustering>
</event>
<event>
 9    1  0.1426358E-005  0.1586105E+03  0.7546771E-02  0.1206059E+00
          1   -1    0    0  502    0 -0.00000000000E+00  0.00000000000E+00  0.71906186262E+03  0.71906186262E+03  0.00000000000E+00 0. -1.
         21   -1    0    0  501  502  0.00000000000E+00 -0.00000000000E+00 -0.60961268468E+02  0.60961268468E+02  0.00000000000E+00 0. -1.
         23    2    1    2    0    0 -0.60297925768E+02 -0.26607599321E+02  0.13658448045E+03  0.17692147839E+03  0.91115778106E+02 0.  0.
         23    2    1    2    0    0 -0.54355876920E+02 -0.83288377635E+02  0.20584865645E+03  0.24973418987E+03  0.10050861169E+03 0.  0.
        -11    1    3    3    0    0 -0.75495819129E+02 -0.43031144560E+02  0.12347366863E+03  0.15098690325E+03  0.00000000000E+00 0. -1.
         11    1    3    3    0    0  0.15197893362E+02  0.16423545238E+02  0.13110811824E+02  0.25934575137E+02  0.00000000000E+00 0.  1.
        -11    1    4    4    0    0 -0.35185175914E+02 -0.10447921774E+03  0.18066344480E+03  0.21164400259E+03  0.00000000000E+00 0. -1.
         11    1    4    4    0    0 -0.19170701007E+02  0.21190840107E+02  0.25185211650E+02  0.38090187285E+02  0.00000000000E+00 0.  1.
          1    1    1    2  501    0  0.11465380269E+03  0.10989597696E+03  0.31566745725E+03  0.35336746283E+03  0.00000000000E+00 0. -1.
<scales pt_clust_5="13000.00000" pt_clust_6="13000.00000" pt_clust_7="13000.00000" pt_clust_8="13000.00000" pt_clust_9="122.70017"></scales>
<clustering>
<clus scale="   91.116">  5  6 -1 -1</clus>
<clus scale="  100.509">  7  8 -1 -1</clus>
<clus scale="  112.454">  1  5  2 -1</clus>
<clus scale="  122.700">  2  9  1 -1</clus>
<clus scale="  122.700">  2  5  1 -1</clus>
</clustering>
</event>
<event>
 9    1  0.1426358E-005  0.1145274E+03  0.7546771E-02  0.1254428E+00
         21   -1    0    0  501  502  0.00000000000E+00  0.00000000000E+00  0.46151975864E+03  0.46151975864E+03  0.00000000000E+00 0. -1.
         -1   -1    0    0    0  501 -0.00000000000E+00 -0.00000000000E+00 -0.44346102538E+02  0.44346102538E+02  0.00000000000E+00 0.  1.
         23    2    1    2    0    0  0.14086456032E+02 -0.73838093770E+02  0.71480801975E+02  0.13809329844E+03  0.91157894273E+02 0.  0.
         23    2    1    2    0    0 -0.12033916283E+02  0.50599778983E+02  0.30355904019E+03  0.31961147398E+03  0.85429799503E+02 0.  0.
        -11    1    4    4    0    0 -0.40473570429E+02  0.53085129330E+02  0.25183478907E+03  0.26053195935E+03  0.00000000000E+00 0. -1.
         11    1    4    4    0    0  0.28439654145E+02 -0.24853503471E+01  0.51724251126E+02  0.59079514629E+02  0.00000000000E+00 0.  1.
        -13    1    3    3    0    0  0.14203601376E+02 -0.30312899537E+02 -0.18421113152E+02  0.38209312740E+02  0.00000000000E+00 0.  1.
         13    1    3    3    0    0 -0.11714534364E+00 -0.43525194233E+02  0.89901915127E+02  0.99883985701E+02  0.00000000000E+00 0. -1.
         -1    1    1    2    0  502 -0.20525397486E+01  0.23238314786E+02  0.42133813936E+02  0.48161088758E+02  0.00000000000E+00 0.  1.
<scales pt_clust_5="13000.00000" pt_clust_6="13000.00000" pt_clust_7="13000.00000" pt_clust_8="13000.00000" pt_clust_9="23.32878"></scales>
<clustering>
<clus scale="   23.329">  1  9  2 -1</clus>
<clus scale="   85.430">  5  6 -1 -1</clus>
<clus scale="   91.158">  7  8 -1 -1</clus>
<clus scale="  110.023">  1  5  2 -1</clus>
<clus scale="   23.329">  1  5  2 -1</clus>
</clustering>
</event>
<event>
 9    1  0.1426358E-005  0.1135066E+03  0.7546771E-02  0.1259421E+00
          3   -1    0    0  502    0 -0.00000000000E+00  0.00000000000E+00  0.25673103997E+03  0.25673103997E+03  0.00000000000E+00 0. -1.
         21   -1    0    0  501  502  0.00000000000E+00 -0.00000000000E+00 -0.73004907874E+02  0.73004907874E+02  0.00000000000E+00 0.  1.
         23    2    1    2    0    0  0.98355287177E+01  0.45353941634E+02  0.13898269791E+03  0.17910223505E+03  0.10299370192E+03 0.  0.
         23    2    1    2    0    0 -0.31817686643E+02 -0.41723640306E+02  0.62677080062E+02  0.12203283853E+03  0.90611091872E+02 0.  0.
        -11    1    3    3    0    0  0.21053835364E+02  0.68313789890E+02  0.51874859959E+02  0.88323490468E+02  0.00000000000E+00 0.  1.
         11    1    3    3    0    0 -0.11218306646E+02 -0.22959848255E+02  0.87107837946E+02  0.90778744580E+02  0.00000000000E+00 0. -1.
        -13    1    4    4    0    0  0.10428029891E+02 -0.47188762257E+02  0.26143260010E+01  0.48397911021E+02  0.00000000000E+00 0. -1.
         13    1    4    4    0    0 -0.42245716534E+02  0.54651219513E+01  0.60062754061E+02  0.73634927506E+02  0.00000000000E+00 0.  1.
          3    1    1    2  501    0  0.21982157925E+02 -0.36303013284E+01 -0.17933645871E+02  0.28600874270E+02  0.00000000000E+00 0. -1.
<scales pt_clust_5="13000.00000" pt_clust_6="13000.00000" pt_clust_7="13000.00000" pt_clust_8="13000.00000" pt_clust_9="22.27991"></scales>
<clustering>
<clus scale="   22.280">  2  9  1 -1</clus>
<clus scale="   90.611">  7  8 -1 -1</clus>
<clus scale="  102.403">  2  7  1 -1</clus>
<clus scale="  102.994">  5  6 -1 -1</clus>
<clus scale="   22.280">  2  5  1 -1</clus>
</clustering>
</event>
<event>
 9    1  0.1426358E-005  0.1917844E+03  0.7546771E-02  0.1156870E+00
         21   -1    0    0  501  502  0.00000000000E+00  0.00000000000E+00  0.84736899311E+02  0.84736899311E+02  0.00000000000E+00 0.  1.
          2   -1    0    0  502    0 -0.00000000000E+00 -0.00000000000E+00 -0.96856376548E+03  0.96856376548E+03  0.00000000000E+00 0. -1.
         23    2    1    2    0    0  0.13202522820E+03 -0.76040373460E+02 -0.49910118403E+03  0.52960319696E+03  0.90359034159E+02 0.  0.
         23    2    1    2    0    0 -0.21342380321E+03  0.34396955480E+02 -0.35900592201E+03  0.42871637320E+03  0.90441175861E+02 0.  0.
        -11    1    4    4    0    0 -0.12861325855E+03 -0.20292774788E+02 -0.16652270890E+03  0.21138348933E+03  0.00000000000E+00 0.  1.
         11    1    4    4    0    0 -0.84810544668E+02  0.54689730268E+02 -0.19248321311E+03  0.21733288387E+03  0.00000000000E+00 0. -1.
        -11    1    3    3    0    0  0.26563242174E+02  0.14686622630E+02 -0.16378004544E+03  0.16656892269E+03  0.00000000000E+00 0.  1.
         11    1    3    3    0    0  0.10546198602E+03 -0.90726996090E+02 -0.33532113858E+03  0.36303427427E+03  0.00000000000E+00 0. -1.
          2    1    1    2  501    0  0.81398575016E+02  0.41643417980E+02 -0.25719760132E+02  0.94981094629E+02  0.00000000000E+00 0. -1.
<scales pt_clust_5="13000.00000" pt_clust_6="13000.00000" pt_clust_7="13000.00000" pt_clust_8="13000.00000" pt_clust_9="91.43250"></scales>
<clustering>
<clus scale="   90.359">  7  8 -1 -1</clus>
<clus scale="   90.441">  5  6 -1 -1</clus>
<clus scale="   91.433">  1  9  2 -1</clus>
<clus scale="  191.746">  2  7  1 -1</clus>
<clus scale="   91.433">  1  5  2 -1</clus>
</clustering>
</event>
<event>
 9    1  0.1426358E-005  0.9995201E+02  0.7546771E-02  0.1281695E+00
         21   -1    0    0  501  502  0.00000000000E+00  0.00000000000E+00  0.79028320560E+02  0.79028320560E+02  0.00000000000E+00 0.  1.
         -1   -1    0    0    0  501 -0.00000000000E+00 -0.00000000000E+00 -0.44335608362E+03  0.44335608362E+03  0.00000000000E+00 0.  1.
         23    2    1    2    0    0 -0.31136428257E+02 -0.51671123172E+02 -0.30177697305E+03  0.32053611009E+03  0.89636344590E+02 0.  0.
         23    2    1    2    0    0 -0.12986010152E+02 -0.31358255634E+01 -0.86836279593E+02  0.12741459067E+03  0.92279296708E+02 0.  0.
        -11    1    3    3    0    0 -0.52915242329E+02 -0.60328180951E+02 -0.18866907865E+03  0.20502568991E+03  0.00000000000E+00 0.  1.
         11    1    3    3    0    0  0.21778814072E+02  0.86570577794E+01 -0.11310789441E+03  0.11551042017E+03  0.00000000000E+00 0. -1.
        -13    1    4    4    0    0 -0.39576501531E+02 -0.31495631165E+02 -0.66474136333E+02  0.83528947420E+02  0.00000000000E+00 0.  1.
         13    1    4    4    0    0  0.26590491379E+02  0.28359805601E+02 -0.20362143260E+02  0.43885643252E+02  0.00000000000E+00 0. -1.
         -1    1    1    2    0  502  0.44122438409E+02  0.54806948735E+02  0.24285489582E+02  0.74433703422E+02  0.00000000000E+00 0.  1.
<scales pt_clust_5="13000.00000" pt_clust_6="13000.00000" pt_clust_7="13000.00000" pt_clust_8="13000.00000" pt_clust_9="70.36044"></scales>
<clustering>
<clus scale="   70.360">  1  9  2 -1</clus>
<clus scale="   89.636">  5  6 -1 -1</clus>
<clus scale="   92.279">  7  8 -1 -1</clus>
<clus scale="   97.517">  2  5  1 -1</clus>
<clus scale="   70.360">  1  5  2 -1</clus>
</clustering>
</event>
<event>
 9    1  0.1426358E-005  0.1402252E+03  0.7546771E-02  0.1213104E+00
         21   -1    0    0  501  502  0.00000000000E+00  0.00000000000E+00  0.13336579571E+03  0.13336579571E+03  0.00000000000E+00 0. -1.
         -4   -1    0    0    0  501 -0.00000000000E+00 -0.00000000000E+00 -0.59072731231E+03  0.59072731231E+03  0.00000000000E+00 0.  1.
         23    2    1    2    0    0 -0.17080363544E+02 -0.10402469631E+03 -0.50448736175E+03  0.52339958403E+03  0.91251028138E+02 0.  0.
         23    2    1    2    0    0  0.39900547671E+02  0.10942304979E+03 -0.35106301329E+00  0.14774109408E+03  0.90894719886E+02 0.  0.
        -11    1    3    3    0    0  0.25183405626E+02 -0.70163380665E+02 -0.38586523380E+03  0.39300010504E+03  0.00000000000E+00 0.  1.
         11    1    3    3    0    0 -0.42263769170E+02 -0.33861315648E+02 -0.11862212795E+03  0.13039947899E+03  0.00000000000E+00 0. -1.
        -11    1    4    4    0    0 -0.23612493323E+02  0.26217347522E+02 -0.20983012640E+02  0.41051016692E+02  0.00000000000E+00 0.  1.
         11    1    4    4    0    0  0.63513040994E+02  0.83205702271E+02  0.20631949627E+02  0.10669007738E+03  0.00000000000E+00 0. -1.
         -4    1    1    2    0  502 -0.22820184127E+02 -0.53983534793E+01  0.47476908167E+02  0.52952429907E+02  0.00000000000E+00 0.  1.
<scales pt_clust_5="13000.00000" pt_clust_6="13000.00000" pt_clust_7="13000.00000" pt_clust_8="13000.00000" pt_clust_9="23.45001"></scales>
<clustering>
<clus scale="   23.450">  1  9  2 -1</clus>
<clus scale="   90.895">  7  8 -1 -1</clus>
<clus scale="   91.251">  5  6 -1 -1</clus>
<clus scale="  139.994">  1  7  2 -1</clus>
<clus scale="   23.450">  1  5  2 -1</clus>
</clustering>
</event>
<event>
 9    1  0.1426358E-005  0.9366125E+02  0.7546771E-02  0.1296642E+00
         21   -1    0    0  501  502  0.00000000000E+00  0.00000000000E+00  0.21196235972E+03  0.21196235972E+03  0.00000000000E+00 0.  1.
         -3   -1    0    0    0  501 -0.00000000000E+00 -0.00000000000E+00 -0.17226527652E+03  0.17226527652E+03  0.00000000000E+00 0.  1.
         23    2    1    2    0    0  0.20547284732E+02 -0.15487310030E+02 -0.11424002844E+03  0.14562721112E+03  0.86570507899E+02 0.  0.
         23    2    1    2    0    0  0.24417493241E+01  0.22194393120E+02  0.11579024246E+02  0.94242170426E+02  0.90823783551E+02 0.  0.
        -11    1    4    4    0    0 -0.42756500843E+02  0.73463449719E+00  0.11206240060E+02  0.44206762700E+02  0.00000000000E+00 0. -1.
         11    1    4    4    0    0  0.45198250167E+02  0.21459758623E+02  0.37278418554E+00  0.50035407726E+02  0.00000000000E+00 0.  1.
        -13    1    3    3    0    0  0.41720001640E+02 -0.36856017080E+02 -0.50567505871E+02  0.75206363972E+02  0.00000000000E+00 0. -1.
         13    1    3    3    0    0 -0.21172716908E+02  0.21368707050E+02 -0.63672522572E+02  0.70420847147E+02  0.00000000000E+00 0.  1.
         -3    1    1    2    0  502 -0.22989034056E+02 -0.67070830908E+01  0.14235808740E+03  0.14435825470E+03  0.00000000000E+00 0.  1.
<scales pt_clust_5="13000.00000" pt_clust_6="13000.00000" pt_clust_7="13000.00000" pt_clust_8="13000.00000" pt_clust_9="23.94746"></scales>
<clustering>
<clus scale="   23.947">  1  9  2 -1</clus>
<clus scale="   86.571">  7  8 -1 -1</clus>
<clus scale="   89.543">  2  7  1 -1</clus>
<clus scale="   90.824">  5  6 -1 -1</clus>
<clus scale="   23.947">  1  5  2 -1</clus>
</clustering>
</event>
<event>
 9    1  0.1426358E-005  0.9555679E+02  0.7546771E-02  0.1290289E+00
         21   -1    0    0  501  502  0.00000000000E+00  0.00000000000E+00  0.52376730007E+03  0.52376730007E+03  0.00000000000E+00 0. -1.
          3   -1    0    0  502    0 -0.00000000000E+00 -0.00000000000E+00 -0.45630124805E+02  0.45630124805E+02  0.00000000000E+00 0. -1.
         23    2    1    2    0    0 -0.47988456209E+02 -0.15308214780E+02  0.99075160274E+02  0.14313739517E+03  0.90195305546E+02 0.  0.
         23    2    1    2    0    0  0.31800940788E+01 -0.51203809872E+02  0.13864171950E+03  0.17281662928E+03  0.89510434166E+02 0.  0.
        -11    1    3    3    0    0  0.20457192191E+02 -0.26586020344E+02  0.38276541425E+02  0.50896039271E+02  0.00000000000E+00 0.  1.
         11    1    3    3    0    0 -0.68445648400E+02  0.11277805563E+02  0.60798618849E+02  0.92241355894E+02  0.00000000000E+00 0. -1.
        -13    1    4    4    0    0  0.14581289817E+02  0.21632832662E+02  0.18959395685E+02  0.32249839479E+02  0.00000000000E+00 0.  1.
         13    1    4    4    0    0 -0.11401195738E+02 -0.72836642534E+02  0.11968232382E+03  0.14056678980E+03  0.00000000000E+00 0. -1.
          3    1    1    2  501    0  0.44808362130E+02  0.66512024652E+02  0.24042029548E+03  0.25344340043E+03  0.00000000000E+00 0. -1.
<scales pt_clust_5="13000.00000" pt_clust_6="13000.00000" pt_clust_7="13000.00000" pt_clust_8="13000.00000" pt_clust_9="80.19750"></scales>
<clustering>
<clus scale="   80.197">  1  9  2 -1</clus>
<clus scale="   89.510">  7  8 -1 -1</clus>
<clus scale="   90.195">  5  6 -1 -1</clus>
<clus scale="   94.911">  1  7  2 -1</clus>
<clus scale="   80.197">  1  5  2 -1</clus>
</clustering>
</event>
<event>
 9    1  0.1426358E-005  0.3016885E+03  0.7546771E-02  0.1084405E+00
          1   -1    0    0  502    0 -0.00000000000E+00  0.00000000000E+00  0.34835293869E+03  0.34835293869E+03  0.00000000000E+00 0. -1.
         21   -1    0    0  501  502  0.00000000000E+00 -0.00000000000E+00 -0.39462090362E+03  0.39462090362E+03  0.00000000000E+00 0. -1.
         23    2    1    2    0    0 -0.29923112005E+03 -0.57355205827E+02  0.97108864897E+02  0.33290568572E+03  0.92559068159E+02 0.  0.
         23    2    1    2    0    0  0.24193160583E+03  0.11307015307E+03 -0.49843661984E+02  0.28704034201E+03  0.92693073554E+02 0.  0.
        -11    1    4    4    0    0  0.67966634090E+02  0.28410797795E+02  0.27570685989E+02  0.78656083724E+02  0.00000000000E+00 0.  1.
         11    1    4    4    0    0  0.17396497174E+03  0.84659355278E+02 -0.77414347973E+02  0.20838425828E+03  0.00000000000E+00 0. -1.
        -13    1    3    3    0    0 -0.25821617858E+03 -0.14529539321E+02  0.71593919548E+02  0.26835124689E+03  0.00000000000E+00 0. -1.
         13    1    3    3    0    0 -0.41014941471E+02 -0.42825666506E+02  0.25514945348E+02  0.64554438822E+02  0.00000000000E+00 0.  1.
          1    1    1    2  501    0  0.57299514224E+02 -0.55714947246E+02 -0.93533167840E+02  0.12302781459E+03  0.00000000000E+00 0. -1.
<scales pt_clust_5="13000.00000" pt_clust_6="13000.00000" pt_clust_7="13000.00000" pt_clust_8="13000.00000" pt_clust_9="79.92115"></scales>
<clustering>
<clus scale="   79.921">  2  9  1 -1</clus>
<clus scale="   92.559">  7  8 -1 -1</clus>
<clus scale="   92.693">  5  6 -1 -1</clus>
<clus scale="  301.647">  1  7  2 -1</clus>
<clus scale="   79.921">  2  5  1 -1</clus>
</clustering>
</event>
<event>
 9    1  0.1426358E-005  0.1585981E+03  0.7546771E-02  0.1190316E+00
         -1   -1    0    0    0  501 -0.00000000000E+00  0.00000000000E+00  0.59045008153E+03  0.59045008153E+03  0.00000000000E+00 0.  1.
         21   -1    0    0  501  502  0.00000000000E+00 -0.00000000000E+00 -0.30574889007E+03  0.30574889007E+03  0.00000000000E+00 0.  1.
         23    2    1    2    0    0 -0.67885194037E+02 -0.11473576824E+03  0.52621060001E+03  0.55068789953E+03  0.92665371314E+02 0.  0.
         23    2    1    2    0    0  0.36257446382E+02  0.88134658290E+02 -0.38727845145E+02  0.13856108794E+03  0.92827844382E+02 0.  0.
        -11    1    4    4    0    0  0.59523154192E+02  0.42516389806E+02  0.19317107045E+01  0.73173634551E+02  0.00000000000E+00 0.  1.
         11    1    4    4    0    0 -0.23265707811E+02  0.45618268483E+02 -0.40659555849E+02  0.65387453393E+02  0.00000000000E+00 0. -1.
        -13    1    3    3    0    0 -0.84629942875E+02 -0.72645330421E+02  0.43180836782E+03  0.44597986253E+03  0.00000000000E+00 0.  1.
         13    1    3    3    0    0  0.16744748838E+02 -0.42090437822E+02  0.94402232195E+02  0.10470803700E+03  0.00000000000E+00 0. -1.
         -1    1    1    2    0  502  0.31627747655E+02  0.26601109954E+02 -0.20278156341E+03  0.20694998413E+03  0.00000000000E+00 0.  1.
<scales pt_clust_5="13000.00000" pt_clust_6="13000.00000" pt_clust_7="13000.00000" pt_clust_8="13000.00000" pt_clust_9="41.32715"></scales>
<clustering>
<clus scale="   41.327">  2  9  1 -1</clus>
<clus scale="   92.665">  7  8 -1 -1</clus>
<clus scale="   92.828">  5  6 -1 -1</clus>
<clus scale="  158.503">  1  7  2 -1</clus>
<clus scale="   41.327">  2  5  1 -1</clus>
</clustering>
</event>
<event>
 9    1  0.1426358E-005  0.9948468E+02  0.7546771E-02  0.1284773E+00
         -1   -1    0    0    0  501 -0.00000000000E+00  0.00000000000E+00  0.15055556409E+03  0.15055556409E+03  0.00000000000E+00 0.  1.
         21   -1    0    0  501  502  0.00000000000E+00 -0.00000000000E+00 -0.24835716204E+03  0.24835716204E+03  0.00000000000E+00 0. -1.
         23    2    1    2    0    0  0.11463745015E+02  0.17079397342E+02  0.98284876072E+02  0.13579271522E+03  0.91414557812E+02 0.  0.
         23    2    1    2    0    0 -0.96880260611E+01  0.11658993874E+02 -0.20926543160E+03  0.23145404762E+03  0.97719830701E+02 0.  0.
        -11    1    3    3    0    0  0.38447435956E+02  0.41321398448E+02  0.69196079705E+02  0.89295916748E+02  0.00000000000E+00 0.  1.
         11    1    3    3    0    0 -0.26983690941E+02 -0.24242001106E+02  0.29088796367E+02  0.46496798475E+02  0.00000000000E+00 0. -1.
        -13    1    4    4    0    0 -0.21029820425E+02 -0.29951988479E+02 -0.30745318906E+02  0.47798008281E+02  0.00000000000E+00 0.  1.
         13    1    4    4    0    0  0.11341794364E+02  0.41610982352E+02 -0.17852011269E+03  0.18365603934E+03  0.00000000000E+00 0. -1.
         -1    1    1    2    0  502 -0.17757189542E+01 -0.28738391216E+02  0.13178957577E+02  0.31665963278E+02  0.00000000000E+00 0.  1.
<scales pt_clust_5="13000.00000" pt_clust_6="13000.00000" pt_clust_7="13000.00000" pt_clust_8="13000.00000" pt_clust_9="28.79321"></scales>
<clustering>
<clus scale="   28.793">  2  9  1 -1</clus>
<clus scale="   91.415">  5  6 -1 -1</clus>
<clus scale="   93.299">  1  5  2 -1</clus>
<clus scale="   97.720">  7  8 -1 -1</clus>
<clus scale="   28.793">  2  5  1 -1</clus>
</clustering>
</event>
<event>
 9    1  0.1426358E-005  0.2524281E+03  0.7546771E-02  0.1134146E+00
         21   -1    0    0  501  502  0.00000000000E+00  0.00000000000E+00  0.48790776625E+03  0.48790776625E+03  0.00000000000E+00 0.  1.
         -1   -1    0    0    0  501 -0.00000000000E+00 -0.00000000000E+00 -0.30687457321E+03  0.30687457321E+03  0.00000000000E+00 0.  1.
         23    2    1    2    0    0  0.10557663584E+01  0.11228474918E+03  0.68465876527E+02  0.16008732598E+03  0.91276481911E+02 0.  0.
         23    2    1    2    0    0  0.13213733298E+02 -0.32543807264E+03 -0.78516669167E+02  0.34807497316E+03  0.94375726400E+02 0.  0.
        -11    1    4    4    0    0 -0.30870246355E+01 -0.94948732006E+02 -0.67893091649E+02  0.11676584828E+03  0.00000000000E+00 0.  1.
         11    1    4    4    0    0  0.16300757934E+02 -0.23048934064E+03 -0.10623577519E+02  0.23130912488E+03  0.00000000000E+00 0. -1.
        -11    1    3    3    0    0 -0.25963431623E+02  0.10653315390E+03  0.31780091130E+02  0.11416385967E+03  0.00000000000E+00 0.  1.
         11    1    3    3    0    0  0.27019197981E+02  0.57515952735E+01  0.36685785398E+02  0.45923466311E+02  0.00000000000E+00 0. -1.
         -1    1    1    2    0  502 -0.14269499657E+02  0.21315332347E+03  0.19108398568E+03  0.28662004031E+03  0.00000000000E+00 0.  1.
<scales pt_clust_5="13000.00000" pt_clust_6="13000.00000" pt_clust_7="13000.00000" pt_clust_8="13000.00000" pt_clust_9="234.12211"></scales>
<clustering>
<clus scale="   91.276">  7  8 -1 -1</clus>
<clus scale="   94.376">  5  6 -1 -1</clus>
<clus scale="  144.708">  2  7  1 -1</clus>
<clus scale="  234.122">  1  9  2 -1</clus>
<clus scale="  234.122">  1  5  2 -1</clus>
</clustering>
</event>
<event>
 9    1  0.1426358E-005  0.1163008E+03  0.7546771E-02  0.1249761E+00
         21   -1    0    0  501  502  0.00000000000E+00  0.00000000000E+00  0.63369177926E+03  0.63369177926E+03  0.00000000000E+00 0. -1.
          1   -1    0    0  502    0 -0.00000000000E+00 -0.00000000000E+00 -0.60575751902E+02  0.60575751902E+02  0.00000000000E+00 0. -1.
         23    2    1    2    0    0  0.59767634675E+02 -0.62462895829E+02  0.38414221458E+02  0.13168809223E+03  0.91609594012E+02 0.  0.
         23    2    1    2    0    0 -0.40227180774E+02  0.67455594492E+01  0.20583564015E+03  0.22845490243E+03  0.90330521122E+02 0.  0.
        -11    1    3    3    0    0  0.70432849796E+02 -0.16053994758E+02  0.42635604159E+02  0.83882726589E+02  0.00000000000E+00 0. -1.
         11    1    3    3    0    0 -0.10665215121E+02 -0.46408901071E+02 -0.42213827006E+01  0.47805365641E+02  0.00000000000E+00 0.  1.
        -13    1    4    4    0    0  0.25937953811E+02  0.17484795567E+02  0.79610810101E+02  0.85535820618E+02  0.00000000000E+00 0.  1.
         13    1    4    4    0    0 -0.66165134585E+02 -0.10739236117E+02  0.12622483005E+03  0.14291908182E+03  0.00000000000E+00 0. -1.
          1    1    1    2  501    0 -0.19540453901E+02  0.55717336380E+02  0.32886616575E+03  0.33412453649E+03  0.00000000000E+00 0. -1.
<scales pt_clust_5="13000.00000" pt_clust_6="13000.00000" pt_clust_7="13000.00000" pt_clust_8="13000.00000" pt_clust_9="59.04448"></scales>
<clustering>
<clus scale="   59.044">  1  9  2 -1</clus>
<clus scale="   90.331">  7  8 -1 -1</clus>
<clus scale="   91.610">  5  6 -1 -1</clus>
<clus scale="  115.296">  1  7  2 -1</clus>
<clus scale="   59.044">  1  5  2 -1</clus>
</clustering>
</event>
<event>
 9    1  0.1426358E-005  0.1022809E+03  0.7546771E-02  0.1277581E+00
         -1   -1    0    0    0  501 -0.00000000000E+00  0.00000000000E+00  0.96425102056E+02  0.96425102056E+02  0.00000000000E+00 0.  1.
         21   -1    0    0  501  502  0.00000000000E+00 -0.00000000000E+00 -0.15045140676E+03  0.15045140676E+03  0.00000000000E+00 0. -1.
         23    2    1    2    0    0 -0.73019978548E+01  0.44792895557E+02 -0.16628905973E+01  0.10538795209E+03  0.95100644449E+02 0.  0.
         23    2    1    2    0    0  0.28554191144E+02 -0.18753310248E+02 -0.45098664416E+02  0.10710117081E+03  0.90938126104E+02 0.  0.
        -11    1    4    4    0    0  0.78242894370E+01 -0.45477175606E+02  0.52546111795E+01  0.46443556549E+02  0.00000000000E+00 0.  1.
         11    1    4    4    0    0  0.20729901707E+02  0.26723865358E+02 -0.50353275595E+02  0.60657614259E+02  0.00000000000E+00 0. -1.
        -13    1    3    3    0    0  0.55399255968E+01  0.23163557818E+02  0.45827613592E+02  0.51646987849E+02  0.00000000000E+00 0.  1.
         13    1    3    3    0    0 -0.12841923452E+02  0.21629337739E+02 -0.47490504189E+02  0.53740964237E+02  0.00000000000E+00 0. -1.
         -1    1    1    2    0  502 -0.21252193289E+02 -0.26039585309E+02 -0.72647496939E+01  0.34387385925E+02  0.00000000000E+00 0.  1.
<scales pt_clust_5="13000.00000" pt_clust_6="13000.00000" pt_clust_7="13000.00000" pt_clust_8="13000.00000" pt_clust_9="33.61126"></scales>
<clustering>
<clus scale="   33.611">  2  9  1 -1</clus>
<clus scale="   90.938">  5  6 -1 -1</clus>
<clus scale="   95.101">  7  8 -1 -1</clus>
<clus scale="   98.422">  2  5  1 -1</clus>
<clus scale="   33.611">  2  5  1 -1</clus>
</clustering>
</event>
<event>
 9    1  0.1487944E-005  0.9929686E+02  0.7546771E-02  0.1282198E+00
         21   -1    0    0  501  502  0.00000000000E+00  0.00000000000E+00  0.40754185375E+03  0.40754185375E+03  0.00000000000E+00 0.  1.
         -2   -1    0    0    0  501 -0.00000000000E+00 -0.00000000000E+00 -0.91217482130E+02  0.91217482130E+02  0.00000000000E+00 0.  1.
         23    2    1    2    0    0  0.40436453220E+02 -0.11155640342E+02 -0.40619541777E+02  0.10795606071E+03  0.90802030861E+02 0.  0.
         23    2    1    2    0    0 -0.12005883549E+02  0.36941213755E+02  0.32912839931E+03  0.34340184153E+03  0.89947356919E+02 0.  0.
        -11    1    4    4    0    0  0.13812080466E+02  0.60912091150E+02  0.22278847290E+03  0.23137795935E+03  0.00000000000E+00 0.  1.
         11    1    4    4    0    0 -0.25817964015E+02 -0.23970877395E+02  0.10633992641E+03  0.11202388218E+03  0.00000000000E+00 0. -1.
        -13    1    3    3    0    0  0.41241492547E+02 -0.44180310021E+02 -0.43987037833E+02  0.74750384603E+02  0.00000000000E+00 0.  1.
         13    1    3    3    0    0 -0.80503932763E+00  0.33024669679E+02  0.33674960553E+01  0.33205676102E+02  0.00000000000E+00 0. -1.
         -2    1    1    2    0  502 -0.28430569671E+02 -0.25785573413E+02  0.27815514086E+02  0.47401433648E+02  0.00000000000E+00 0.  1.
<scales pt_clust_5="13000.00000" pt_clust_6="13000.00000" pt_clust_7="13000.00000" pt_clust_8="13000.00000" pt_clust_9="38.38222"></scales>
<clustering>
<clus scale="   38.382">  1  9  2 -1</clus>
<clus scale="   89.947">  5  6 -1 -1</clus>
<clus scale="   90.802">  7  8 -1 -1</clus>
<clus scale="   98.516">  1  5  2 -1</clus>
<clus scale="   38.382">  1  5  2 -1</clus>
</clustering>
</event>
<event>
 9    1  0.1426358E-005  0.9187049E+02  0.7546771E-02  0.1298921E+00
          2   -1    0    0  502    0 -0.00000000000E+00  0.00000000000E+00  0.28998072366E+03  0.28998072366E+03  0.00000000000E+00 0. -1.
         21   -1    0    0  501  502  0.00000000000E+00 -0.00000000000E+00 -0.40572022575E+02  0.40572022575E+02  0.00000000000E+00 0.  1.
         23    2    1    2    0    0 -0.10013898598E+01  0.75736442062E+01  0.14445037219E+03  0.17054755242E+03  0.90344865628E+02 0.  0.
         23    2    1    2    0    0  0.84691701092E+00 -0.32543890499E+02  0.76157534473E+02  0.12188665736E+03  0.89423515405E+02 0.  0.
        -11    1    4    4    0    0 -0.19819241105E+02 -0.33719029864E+02  0.89215591542E+02  0.97412509808E+02  0.00000000000E+00 0. -1.
         11    1    4    4    0    0  0.20666158116E+02  0.11751393652E+01 -0.13058057070E+02  0.24474147548E+02  0.00000000000E+00 0.  1.
        -13    1    3    3    0    0 -0.31038655453E+02  0.36555987373E+02  0.89546364564E+02  0.10157898282E+03  0.00000000000E+00 0. -1.
         13    1    3    3    0    0  0.30037265593E+02 -0.28982343166E+02  0.54904007622E+02  0.68968569600E+02  0.00000000000E+00 0.  1.
          2    1    1    2  501    0  0.15447284890E+00  0.24970246292E+02  0.28800794427E+02  0.38118536454E+02  0.00000000000E+00 0. -1.
<scales pt_clust_5="13000.00000" pt_clust_6="13000.00000" pt_clust_7="13000.00000" pt_clust_8="13000.00000" pt_clust_9="24.97074"></scales>
<clustering>
<clus scale="   24.971">  2  9  1 -1</clus>
<clus scale="   89.424">  5  6 -1 -1</clus>
<clus scale="   90.345">  7  8 -1 -1</clus>
<clus scale="   90.965">  2  5  1 -1</clus>
<clus scale="   24.971">  2  5  1 -1</clus>
</clustering>
</event>
<event>
 9    1  0.1426358E-005  0.3274114E+03  0.7546771E-02  0.1072852E+00
         21   -1    0    0  501  502  0.00000000000E+00  0.00000000000E+00  0.26689068598E+03  0.26689068598E+03  0.00000000000E+00 0.  1.
          2   -1    0    0  502    0 -0.00000000000E+00 -0.00000000000E+00 -0.49244463274E+03  0.49244463274E+03  0.00000000000E+00 0. -1.
         23    2    1    2    0    0 -0.28873358115E+03 -0.16137983208E+02 -0.14453415545E+03  0.34102796915E+03  0.10854694039E+03 0.  0.
         23    2    1    2    0    0  0.33509085379E+03 -0.14463989186E+01 -0.10517773725E+03  0.36315471070E+03  0.92363494575E+02 0.  0.
        -13    1    3    3    0    0 -0.42325573924E+02 -0.18300505869E+02  0.13791893725E+02  0.48130853469E+02  0.00000000000E+00 0.  1.
         13    1    3    3    0    0 -0.24640800722E+03  0.21625226614E+01 -0.15832604918E+03  0.29289711569E+03  0.00000000000E+00 0. -1.
        -13    1    4    4    0    0  0.97598111682E+02  0.32500570641E+02 -0.59825319755E+02  0.11899893857E+03  0.00000000000E+00 0. -1.
         13    1    4    4    0    0  0.23749274211E+03 -0.33946969560E+02 -0.45352417498E+02  0.24415577214E+03  0.00000000000E+00 0.  1.
          2    1    1    2  501    0 -0.46357272641E+02  0.17584382126E+02  0.24157945950E+02  0.55152638867E+02  0.00000000000E+00 0. -1.
<scales pt_clust_5="13000.00000" pt_clust_6="13000.00000" pt_clust_7="13000.00000" pt_clust_8="13000.00000" pt_clust_9="49.58031"></scales>
<clustering>
<clus scale="   49.580">  1  9  2 -1</clus>
<clus scale="   92.363">  7  8 -1 -1</clus>
<clus scale="  108.547">  5  6 -1 -1</clus>
<clus scale="  322.408">  1  7  2 -1</clus>
<clus scale="   49.580">  1  5  2 -1</clus>
</clustering>
</event>
<event>
 9    1  0.1426358E-005  0.1060958E+03  0.7546771E-02  0.1269859E+00
         -3   -1    0    0    0  501 -0.00000000000E+00  0.00000000000E+00  0.94684199789E+02  0.94684199789E+02  0.00000000000E+00 0.  1.
         21   -1    0    0  501  502  0.00000000000E+00 -0.00000000000E+00 -0.57192980726E+03  0.57192980726E+03  0.00000000000E+00 0.  1.
         23    2    1    2    0    0  0.28611479533E+02 -0.18895216008E+02  0.94005910608E+01  0.10092854852E+03  0.94459276121E+02 0.  0.
         23    2    1    2    0    0 -0.88391210493E+02 -0.38730409941E+00 -0.70082080840E+02  0.14441227404E+03  0.90167903064E+02 0.  0.
        -11    1    4    4    0    0 -0.63108785285E+02 -0.42932131540E+02 -0.36512986953E+02  0.84611375801E+02  0.00000000000E+00 0.  1.
         11    1    4    4    0    0 -0.25282425208E+02  0.42544827441E+02 -0.33569093887E+02  0.59800898244E+02  0.00000000000E+00 0. -1.
        -11    1    3    3    0    0  0.15537315756E+02 -0.50418719601E+02  0.30368632568E+02  0.60874537462E+02  0.00000000000E+00 0.  1.
         11    1    3    3    0    0  0.13074163777E+02  0.31523503594E+02 -0.20968041508E+02  0.40054011059E+02  0.00000000000E+00 0. -1.
         -3    1    1    2    0  502  0.59779730961E+02  0.19282520107E+02 -0.41656411769E+03  0.42127318448E+03  0.00000000000E+00 0.  1.
<scales pt_clust_5="13000.00000" pt_clust_6="13000.00000" pt_clust_7="13000.00000" pt_clust_8="13000.00000" pt_clust_9="62.81267"></scales>
<clustering>
<clus scale="   62.813">  2  9  1 -1</clus>
<clus scale="   90.168">  5  6 -1 -1</clus>
<clus scale="   94.459">  7  8 -1 -1</clus>
<clus scale="  102.294">  2  5  1 -1</clus>
<clus scale="   62.813">  2  5  1 -1</clus>
</clustering>
</event>
<event>
 9    1  0.2328346E-005  0.9410042E+02  0.7546771E-02  0.1293797E+00
         -4   -1    0    0    0  501 -0.00000000000E+00  0.00000000000E+00  0.50217757063E+03  0.50217757063E+03  0.00000000000E+00 0.  1.
         21   -1    0    0  501  502  0.00000000000E+00 -0.00000000000E+00 -0.50386464959E+03  0.50386464959E+03  0.00000000000E+00 0.  1.
         23    2    1    2    0    0 -0.33524769861E+01  0.86224230076E+01  0.26712728133E+03  0.28202966826E+03  0.89989799793E+02 0.  0.
         23    2    1    2    0    0  0.62568361328E+02  0.34148452295E+02  0.20996306803E+03  0.23969478995E+03  0.91039473642E+02 0.  0.
        -11    1    3    3    0    0  0.37163746393E+02  0.26589153330E+02  0.14958063187E+03  0.15640489938E+03  0.00000000000E+00 0.  1.
         11    1    3    3    0    0 -0.40516223379E+02 -0.17966730323E+02  0.11754664946E+03  0.12562476888E+03  0.00000000000E+00 0. -1.
        -11    1    4    4    0    0  0.57680142575E+02  0.60349929308E+02  0.18590809354E+03  0.20379139348E+03  0.00000000000E+00 0.  1.
         11    1    4    4    0    0  0.48882187525E+01 -0.26201477013E+02  0.24054974489E+02  0.35903396468E+02  0.00000000000E+00 0. -1.
         -4    1    1    2    0  502 -0.59215884341E+02 -0.42770875303E+02 -0.47877742832E+03  0.48431776201E+03  0.00000000000E+00 0.  1.
<scales pt_clust_5="13000.00000" pt_clust_6="13000.00000" pt_clust_7="13000.00000" pt_clust_8="13000.00000" pt_clust_9="73.04703"></scales>
<clustering>
<clus scale="   73.047">  2  9  1 -1</clus>
<clus scale="   89.990">  5  6 -1 -1</clus>
<clus scale="   91.039">  7  8 -1 -1</clus>
<clus scale="   93.085">  1  5  2 -1</clus>
<clus scale="   73.047">  2  5  1 -1</clus>
</clustering>
</event>
<event>
 9    1  0.1426358E-005  0.9895991E+02  0.7546771E-02  0.1283221E+00
         -1   -1    0    0    0  501 -0.00000000000E+00  0.00000000000E+00  0.16232564974E+03  0.16232564974E+03  0.00000000000E+00 0.  1.
         21   -1    0    0  501  502  0.00000000000E+00 -0.00000000000E+00 -0.13726936029E+03  0.13726936029E+03  0.00000000000E+00 0. -1.
         23    2    1    2    0    0  0.29254888659E+02  0.16107616559E+02  0.58451126061E+02  0.11319320250E+03  0.90999247975E+02 0.  0.
         23    2    1    2    0    0 -0.74047595555E+01 -0.46944649831E+02  0.33807366190E+02  0.10930130932E+03  0.92440292068E+02 0.  0.
        -11    1    4    4    0    0  0.34054286906E+02 -0.32965969082E+02 -0.88269844117E+01  0.48211671077E+02  0.00000000000E+00 0.  1.
         11    1    4    4    0    0 -0.41459046462E+02 -0.13978680749E+02  0.42634350602E+02  0.61089638239E+02  0.00000000000E+00 0. -1.
        -13    1    3    3    0    0  0.43296105120E+02 -0.21590958285E+02  0.54337311712E+02  0.72754832432E+02  0.00000000000E+00 0.  1.
         13    1    3    3    0    0 -0.14041216461E+02  0.37698574844E+02  0.41138143498E+01  0.40438370065E+02  0.00000000000E+00 0. -1.
         -1    1    1    2    0  502 -0.21850129104E+02  0.30837033272E+02 -0.67202202807E+02  0.77100498215E+02  0.00000000000E+00 0.  1.
<scales pt_clust_5="13000.00000" pt_clust_6="13000.00000" pt_clust_7="13000.00000" pt_clust_8="13000.00000" pt_clust_9="37.79353"></scales>
<clustering>
<clus scale="   37.794">  2  9  1 -1</clus>
<clus scale="   90.999">  7  8 -1 -1</clus>
<clus scale="   92.440">  5  6 -1 -1</clus>
<clus scale="   97.615">  1  7  2 -1</clus>
<clus scale="   37.794">  2  5  1 -1</clus>
</clustering>
</event>
<event>
 9    1  0.1426358E-005  0.9643508E+02  0.7546771E-02  0.1289584E+00
         -4   -1    0    0    0  501 -0.00000000000E+00  0.00000000000E+00  0.13815389196E+03  0.13815389196E+03  0.00000000000E+00 0.  1.
         21   -1    0    0  501  502  0.00000000000E+00 -0.00000000000E+00 -0.16001959166E+03  0.16001959166E+03  0.00000000000E+00 0.  1.
         23    2    1    2    0    0  0.42791179480E+02  0.10600206961E+02  0.40989656243E+02  0.10895782519E+03  0.90819636216E+02 0.  0.
         23    2    1    2    0    0 -0.21721387290E+02  0.17627981391E+01  0.28366140538E+02  0.94779746517E+02  0.87770361158E+02 0.  0.
        -11    1    3    3    0    0  0.64231762808E+01  0.44130375847E+02  0.39334653995E+02  0.59463957746E+02  0.00000000000E+00 0.  1.
         11    1    3    3    0    0  0.36368003200E+02 -0.33530168886E+02  0.16550022482E+01  0.49493867445E+02  0.00000000000E+00 0. -1.
        -13    1    4    4    0    0  0.32227611798E+02 -0.55620422223E+01 -0.13923286644E+01  0.32733680743E+02  0.00000000000E+00 0. -1.
         13    1    4    4    0    0 -0.53948999087E+02  0.73248403613E+01  0.29758469203E+02  0.62046065775E+02  0.00000000000E+00 0.  1.
         -4    1    1    2    0  502 -0.21069792191E+02 -0.12363005100E+02 -0.91221496482E+02  0.94435911911E+02  0.00000000000E+00 0.  1.
<scales pt_clust_5="13000.00000" pt_clust_6="13000.00000" pt_clust_7="13000.00000" pt_clust_8="13000.00000" pt_clust_9="24.42908"></scales>
<clustering>
<clus scale="   24.429">  2  9  1 -1</clus>
<clus scale="   87.770">  7  8 -1 -1</clus>
<clus scale="   90.820">  5  6 -1 -1</clus>
<clus scale="   93.569">  2  7  1 -1</clus>
<clus scale="   24.429">  2  5  1 -1</clus>
</clustering>
</event>
<event>
 9    1  0.1426358E-005  0.1058512E+03  0.7546771E-02  0.1270093E+00
         21   -1    0    0  501  502  0.00000000000E+00  0.00000000000E+00  0.64321613630E+03  0.64321613630E+03  0.00000000000E+00 0. -1.
          4   -1    0    0  502    0 -0.00000000000E+00 -0.00000000000E+00 -0.62105871281E+02  0.62105871281E+02  0.00000000000E+00 0. -1.
         23    2    1    2    0    0  0.39966120490E+02 -0.33883728168E+02 -0.25644108869E+01  0.10764620720E+03  0.93998573924E+02 0.  0.
         23    2    1    2    0    0 -0.14865976155E+02  0.18302596646E+02  0.35301614999E+03  0.36513302048E+03  0.90253743425E+02 0.  0.
        -11    1    3    3    0    0  0.24047307988E+02 -0.58565397255E+02  0.24328619044E+02  0.67823745707E+02  0.00000000000E+00 0. -1.
         11    1    3    3    0    0  0.15918812502E+02  0.24681669088E+02 -0.26893029931E+02  0.39822461492E+02  0.00000000000E+00 0.  1.
        -13    1    4    4    0    0  0.36671537439E+02  0.18571293902E+02  0.13570645849E+03  0.14179540716E+03  0.00000000000E+00 0. -1.
         13    1    4    4    0    0 -0.51537513594E+02 -0.26869725586E+00  0.21730969149E+03  0.22333761332E+03  0.00000000000E+00 0.  1.
          4    1    1    2  501    0 -0.25100144335E+02  0.15581131521E+02  0.23065852592E+03  0.23254277990E+03  0.00000000000E+00 0. -1.
<scales pt_clust_5="13000.00000" pt_clust_6="13000.00000" pt_clust_7="13000.00000" pt_clust_8="13000.00000" pt_clust_9="29.54300"></scales>
<clustering>
<clus scale="   29.543">  1  9  2 -1</clus>
<clus scale="   90.254">  7  8 -1 -1</clus>
<clus scale="   93.999">  5  6 -1 -1</clus>
<clus scale="  102.540">  1  7  2 -1</clus>
<clus scale="   29.543">  1  5  2 -1</clus>
</clustering>
</event>
<event>
 9    1  0.1426358E-005  0.9365878E+02  0.7546771E-02  0.1294858E+00
          3   -1    0    0  502    0 -0.00000000000E+00  0.00000000000E+00  0.32945941597E+03  0.32945941597E+03  0.00000000000E+00 0. -1.
         21   -1    0    0  501  502  0.00000000000E+00 -0.00000000000E+00 -0.79213553526E+02  0.79213553526E+02  0.00000000000E+00 0.  1.
         23    2    1    2    0    0 -0.46563248364E+01 -0.19085174213E+02  0.19395690873E+03  0.21550972242E+03  0.91865296937E+02 0.  0.
         23    2    1    2    0    0  0.40145498150E+02 -0.13766427788E+02  0.89628971464E+02  0.13442428250E+03  0.90748882331E+02 0.  0.
        -11    1    3    3    0    0 -0.21119350745E+02 -0.51832629319E+02  0.13425188115E+03  0.14545176530E+03  0.00000000000E+00 0. -1.
         11    1    3    3    0    0  0.16463025908E+02  0.32747455106E+02  0.59705027576E+02  0.70057957120E+02  0.00000000000E+00 0.  1.
        -11    1    4    4    0    0  0.33015133767E+02  0.30841974173E+02  0.15784675420E+02  0.47857939849E+02  0.00000000000E+00 0.  1.
         11    1    4    4    0    0  0.71303643832E+01 -0.44608401961E+02  0.73844296044E+02  0.86566342651E+02  0.00000000000E+00 0. -1.
          3    1    1    2  501    0 -0.35489173314E+02  0.32851602001E+02 -0.33340017741E+02  0.58738964576E+02  0.00000000000E+00 0. -1.
<scales pt_clust_5="13000.00000" pt_clust_6="13000.00000" pt_clust_7="13000.00000" pt_clust_8="13000.00000" pt_clust_9="48.36020"></scales>
<clustering>
<clus scale="   48.360">  2  9  1 -1</clus>
<clus scale="   90.749">  7  8 -1 -1</clus>
<clus scale="   91.865">  5  6 -1 -1</clus>
<clus scale="   92.564">  2  7  1 -1</clus>
<clus scale="   48.360">  2  5  1 -1</clus>
</clustering>
</event>
<event>
 9    1  0.1426358E-005  0.1588918E+03  0.7546771E-02  0.1190441E+00
          2   -1    0    0  502    0 -0.00000000000E+00  0.00000000000E+00  0.23558204000E+03  0.23558204000E+03  0.00000000000E+00 0. -1.
         21   -1    0    0  501  502  0.00000000000E+00 -0.00000000000E+00 -0.15753008893E+03  0.15753008893E+03  0.00000000000E+00 0. -1.
         23    2    1    2    0    0 -0.76262365509E+02 -0.92285254802E+02  0.65386085705E+02  0.16489162116E+03  0.92635791559E+02 0.  0.
         23    2    1    2    0    0  0.99321472962E+02  0.99457665366E+02  0.58265740455E+02  0.17662094848E+03  0.89685454450E+02 0.  0.
        -13    1    3    3    0    0  0.70647316332E+01 -0.54832411175E+02  0.45007088091E+02  0.71289141717E+02  0.00000000000E+00 0. -1.
         13    1    3    3    0    0 -0.83327097143E+02 -0.37452843626E+02  0.20378997614E+02  0.93602479442E+02  0.00000000000E+00 0.  1.
        -13    1    4    4    0    0  0.54872080861E+02  0.10617216766E+03  0.54962703880E+02  0.13154608797E+03  0.00000000000E+00 0. -1.
         13    1    4    4    0    0  0.44449392101E+02 -0.67145022917E+01  0.33030365753E+01  0.45074860507E+02  0.00000000000E+00 0.  1.
          2    1    1    2  501    0 -0.23059107453E+02 -0.71724105646E+01 -0.45599875093E+02  0.51599559284E+02  0.00000000000E+00 0. -1.
<scales pt_clust_5="13000.00000" pt_clust_6="13000.00000" pt_clust_7="13000.00000" pt_clust_8="13000.00000" pt_clust_9="24.14883"></scales>
<clustering>
<clus scale="   24.149">  2  9  1 -1</clus>
<clus scale="   89.685">  7  8 -1 -1</clus>
<clus scale="   92.636">  5  6 -1 -1</clus>
<clus scale="  157.190">  2  7  1 -1</clus>
<clus scale="   24.149">  2  5  1 -1</clus>
</clustering>
</event>
<event>
 9    1  0.1426358E-005  0.1403042E+03  0.7546771E-02  0.1234593E+00
          1   -1    0    0  502    0 -0.00000000000E+00  0.00000000000E+00  0.39048419985E+03  0.39048419985E+03  0.00000000000E+00 0. -1.
         21   -1    0    0  501  502  0.00000000000E+00 -0.00000000000E+00 -0.91477309862E+02  0.91477309862E+02  0.00000000000E+00 0. -1.
         23    2    1    2    0    0 -0.32220118377E+01 -0.45141468667E+01  0.16513333826E+03  0.18771393552E+03  0.89088401595E+02 0.  0.
         23    2    1    2    0    0  0.59678528267E+02 -0.84193419785E+02  0.12766428125E+03  0.18891512113E+03  0.93491687401E+02 0.  0.
        -11    1    4    4    0    0  0.23715499308E+02  0.18320009049E+02  0.35427296743E+02  0.46401950320E+02  0.00000000000E+00 0.  1.
         11    1    4    4    0    0  0.35963028959E+02 -0.10251342883E+03  0.92236984512E+02  0.14251317081E+03  0.00000000000E+00 0. -1.
        -13    1    3    3    0    0 -0.28963157615E+02  0.23946439456E+02  0.32643166224E+02  0.49778235834E+02  0.00000000000E+00 0.  1.
         13    1    3    3    0    0  0.25741145777E+02 -0.28460586323E+02  0.13249017204E+03  0.13793569968E+03  0.00000000000E+00 0. -1.
          1    1    1    2  501    0 -0.56456516429E+02  0.88707566652E+02  0.62092704689E+01  0.10533245306E+03  0.00000000000E+00 0. -1.
<scales pt_clust_5="13000.00000" pt_clust_6="13000.00000" pt_clust_7="13000.00000" pt_clust_8="13000.00000" pt_clust_9="104.61637"></scales>
<clustering>
<clus scale="   89.088">  7  8 -1 -1</clus>
<clus scale="   89.261">  1  7  2 -1</clus>
<clus scale="   93.492">  5  6 -1 -1</clus>
<clus scale="  104.616">  2  9  1 -1</clus>
<clus scale="  104.616">  2  5  1 -1</clus>
</clustering>
</event>
<event>
 9    1  0.1426358E-005  0.1211664E+03  0.7546771E-02  0.1246616E+00
         21   -1    0    0  501  502  0.00000000000E+00  0.00000000000E+00  0.11060148794E+03  0.11060148794E+03  0.00000000000E+00 0.  1.
          1   -1    0    0  502    0 -0.00000000000E+00 -0.00000000000E+00 -0.27716272298E+03  0.27716272298E+03  0.00000000000E+00 0. -1.
         23    2    1    2    0    0 -0.23356595048E+02  0.48119869283E+02 -0.13977443345E+03  0.18379620756E+03  0.10669161783E+03 0.  0.
         23    2    1    2    0    0  0.44853638708E+02 -0.45811467895E+02 -0.85682543115E+02  0.14122917988E+03  0.92160965482E+02 0.  0.
        -11    1    4    4    0    0  0.15117112410E+02 -0.50086753859E+02 -0.20434105430E+01  0.52358242201E+02  0.00000000000E+00 0.  1.
         11    1    4    4    0    0  0.29736526298E+02  0.42752859644E+01 -0.83639132572E+02  0.88870937678E+02  0.00000000000E+00 0. -1.
        -13    1    3    3    0    0 -0.65508637683E+02  0.23547432310E+02 -0.93348889197E+02  0.11644689044E+03  0.00000000000E+00 0.  1.
         13    1    3    3    0    0  0.42152042635E+02  0.24572436973E+02 -0.46425544251E+02  0.67349317117E+02  0.00000000000E+00 0. -1.
          1    1    1    2  501    0 -0.21497043660E+02 -0.23084013882E+01  0.58895741516E+02  0.62738823481E+02  0.00000000000E+00 0. -1.
<scales pt_clust_5="13000.00000" pt_clust_6="13000.00000" pt_clust_7="13000.00000" pt_clust_8="13000.00000" pt_clust_9="21.62063"></scales>
<clustering>
<clus scale="   21.621">  1  9  2 -1</clus>
<clus scale="   92.161">  5  6 -1 -1</clus>
<clus scale="  106.692">  7  8 -1 -1</clus>
<clus scale="  108.590">  1  5  2 -1</clus>
<clus scale="   21.621">  1  5  2 -1</clus>
</clustering>
</event>
<event>
 9    1  0.1426358E-005  0.9692479E+02  0.7546771E-02  0.1287275E+00
         21   -1    0    0  501  502  0.00000000000E+00  0.00000000000E+00  0.10623189664E+03  0.10623189664E+03  0.00000000000E+00 0.  1.
          2   -1    0    0  502    0 -0.00000000000E+00 -0.00000000000E+00 -0.14889084500E+03  0.14889084500E+03  0.00000000000E+00 0. -1.
         23    2    1    2    0    0 -0.24543507282E+02  0.18804387524E+02 -0.73336306255E+02  0.12080751043E+03  0.90885928614E+02 0.  0.
         23    2    1    2    0    0  0.14678920933E+02 -0.42253449511E+02  0.92753485422E+01  0.10107046356E+03  0.90157538773E+02 0.  0.
        -11    1    3    3    0    0  0.26077826602E+01  0.50737975923E+02 -0.24359371228E+02  0.56342893943E+02  0.00000000000E+00 0. -1.
         11    1    3    3    0    0 -0.27151289942E+02 -0.31933588399E+02 -0.48976935027E+02  0.64464616482E+02  0.00000000000E+00 0.  1.
        -13    1    4    4    0    0 -0.56130367007E+01 -0.63120328526E+02 -0.12662859645E+02  0.64622210335E+02  0.00000000000E+00 0.  1.
         13    1    4    4    0    0  0.20291957634E+02  0.20866879015E+02  0.21938208187E+02  0.36448253221E+02  0.00000000000E+00 0. -1.
          2    1    1    2  501    0  0.98645863491E+01  0.23449061987E+02  0.21402009355E+02  0.33244767653E+02  0.00000000000E+00 0. -1.
<scales pt_clust_5="13000.00000" pt_clust_6="13000.00000" pt_clust_7="13000.00000" pt_clust_8="13000.00000" pt_clust_9="25.43951"></scales>
<clustering>
<clus scale="   25.440">  1  9  2 -1</clus>
<clus scale="   90.158">  7  8 -1 -1</clus>
<clus scale="   90.886">  5  6 -1 -1</clus>
<clus scale="   96.242">  1  7  2 -1</clus>
<clus scale="   25.440">  1  5  2 -1</clus>
</clustering>
</event>
<event>
 9    1  0.1426358E-005  0.9934765E+02  0.7546771E-02  0.1281948E+00
          1   -1    0    0  502    0 -0.00000000000E+00  0.00000000000E+00  0.28373203995E+02  0.28373203995E+02  0.00000000000E+00 0. -1.
         21   -1    0    0  501  502  0.00000000000E+00 -0.00000000000E+00 -0.45087619442E+03  0.45087619442E+03  0.00000000000E+00 0.  1.
         23    2    1    2    0    0  0.15631039561E+02 -0.22528718791E+02 -0.15299465268E+03  0.18037190231E+03  0.91513861399E+02 0.  0.
         23    2    1    2    0    0 -0.25173219743E+02  0.43392726142E+02 -0.20222944494E+03  0.22779437980E+03  0.92070143881E+02 0.  0.
        -11    1    4    4    0    0  0.18095369506E+02  0.56706755161E+02 -0.11118419906E+03  0.12611512438E+03  0.00000000000E+00 0.  1.
         11    1    4    4    0    0 -0.43268589250E+02 -0.13314029019E+02 -0.91045245885E+02  0.10167925542E+03  0.00000000000E+00 0. -1.
        -13    1    3    3    0    0  0.12475369671E+02  0.20804587553E+02 -0.12793582080E+03  0.13021535991E+03  0.00000000000E+00 0.  1.
         13    1    3    3    0    0  0.31556698897E+01 -0.43333306345E+02 -0.25058831877E+02  0.50156542407E+02  0.00000000000E+00 0. -1.
          1    1    1    2  501    0  0.95421801820E+01 -0.20864007351E+02 -0.67278892803E+02  0.71083116295E+02  0.00000000000E+00 0. -1.
<scales pt_clust_5="13000.00000" pt_clust_6="13000.00000" pt_clust_7="13000.00000" pt_clust_8="13000.00000" pt_clust_9="22.94254"></scales>
<clustering>
<clus scale="   22.943">  2  9  1 -1</clus>
<clus scale="   91.514">  7  8 -1 -1</clus>
<clus scale="   92.070">  5  6 -1 -1</clus>
<clus scale="   98.832">  1  7  2 -1</clus>
<clus scale="   22.943">  2  5  1 -1</clus>
</clustering>
</event>
<event>
 9    1  0.1426358E-005  0.1487204E+03  0.7546771E-02  0.1202541E+00
          2   -1    0    0  502    0 -0.00000000000E+00  0.00000000000E+00  0.20194715987E+03  0.20194715987E+03  0.00000000000E+00 0. -1.
         21   -1    0    0  501  502  0.00000000000E+00 -0.00000000000E+00 -0.22995742300E+03  0.22995742300E+03  0.00000000000E+00 0. -1.
         23    2    1    2    0    0 -0.39022830680E+02  0.11515761108E+03  0.92905380365E+02  0.17824726603E+03  0.91414558151E+02 0.  0.
         23    2    1    2    0    0  0.57470539232E+02 -0.95181844892E+02 -0.13633808396E+02  0.14298328499E+03  0.88858835112E+02 0.  0.
        -11    1    3    3    0    0 -0.16202758694E+02 -0.13690820758E+02  0.14637719147E+02  0.25772675145E+02  0.00000000000E+00 0.  1.
         11    1    3    3    0    0 -0.22820071986E+02  0.12884843184E+03  0.78267661218E+02  0.15247459088E+03  0.00000000000E+00 0. -1.
        -13    1    4    4    0    0  0.80613099589E+02 -0.62547436066E+02 -0.13900373705E+02  0.10297511337E+03  0.00000000000E+00 0.  1.
         13    1    4    4    0    0 -0.23142560357E+02 -0.32634408826E+02  0.26656530879E+00  0.40008171620E+02  0.00000000000E+00 0. -1.
          2    1    1    2  501    0 -0.18447708552E+02 -0.19975766185E+02 -0.10728183510E+03  0.11067403186E+03  0.00000000000E+00 0. -1.
<scales pt_clust_5="13000.00000" pt_clust_6="13000.00000" pt_clust_7="13000.00000" pt_clust_8="13000.00000" pt_clust_9="27.19098"></scales>
<clustering>
<clus scale="   27.191">  2  9  1 -1</clus>
<clus scale="   88.859">  7  8 -1 -1</clus>
<clus scale="   91.415">  5  6 -1 -1</clus>
<clus scale="  147.163">  2  7  1 -1</clus>
<clus scale="   27.191">  2  5  1 -1</clus>
</clustering>
</event>
<event>
 9    1  0.1426358E-005  0.9678413E+02  0.7546771E-02  0.1287312E+00
         21   -1    0    0  501  502  0.00000000000E+00  0.00000000000E+00  0.43133725655E+03  0.43133725655E+03  0.00000000000E+00 0. -1.
          3   -1    0    0  502    0 -0.00000000000E+00 -0.00000000000E+00 -0.14335645818E+03  0.14335645818E+03  0.00000000000E+00 0. -1.
         23    2    1    2    0    0  0.29021498271E+01 -0.34525120062E+02 -0.93820934891E+02  0.13448405147E+03  0.89906539738E+02 0.  0.
         23    2    1    2    0    0 -0.82659592341E+02  0.24474355633E+02  0.15116808641E+03  0.19596767964E+03  0.90110703171E+02 0.  0.
        -11    1    3    3    0    0  0.42118356270E+02 -0.37702299684E+02 -0.61821850324E+02  0.83769687321E+02  0.00000000000E+00 0.  1.
         11    1    3    3    0    0 -0.39216206443E+02  0.31771796227E+01 -0.31999084567E+02  0.50714364151E+02  0.00000000000E+00 0. -1.
        -13    1    4    4    0    0 -0.10130955252E+03  0.16456783102E+02  0.13712886092E+03  0.17128565508E+03  0.00000000000E+00 0. -1.
         13    1    4    4    0    0  0.18649960176E+02  0.80175725306E+01  0.14039225495E+02  0.24682024560E+02  0.00000000000E+00 0.  1.
          3    1    1    2  501    0  0.79757442514E+02  0.10050764429E+02  0.23063364685E+03  0.24424198362E+03  0.00000000000E+00 0. -1.
<scales pt_clust_5="13000.00000" pt_clust_6="13000.00000" pt_clust_7="13000.00000" pt_clust_8="13000.00000" pt_clust_9="80.38823"></scales>
<clustering>
<clus scale="   80.388">  1  9  2 -1</clus>
<clus scale="   89.907">  5  6 -1 -1</clus>
<clus scale="   90.111">  7  8 -1 -1</clus>
<clus scale="   96.594">  2  5  1 -1</clus>
<clus scale="   80.388">  1  5  2 -1</clus>
</clustering>
</event>
<event>
 9    1  0.1426358E-005  0.9608837E+02  0.7546771E-02  0.1289052E+00
          3   -1    0    0  502    0 -0.00000000000E+00  0.00000000000E+00  0.95702675748E+02  0.95702675748E+02  0.00000000000E+00 0. -1.
         21   -1    0    0  501  502  0.00000000000E+00 -0.00000000000E+00 -0.16671772950E+03  0.16671772950E+03  0.00000000000E+00 0.  1.
         23    2    1    2    0    0 -0.34473984569E+02  0.32281357585E+01  0.27262474298E+02  0.10093989454E+03  0.90811581489E+02 0.  0.
         23    2    1    2    0    0  0.12673019464E+02 -0.66828646300E+01 -0.10347963012E+03  0.13880278823E+03  0.91394278090E+02 0.  0.
        -11    1    4    4    0    0  0.24807084922E+02 -0.45506448883E+02 -0.58760170693E+02  0.78351681617E+02  0.00000000000E+00 0.  1.
         11    1    4    4    0    0 -0.12134065458E+02  0.38823584254E+02 -0.44719459430E+02  0.60451106612E+02  0.00000000000E+00 0. -1.
        -11    1    3    3    0    0 -0.42783134317E+02 -0.36413427115E+02  0.10751345395E+02  0.57200748981E+02  0.00000000000E+00 0.  1.
         11    1    3    3    0    0  0.83091497482E+01  0.39641562873E+02  0.16511128903E+02  0.43739145559E+02  0.00000000000E+00 0. -1.
          3    1    1    2  501    0  0.21800965105E+02  0.34547288715E+01  0.52021020686E+01  0.22677722483E+02  0.00000000000E+00 0. -1.
<scales pt_clust_5="13000.00000" pt_clust_6="13000.00000" pt_clust_7="13000.00000" pt_clust_8="13000.00000" pt_clust_9="22.07301"></scales>
<clustering>
<clus scale="   22.073">  2  9  1 -1</clus>
<clus scale="   90.812">  7  8 -1 -1</clus>
<clus scale="   91.394">  5  6 -1 -1</clus>
<clus scale="   95.534">  1  7  2 -1</clus>
<clus scale="   22.073">  2  5  1 -1</clus>
</clustering>
</event>
<event>
 9    1  0.1426358E-005  0.1811938E+03  0.7546771E-02  0.1166731E+00
         21   -1    0    0  501  502  0.00000000000E+00  0.00000000000E+00  0.13875676327E+03  0.13875676327E+03  0.00000000000E+00 0.  1.
         -2   -1    0    0    0  501 -0.00000000000E+00 -0.00000000000E+00 -0.80901429118E+03  0.80901429118E+03  0.00000000000E+00 0.  1.
         23    2    1    2    0    0  0.76692268338E+02 -0.12538445083E+03 -0.47268461179E+03  0.50335701163E+03  0.91293890236E+02 0.  0.
         23    2    1    2    0    0 -0.97100124686E+02  0.20378753875E+03 -0.14449831892E+02  0.24417021951E+03  0.91937496666E+02 0.  0.
        -13    1    4    4    0    0 -0.27050146665E+02  0.60516221552E+02  0.37852906445E+02  0.76333256395E+02  0.00000000000E+00 0. -1.
         13    1    4    4    0    0 -0.70049978020E+02  0.14327131720E+03 -0.52302738337E+02  0.16783696312E+03  0.00000000000E+00 0.  1.
        -13    1    3    3    0    0  0.15593768057E+02 -0.40370142287E+02 -0.42646939936E+02  0.60759159609E+02  0.00000000000E+00 0. -1.
         13    1    3    3    0    0  0.61098500281E+02 -0.85014308541E+02 -0.43003767186E+03  0.44259785202E+03  0.00000000000E+00 0.  1.
         -2    1    1    2    0  502  0.20407856348E+02 -0.78403087919E+02 -0.18312308422E+03  0.20024382330E+03  0.00000000000E+00 0.  1.
<scales pt_clust_5="13000.00000" pt_clust_6="13000.00000" pt_clust_7="13000.00000" pt_clust_8="13000.00000" pt_clust_9="81.01562"></scales>
<clustering>
<clus scale="   81.016">  1  9  2 -1</clus>
<clus scale="   91.294">  7  8 -1 -1</clus>
<clus scale="   91.937">  5  6 -1 -1</clus>
<clus scale="  180.868">  2  7  1 -1</clus>
<clus scale="   81.016">  1  5  2 -1</clus>
</clustering>
</event>
<event>
 9    1  0.1426358E-005  0.1006109E+03  0.7546771E-02  0.1279277E+00
          1   -1    0    0  502    0 -0.00000000000E+00  0.00000000000E+00  0.12955221459E+03  0.12955221459E+03  0.00000000000E+00 0. -1.
         21   -1    0    0  501  502  0.00000000000E+00 -0.00000000000E+00 -0.17475371563E+03  0.17475371563E+03  0.00000000000E+00 0.  1.
         23    2    1    2    0    0 -0.40156179729E+02 -0.20437315862E+02  0.74910463825E+02  0.12657975701E+03  0.91545915493E+02 0.  0.
         23    2    1    2    0    0  0.12548119388E+02  0.26801746837E+02 -0.67442467847E+02  0.11791992861E+03  0.92091444558E+02 0.  0.
        -11    1    3    3    0    0 -0.53929381423E+02  0.60051842258E+01  0.79663885830E+02  0.96388666988E+02  0.00000000000E+00 0. -1.
         11    1    3    3    0    0  0.13773201693E+02 -0.26442500087E+02 -0.47534220056E+01  0.30191090019E+02  0.00000000000E+00 0.  1.
        -13    1    4    4    0    0 -0.27462833638E+02 -0.39938386003E+01  0.63868100733E+01  0.28477171930E+02  0.00000000000E+00 0. -1.
         13    1    4    4    0    0  0.40010953027E+02  0.30795585438E+02 -0.73829277920E+02  0.89442756682E+02  0.00000000000E+00 0.  1.
          1    1    1    2  501    0  0.27608060341E+02 -0.63644309757E+01 -0.52669497019E+02  0.59806244604E+02  0.00000000000E+00 0. -1.
<scales pt_clust_5="13000.00000" pt_clust_6="13000.00000" pt_clust_7="13000.00000" pt_clust_8="13000.00000" pt_clust_9="28.33215"></scales>
<clustering>
<clus scale="   28.332">  2  9  1 -1</clus>
<clus scale="   91.546">  5  6 -1 -1</clus>
<clus scale="   92.091">  7  8 -1 -1</clus>
<clus scale="  100.112">  1  5  2 -1</clus>
<clus scale="   28.332">  2  5  1 -1</clus>
</clustering>
</event>
<event>
 9    1  0.1426358E-005  0.9590964E+02  0.7546771E-02  0.1290550E+00
         21   -1    0    0  501  502  0.00000000000E+00  0.00000000000E+00  0.17622100608E+03  0.17622100608E+03  0.00000000000E+00 0.  1.
          2   -1    0    0  502    0 -0.00000000000E+00 -0.00000000000E+00 -0.11133861507E+03  0.11133861507E+03  0.00000000000E+00 0. -1.
         23    2    1    2    0    0  0.34567609402E+01 -0.11446528395E+02 -0.15190456305E+02  0.94470752707E+02  0.92471622381E+02 0.  0.
         23    2    1    2    0    0  0.43768641769E+02  0.51600291695E+02  0.62324974535E+02  0.12860979931E+03  0.89876548238E+02 0.  0.
        -11    1    3    3    0    0  0.41641930122E+02  0.10449171382E+02  0.95425795327E+01  0.43980636091E+02  0.00000000000E+00 0.  1.
         11    1    3    3    0    0 -0.38185169181E+02 -0.21895699777E+02 -0.24733035838E+02  0.50490116616E+02  0.00000000000E+00 0. -1.
        -11    1    4    4    0    0  0.42484944729E+02 -0.98139447940E+01  0.49300412485E+02  0.65816523094E+02  0.00000000000E+00 0.  1.
         11    1    4    4    0    0  0.12836970401E+01  0.61414236489E+02  0.13024562049E+02  0.62793276218E+02  0.00000000000E+00 0. -1.
          2    1    1    2  501    0 -0.47225402709E+02 -0.40153763299E+02  0.17747872786E+02  0.64479069135E+02  0.00000000000E+00 0. -1.
<scales pt_clust_5="13000.00000" pt_clust_6="13000.00000" pt_clust_7="13000.00000" pt_clust_8="13000.00000" pt_clust_9="61.98841"></scales>
<clustering>
<clus scale="   61.988">  1  9  2 -1</clus>
<clus scale="   89.877">  7  8 -1 -1</clus>
<clus scale="   92.472">  5  6 -1 -1</clus>
<clus scale="   93.410">  1  7  2 -1</clus>
<clus scale="   61.988">  1  5  2 -1</clus>
</clustering>
</event>
<event>
 9    1  0.1426358E-005  0.1169548E+03  0.7546771E-02  0.1252260E+00
         21   -1    0    0  501  502  0.00000000000E+00  0.00000000000E+00  0.13777670916E+03  0.13777670916E+03  0.00000000000E+00 0.  1.
          1   -1    0    0  502    0 -0.00000000000E+00 -0.00000000000E+00 -0.21861447839E+03  0.21861447839E+03  0.00000000000E+00 0. -1.
         23    2    1    2    0    0  0.20087825557E+02  0.66705765725E+02 -0.13949118906E+03  0.18227095033E+03  0.94401946980E+02 0.  0.
         23    2    1    2    0    0  0.46522399160E-01 -0.69637005316E+02 -0.39267970928E+01  0.10831546775E+03  0.82870417794E+02 0.  0.
        -13    1    3    3    0    0  0.49330288671E+02  0.66541673881E+02 -0.76201301880E+02  0.11255181096E+03  0.00000000000E+00 0. -1.
         13    1    3    3    0    0 -0.29242463114E+02  0.16409184444E+00 -0.63289887179E+02  0.69719139369E+02  0.00000000000E+00 0.  1.
        -13    1    4    4    0    0  0.33687210853E+01 -0.29308850624E+02 -0.42945727507E+02  0.52102711232E+02  0.00000000000E+00 0. -1.
         13    1    4    4    0    0 -0.33221986862E+01 -0.40328154692E+02  0.39018930414E+02  0.56212756520E+02  0.00000000000E+00 0.  1.
          1    1    1    2  501    0 -0.20134347956E+02  0.29312395901E+01  0.62580216927E+02  0.65804769461E+02  0.00000000000E+00 0. -1.
<scales pt_clust_5="13000.00000" pt_clust_6="13000.00000" pt_clust_7="13000.00000" pt_clust_8="13000.00000" pt_clust_9="20.34660"></scales>
<clustering>
<clus scale="   20.347">  1  9  2 -1</clus>
<clus scale="   82.870">  7  8 -1 -1</clus>
<clus scale="   94.402">  5  6 -1 -1</clus>
<clus scale="  107.862">  1  7  2 -1</clus>
<clus scale="   20.347">  1  5  2 -1</clus>
</clustering>
</event>
<event>
 9    1  0.1426358E-005  0.1799894E+03  0.7546771E-02  0.1168026E+00
         21   -1    0    0  501  502  0.00000000000E+00  0.00000000000E+00  0.55441986050E+03  0.55441986050E+03  0.00000000000E+00 0. -1.
          2   -1    0    0  502    0 -0.00000000000E+00 -0.00000000000E+00 -0.16860971611E+03  0.16860971611E+03  0.00000000000E+00 0. -1.
         23    2    1    2    0    0 -0.14301129417E+03 -0.29340646964E+02 -0.49452344937E+02  0.18047243274E+03  0.93870446554E+02 0.  0.
         23    2    1    2    0    0  0.16746203833E+03  0.12281575490E+03  0.29991664549E+03  0.37626242917E+03  0.92174711442E+02 0.  0.
        -11    1    3    3    0    0 -0.44279924128E+02  0.24975212933E+02  0.11836765435E+02  0.52197528273E+02  0.00000000000E+00 0. -1.
         11    1    3    3    0    0 -0.98731370040E+02 -0.54315859897E+02 -0.61289110372E+02  0.12827490447E+03  0.00000000000E+00 0.  1.
        -13    1    4    4    0    0  0.12737177492E+03  0.39684025867E+02  0.19816749420E+03  0.23889065848E+03  0.00000000000E+00 0.  1.
         13    1    4    4    0    0  0.40090263412E+02  0.83131729033E+02  0.10174915129E+03  0.13737177069E+03  0.00000000000E+00 0. -1.
          2    1    1    2  501    0 -0.24450744162E+02 -0.93475107936E+02  0.13534584383E+03  0.16629471470E+03  0.00000000000E+00 0. -1.
<scales pt_clust_5="13000.00000" pt_clust_6="13000.00000" pt_clust_7="13000.00000" pt_clust_8="13000.00000" pt_clust_9="96.62005"></scales>
<clustering>
<clus scale="   92.175">  7  8 -1 -1</clus>
<clus scale="   93.870">  5  6 -1 -1</clus>
<clus scale="   96.620">  1  9  2 -1</clus>
<clus scale="  179.111">  1  7  2 -1</clus>
<clus scale="   96.620">  1  5  2 -1</clus>
</clustering>
</event>
<event>
 9    1  0.1426358E-005  0.9407792E+02  0.7546771E-02  0.1295428E+00
          1   -1    0    0  502    0 -0.00000000000E+00  0.00000000000E+00  0.44325332110E+03  0.44325332110E+03  0.00000000000E+00 0. -1.
         21   -1    0    0  501  502  0.00000000000E+00 -0.00000000000E+00 -0.58042132047E+02  0.58042132047E+02  0.00000000000E+00 0. -1.
         23    2    1    2    0    0  0.15779979571E+02 -0.95799172785E+00  0.31786236063E+03  0.33120245744E+03  0.91698756839E+02 0.  0.
         23    2    1    2    0    0 -0.31527028878E+02  0.33304561824E+02  0.84477927048E+02  0.13024734127E+03  0.87890285932E+02 0.  0.
        -11    1    4    4    0    0  0.15604847949E+01 -0.27328998159E+02  0.11288314158E+02  0.29609716137E+02  0.00000000000E+00 0.  1.
         11    1    4    4    0    0 -0.33087513673E+02  0.60633559983E+02  0.73189612890E+02  0.10063762513E+03  0.00000000000E+00 0. -1.
        -13    1    3    3    0    0  0.43339175776E+02  0.19829911751E+02  0.25564892845E+03  0.26005361789E+03  0.00000000000E+00 0.  1.
         13    1    3    3    0    0 -0.27559196205E+02 -0.20787903479E+02  0.62213432175E+02  0.71148839551E+02  0.00000000000E+00 0. -1.
          1    1    1    2  501    0  0.15747049307E+02 -0.32346570096E+02 -0.17129098616E+02  0.39845654446E+02  0.00000000000E+00 0. -1.
<scales pt_clust_5="13000.00000" pt_clust_6="13000.00000" pt_clust_7="13000.00000" pt_clust_8="13000.00000" pt_clust_9="35.97597"></scales>
<clustering>
<clus scale="   35.976">  2  9  1 -1</clus>
<clus scale="   87.890">  5  6 -1 -1</clus>
<clus scale="   90.370">  2  5  1 -1</clus>
<clus scale="   91.699">  7  8 -1 -1</clus>
<clus scale="   35.976">  2  5  1 -1</clus>
</clustering>
</event>
<event>
 9    1  0.1426358E-005  0.1658464E+03  0.7546771E-02  0.1182264E+00
         21   -1    0    0  501  502  0.00000000000E+00  0.00000000000E+00  0.11919374155E+03  0.11919374155E+03  0.00000000000E+00 0. -1.
          2   -1    0    0  502    0 -0.00000000000E+00 -0.00000000000E+00 -0.38203389452E+03  0.38203389452E+03  0.00000000000E+00 0. -1.
         23    2    1    2    0    0 -0.97049657529E+02 -0.64549510451E+02 -0.11609316992E+03  0.18786074466E+03  0.90712512681E+02 0.  0.
         23    2    1    2    0    0  0.13092960604E+03  0.98846504660E+02 -0.17584054877E+03  0.25705907411E+03  0.90809007072E+02 0.  0.
        -11    1    3    3    0    0 -0.81657047261E+02 -0.86134734514E+02 -0.80227602243E+02  0.14326037142E+03  0.00000000000E+00 0.  1.
         11    1    3    3    0    0 -0.15392610269E+02  0.21585224063E+02 -0.35865567675E+02  0.44600373243E+02  0.00000000000E+00 0. -1.
        -11    1    4    4    0    0  0.13933065354E+02  0.63842251594E+02 -0.63923052230E+02  0.91411815457E+02  0.00000000000E+00 0.  1.
         11    1    4    4    0    0  0.11699654068E+03  0.35004253066E+02 -0.11191749655E+03  0.16564725865E+03  0.00000000000E+00 0. -1.
          2    1    1    2  501    0 -0.33879948509E+02 -0.34296994209E+02  0.29093565724E+02  0.56307817302E+02  0.00000000000E+00 0. -1.
<scales pt_clust_5="13000.00000" pt_clust_6="13000.00000" pt_clust_7="13000.00000" pt_clust_8="13000.00000" pt_clust_9="48.20928"></scales>
<clustering>
<clus scale="   48.209">  1  9  2 -1</clus>
<clus scale="   90.713">  5  6 -1 -1</clus>
<clus scale="   90.809">  7  8 -1 -1</clus>
<clus scale="  165.794">  2  5  1 -1</clus>
<clus scale="   48.209">  1  5  2 -1</clus>
</clustering>
</event>
<event>
 9    1  0.1426358E-005  0.1004447E+03  0.7546771E-02  0.1279673E+00
         21   -1    0    0  501  502  0.00000000000E+00  0.00000000000E+00  0.17424082706E+02  0.17424082706E+02  0.00000000000E+00 0.  1.
          2   -1    0    0  502    0 -0.00000000000E+00 -0.00000000000E+00 -0.88686323734E+03  0.88686323734E+03  0.00000000000E+00 0. -1.
         23    2    1    2    0    0  0.71464524420E+01 -0.33527155166E+02 -0.39860354584E+03  0.41049461638E+03  0.91901585423E+02 0.  0.
         23    2    1    2    0    0  0.30254710609E+02  0.45677737728E+02 -0.30659483207E+03  0.32490955947E+03  0.92542031244E+02 0.  0.
        -13    1    3    3    0    0 -0.20138831447E+02  0.21344999047E+02 -0.65115278477E+02  0.71422552513E+02  0.00000000000E+00 0.  1.
         13    1    3    3    0    0  0.27285283889E+02 -0.54872154213E+02 -0.33348826736E+03  0.33907206386E+03  0.00000000000E+00 0. -1.
        -13    1    4    4    0    0  0.50220419296E+02  0.47156698340E+02 -0.29230300549E+03  0.30031132468E+03  0.00000000000E+00 0.  1.
         13    1    4    4    0    0 -0.19965708687E+02 -0.14789606122E+01 -0.14291826576E+02  0.24598234789E+02  0.00000000000E+00 0. -1.
          2    1    1    2  501    0 -0.37401163051E+02 -0.12150582562E+02 -0.16424077673E+03  0.16888314420E+03  0.00000000000E+00 0. -1.
<scales pt_clust_5="13000.00000" pt_clust_6="13000.00000" pt_clust_7="13000.00000" pt_clust_8="13000.00000" pt_clust_9="39.32538"></scales>
<clustering>
<clus scale="   39.325">  1  9  2 -1</clus>
<clus scale="   91.902">  5  6 -1 -1</clus>
<clus scale="   92.542">  7  8 -1 -1</clus>
<clus scale="   99.855">  2  5  1 -1</clus>
<clus scale="   39.325">  1  5  2 -1</clus>
</clustering>
</event>
<event>
 9    1  0.1426358E-005  0.1284953E+03  0.7546771E-02  0.1229961E+00
          1   -1    0    0  502    0 -0.00000000000E+00  0.00000000000E+00  0.33608468778E+03  0.33608468778E+03  0.00000000000E+00 0. -1.
         21   -1    0    0  501  502  0.00000000000E+00 -0.00000000000E+00 -0.25564436802E+03  0.25564436802E+03  0.00000000000E+00 0.  1.
         23    2    1    2    0    0  0.64824804892E+02 -0.62038714853E+02  0.28609915347E+03  0.31325926490E+03  0.90706030431E+02 0.  0.
         23    2    1    2    0    0 -0.47062495855E+02  0.88571560349E+02 -0.20572217656E+03  0.24654025090E+03  0.91655232071E+02 0.  0.
        -11    1    3    3    0    0  0.28669026781E+02 -0.75041321392E+02  0.13269375062E+03  0.15511526187E+03  0.00000000000E+00 0.  1.
         11    1    3    3    0    0  0.36155778111E+02  0.13002606539E+02  0.15340540286E+03  0.15814400303E+03  0.00000000000E+00 0. -1.
        -13    1    4    4    0    0 -0.46642316359E+02  0.83500241830E+01 -0.38434806734E+02  0.61011990197E+02  0.00000000000E+00 0. -1.
         13    1    4    4    0    0 -0.42017949624E+00  0.80221536166E+02 -0.16728736983E+03  0.18552826070E+03  0.00000000000E+00 0.  1.
          1    1    1    2  501    0 -0.17762309037E+02 -0.26532845497E+02  0.63342856254E-01  0.31929540003E+02  0.00000000000E+00 0. -1.
<scales pt_clust_5="13000.00000" pt_clust_6="13000.00000" pt_clust_7="13000.00000" pt_clust_8="13000.00000" pt_clust_9="31.92948"></scales>
<clustering>
<clus scale="   31.929">  2  9  1 -1</clus>
<clus scale="   90.706">  5  6 -1 -1</clus>
<clus scale="   91.655">  7  8 -1 -1</clus>
<clus scale="  127.820">  1  5  2 -1</clus>
<clus scale="   31.929">  2  5  1 -1</clus>
</clustering>
</event>
<event>
 9    1  0.1426358E-005  0.9759077E+02  0.7546771E-02  0.1289281E+00
          1   -1    0    0  502    0 -0.00000000000E+00  0.00000000000E+00  0.43976175076E+02  0.43976175076E+02  0.00000000000E+00 0. -1.
         21   -1    0    0  501  502  0.00000000000E+00 -0.00000000000E+00 -0.39570314533E+03  0.39570314533E+03  0.00000000000E+00 0.  1.
         23    2    1    2    0    0  0.28421663831E+02 -0.24965779656E+02 -0.13153035762E+03  0.16518959880E+03  0.92500202424E+02 0.  0.
         23    2    1    2    0    0  0.14817211434E+02  0.35241921324E+02 -0.20855599109E+03  0.22854732841E+03  0.85303793176E+02 0.  0.
        -11    1    4    4    0    0 -0.12432154667E+02  0.54734112348E+02 -0.15995924151E+03  0.16952091454E+03  0.00000000000E+00 0.  1.
         11    1    4    4    0    0  0.27249366101E+02 -0.19492191024E+02 -0.48596749586E+02  0.59026413869E+02  0.00000000000E+00 0. -1.
        -11    1    3    3    0    0 -0.14944429711E+00 -0.51373367792E+02 -0.10832272156E+03  0.11988768601E+03  0.00000000000E+00 0. -1.
         11    1    3    3    0    0  0.28571108128E+02  0.26407588136E+02 -0.23207636062E+02  0.45301912790E+02  0.00000000000E+00 0.  1.
          1    1    1    2  501    0 -0.43238875265E+02 -0.10276141668E+02 -0.11640621535E+02  0.45942393184E+02  0.00000000000E+00 0. -1.
<scales pt_clust_5="13000.00000" pt_clust_6="13000.00000" pt_clust_7="13000.00000" pt_clust_8="13000.00000" pt_clust_9="44.44324"></scales>
<clustering>
<clus scale="   44.443">  2  9  1 -1</clus>
<clus scale="   85.304">  5  6 -1 -1</clus>
<clus scale="   90.799">  2  5  1 -1</clus>
<clus scale="   92.500">  7  8 -1 -1</clus>
<clus scale="   44.443">  2  5  1 -1</clus>
</clustering>
</event>
<event>
 9    1  0.1426358E-005  0.1192466E+03  0.7546771E-02  0.1265633E+00
         21   -1    0    0  501  502  0.00000000000E+00  0.00000000000E+00  0.68376518292E+03  0.68376518292E+03  0.00000000000E+00 0. -1.
          3   -1    0    0  502    0 -0.00000000000E+00 -0.00000000000E+00 -0.99401314038E+02  0.99401314038E+02  0.00000000000E+00 0. -1.
         23    2    1    2    0    0  0.17709152069E+02 -0.36512290399E+02 -0.65046822674E+02  0.10172029932E+03  0.66851841687E+02 0.  0.
         23    2    1    2    0    0  0.27392397503E+02 -0.35568361068E+02  0.21119202948E+03  0.23505470367E+03  0.92914953877E+02 0.  0.
        -13    1    3    3    0    0 -0.10210550430E+02 -0.26016114084E+02 -0.66213319859E+02  0.71870002497E+02  0.00000000000E+00 0. -1.
         13    1    3    3    0    0  0.27919702498E+02 -0.10496176314E+02  0.11664971855E+01  0.29850296824E+02  0.00000000000E+00 0.  1.
        -13    1    4    4    0    0  0.24941028499E+02  0.24202535290E+02  0.12769570620E+03  0.13234051155E+03  0.00000000000E+00 0.  1.
         13    1    4    4    0    0  0.24513690036E+01 -0.59770896357E+02  0.83496323279E+02  0.10271419212E+03  0.00000000000E+00 0. -1.
          3    1    1    2  501    0 -0.45101549571E+02  0.72080651467E+02  0.43821866208E+03  0.44639149397E+03  0.00000000000E+00 0. -1.
<scales pt_clust_5="13000.00000" pt_clust_6="13000.00000" pt_clust_7="13000.00000" pt_clust_8="13000.00000" pt_clust_9="74.74333"></scales>
<clustering>
<clus scale="   66.852">  5  6 -1 -1</clus>
<clus scale="   78.204">  2  5  1 -1</clus>
<clus scale="   74.743">  1  9  2 -1</clus>
<clus scale="   92.915">  7  8 -1 -1</clus>
<clus scale="   74.743">  1  5  2 -1</clus>
</clustering>
</event>
<event>
 9    1  0.1426358E-005  0.1029482E+03  0.7546771E-02  0.1274900E+00
         -4   -1    0    0    0  501 -0.00000000000E+00  0.00000000000E+00  0.27574891279E+03  0.27574891279E+03  0.00000000000E+00 0.  1.
         21   -1    0    0  501  502  0.00000000000E+00 -0.00000000000E+00 -0.16246332129E+03  0.16246332129E+03  0.00000000000E+00 0.  1.
         23    2    1    2    0    0 -0.22940780694E+02 -0.32108020120E+02  0.13873798783E+03  0.17005181220E+03  0.90067670076E+02 0.  0.
         23    2    1    2    0    0  0.31979978201E+02  0.59188547677E+02  0.93841233731E+02  0.14549815287E+03  0.88529837666E+02 0.  0.
        -13    1    4    4    0    0  0.41223582917E+02 -0.55316537629E+01  0.17869684764E+02  0.45269289981E+02  0.00000000000E+00 0. -1.
         13    1    4    4    0    0 -0.92436047151E+01  0.64720201440E+02  0.75971548968E+02  0.10022886288E+03  0.00000000000E+00 0.  1.
        -13    1    3    3    0    0 -0.15798055126E+02  0.23592576075E+02  0.94174341063E+02  0.98361550955E+02  0.00000000000E+00 0.  1.
         13    1    3    3    0    0 -0.71427255684E+01 -0.55700596196E+02  0.44563646763E+02  0.71690261249E+02  0.00000000000E+00 0. -1.
         -4    1    1    2    0  502 -0.90391975073E+01 -0.27080527557E+02 -0.11929363006E+03  0.12266226901E+03  0.00000000000E+00 0.  1.
<scales pt_clust_5="13000.00000" pt_clust_6="13000.00000" pt_clust_7="13000.00000" pt_clust_8="13000.00000" pt_clust_9="28.54929"></scales>
<clustering>
<clus scale="   28.549">  2  9  1 -1</clus>
<clus scale="   88.530">  5  6 -1 -1</clus>
<clus scale="   90.068">  7  8 -1 -1</clus>
<clus scale="  101.605">  2  5  1 -1</clus>
<clus scale="   28.549">  2  5  1 -1</clus>
</clustering>
</event>
<event>
 9    1  0.1426358E-005  0.1949143E+03  0.7546771E-02  0.1154471E+00
          1   -1    0    0  502    0 -0.00000000000E+00  0.00000000000E+00  0.92639555820E+03  0.92639555820E+03  0.00000000000E+00 0. -1.
         21   -1    0    0  501  502  0.00000000000E+00 -0.00000000000E+00 -0.12864901048E+03  0.12864901048E+03  0.00000000000E+00 0. -1.
         23    2    1    2    0    0  0.12916277133E+03  0.14552135083E+03  0.55440834265E+03  0.59463776515E+03  0.91465711042E+02 0.  0.
         23    2    1    2    0    0 -0.11193305027E+03 -0.91836163675E+02  0.32082943920E+03  0.36457437701E+03  0.94973989116E+02 0.  0.
        -11    1    4    4    0    0 -0.81255877333E+02 -0.55024341724E+01  0.14506344688E+03  0.16636164824E+03  0.00000000000E+00 0.  1.
         11    1    4    4    0    0 -0.30677172937E+02 -0.86333729503E+02  0.17576599232E+03  0.19821272877E+03  0.00000000000E+00 0. -1.
        -13    1    3    3    0    0 -0.92406889286E+01  0.19828143684E+02  0.11574583765E+03  0.11779492581E+03  0.00000000000E+00 0.  1.
         13    1    3    3    0    0  0.13840346026E+03  0.12569320714E+03  0.43866250500E+03  0.47684283934E+03  0.00000000000E+00 0. -1.
          1    1    1    2  501    0 -0.17229721058E+02 -0.53685187150E+02 -0.77491234132E+02  0.95832426529E+02  0.00000000000E+00 0. -1.
<scales pt_clust_5="13000.00000" pt_clust_6="13000.00000" pt_clust_7="13000.00000" pt_clust_8="13000.00000" pt_clust_9="56.38229"></scales>
<clustering>
<clus scale="   56.382">  2  9  1 -1</clus>
<clus scale="   91.466">  7  8 -1 -1</clus>
<clus scale="   94.974">  5  6 -1 -1</clus>
<clus scale="  193.229">  1  7  2 -1</clus>
<clus scale="   56.382">  2  5  1 -1</clus>
</clustering>
</event>
<event>
 9    1  0.1426358E-005  0.1924239E+03  0.7546771E-02  0.1156435E+00
         -1   -1    0    0    0  501 -0.00000000000E+00  0.00000000000E+00  0.67712919675E+03  0.67712919675E+03  0.00000000000E+00 0.  1.
         21   -1    0    0  501  502  0.00000000000E+00 -0.00000000000E+00 -0.10393855060E+03  0.10393855060E+03  0.00000000000E+00 0.  1.
         23    2    1    2    0    0 -0.17352095434E+03 -0.47858842019E+02  0.40216710101E+03  0.44981043553E+03  0.90504477356E+02 0.  0.
         23    2    1    2    0    0  0.13999631750E+03  0.67192467805E+02  0.20964149785E+03  0.27658522906E+03  0.91847888756E+02 0.  0.
        -11    1    3    3    0    0 -0.21419185043E+02 -0.41122580515E+02  0.12899795044E+03  0.13707778571E+03  0.00000000000E+00 0. -1.
         11    1    3    3    0    0 -0.15210176930E+03 -0.67362615031E+01  0.27316915057E+03  0.31273264983E+03  0.00000000000E+00 0.  1.
        -13    1    4    4    0    0  0.11880398310E+03  0.88809239414E+02  0.15792643484E+03  0.21666154765E+03  0.00000000000E+00 0. -1.
         13    1    4    4    0    0  0.21192334399E+02 -0.21616771609E+02  0.51715063012E+02  0.59923681416E+02  0.00000000000E+00 0.  1.
         -1    1    1    2    0  502  0.33524636839E+02 -0.19333625787E+02 -0.38617952711E+02  0.54672082756E+02  0.00000000000E+00 0.  1.
<scales pt_clust_5="13000.00000" pt_clust_6="13000.00000" pt_clust_7="13000.00000" pt_clust_8="13000.00000" pt_clust_9="38.70000"></scales>
<clustering>
<clus scale="   38.700">  2  9  1 -1</clus>
<clus scale="   90.504">  5  6 -1 -1</clus>
<clus scale="   91.848">  7  8 -1 -1</clus>
<clus scale="  191.786">  1  5  2 -1</clus>
<clus scale="   38.700">  2  5  1 -1</clus>
</clustering>
</event>
<event>
 9    1  0.1426358E-005  0.9965733E+02  0.7546771E-02  0.1285026E+00
         21   -1    0    0  501  502  0.00000000000E+00  0.00000000000E+00  0.69404704803E+02  0.69404704803E+02  0.00000000000E+00 0. -1.
         -1   -1    0    0    0  501 -0.00000000000E+00 -0.00000000000E+00 -0.24790119222E+03  0.24790119222E+03  0.00000000000E+00 0.  1.
         23    2    1    2    0    0 -0.44408595282E+02 -0.22169063737E+02 -0.12939440693E+03  0.16292076210E+03  0.85654372074E+02 0.  0.
         23    2    1    2    0    0 -0.44926096475E+01  0.91907019567E+01 -0.20373055728E+02  0.96203328649E+02  0.93463182588E+02 0.  0.
        -11    1    4    4    0    0 -0.44159068614E+02 -0.14500654620E+02 -0.18306654520E+02  0.49954238308E+02  0.00000000000E+00 0.  1.
         11    1    4    4    0    0  0.39666458966E+02  0.23691356577E+02 -0.20664012079E+01  0.46249090341E+02  0.00000000000E+00 0. -1.
        -13    1    3    3    0    0 -0.67615455175E+02 -0.30546576828E+02 -0.93430084466E+02  0.11930684732E+03  0.00000000000E+00 0.  1.
         13    1    3    3    0    0  0.23206859893E+02  0.83775130915E+01 -0.35964322468E+02  0.43613914778E+02  0.00000000000E+00 0. -1.
         -1    1    1    2    0  502  0.48901204929E+02  0.12978361780E+02 -0.28729024757E+02  0.58181806276E+02  0.00000000000E+00 0.  1.
<scales pt_clust_5="13000.00000" pt_clust_6="13000.00000" pt_clust_7="13000.00000" pt_clust_8="13000.00000" pt_clust_9="50.59413"></scales>
<clustering>
<clus scale="   50.594">  1  9  2 -1</clus>
<clus scale="   85.654">  7  8 -1 -1</clus>
<clus scale="   92.374">  2  7  1 -1</clus>
<clus scale="   93.463">  5  6 -1 -1</clus>
<clus scale="   50.594">  1  5  2 -1</clus>
</clustering>
</event>
<event>
 9    1  0.1426358E-005  0.9979203E+02  0.7546771E-02  0.1281706E+00
         21   -1    0    0  501  502  0.00000000000E+00  0.00000000000E+00  0.71916453092E+02  0.71916453092E+02  0.00000000000E+00 0.  1.
         -3   -1    0    0    0  501 -0.00000000000E+00 -0.00000000000E+00 -0.37275665466E+03  0.37275665466E+03  0.00000000000E+00 0.  1.
         23    2    1    2    0    0  0.36362099207E+02  0.14581960843E+02 -0.13081216240E+03  0.16276038063E+03  0.88567961643E+02 0.  0.
         23    2    1    2    0    0 -0.35439489261E+02  0.79343044021E+02 -0.12710520581E+03  0.17864062358E+03  0.90584010810E+02 0.  0.
        -11    1    3    3    0    0  0.12193822351E+02 -0.34932825621E+02 -0.78506759455E+02  0.86788840812E+02  0.00000000000E+00 0. -1.
         11    1    3    3    0    0  0.24168276856E+02  0.49514786464E+02 -0.52305402944E+02  0.75971539816E+02  0.00000000000E+00 0.  1.
        -13    1    4    4    0    0 -0.31314651102E+02  0.59501881136E+02 -0.20744201835E+02  0.70366207388E+02  0.00000000000E+00 0.  1.
         13    1    4    4    0    0 -0.41248381588E+01  0.19841162885E+02 -0.10636100398E+03  0.10827441619E+03  0.00000000000E+00 0. -1.
         -3    1    1    2    0  502 -0.92260994590E+00 -0.93925004864E+02 -0.42922833361E+02  0.10327210355E+03  0.00000000000E+00 0.  1.
<scales pt_clust_5="13000.00000" pt_clust_6="13000.00000" pt_clust_7="13000.00000" pt_clust_8="13000.00000" pt_clust_9="93.92954"></scales>
<clustering>
<clus scale="   88.568">  5  6 -1 -1</clus>
<clus scale="   90.584">  7  8 -1 -1</clus>
<clus scale="   93.930">  1  9  2 -1</clus>
<clus scale="   97.966">  2  5  1 -1</clus>
<clus scale="   93.930">  1  5  2 -1</clus>
</clustering>
</event>
<event>
 9    1  0.1426358E-005  0.1297922E+03  0.7546771E-02  0.1229643E+00
         21   -1    0    0  501  502  0.00000000000E+00  0.00000000000E+00  0.35893552278E+02  0.35893552278E+02  0.00000000000E+00 0. -1.
         -3   -1    0    0    0  501 -0.00000000000E+00 -0.00000000000E+00 -0.75006099642E+03  0.75006099642E+03  0.00000000000E+00 0.  1.
         23    2    1    2    0    0  0.85949485856E+02  0.30979026808E+02 -0.45311352769E+03  0.46991259068E+03  0.84610635758E+02 0.  0.
         23    2    1    2    0    0 -0.75342687183E+02 -0.61383411342E+02 -0.15234065359E+03  0.20265984171E+03  0.91754525798E+02 0.  0.
        -11    1    4    4    0    0 -0.95453172550E+02 -0.38405238126E+02 -0.11235504538E+03  0.15234804458E+03  0.00000000000E+00 0.  1.
         11    1    4    4    0    0  0.20110485367E+02 -0.22978173216E+02 -0.39985608209E+02  0.50311797125E+02  0.00000000000E+00 0. -1.
        -11    1    3    3    0    0  0.95193477258E+01 -0.25475866053E+02 -0.14320050024E+03  0.14576014888E+03  0.00000000000E+00 0.  1.
         11    1    3    3    0    0  0.76430138130E+02  0.56454892861E+02 -0.30991302745E+03  0.32415244180E+03  0.00000000000E+00 0. -1.
         -3    1    1    2    0  502 -0.10606798672E+02  0.30404384534E+02 -0.10871326286E+03  0.11338211631E+03  0.00000000000E+00 0.  1.
<scales pt_clust_5="13000.00000" pt_clust_6="13000.00000" pt_clust_7="13000.00000" pt_clust_8="13000.00000" pt_clust_9="32.20143"></scales>
<clustering>
<clus scale="   32.201">  1  9  2 -1</clus>
<clus scale="   84.611">  7  8 -1 -1</clus>
<clus scale="   91.755">  5  6 -1 -1</clus>
<clus scale="  124.844">  2  7  1 -1</clus>
<clus scale="   32.201">  1  5  2 -1</clus>
</clustering>
</event>
<event>
 9    1  0.1426358E-005  0.9968960E+02  0.7546771E-02  0.1281314E+00
         -4   -1    0    0    0  501 -0.00000000000E+00  0.00000000000E+00  0.82407778344E+02  0.82407778344E+02  0.00000000000E+00 0. -1.
         21   -1    0    0  501  502  0.00000000000E+00 -0.00000000000E+00 -0.23602794672E+03  0.23602794672E+03  0.00000000000E+00 0. -1.
         23    2    1    2    0    0  0.23259603923E+02  0.35096581041E+02  0.17094005174E+02  0.10136552943E+03  0.90608975101E+02 0.  0.
         23    2    1    2    0    0 -0.40321981838E+02 -0.10151167274E+02 -0.10793705193E+03  0.14739691950E+03  0.91359379826E+02 0.  0.
        -13    1    4    4    0    0 -0.16431149889E+02  0.34408767904E+02 -0.82308841150E+02  0.90712134396E+02  0.00000000000E+00 0. -1.
         13    1    4    4    0    0 -0.23890831950E+02 -0.44559935178E+02 -0.25628210776E+02  0.56684785100E+02  0.00000000000E+00 0.  1.
        -13    1    3    3    0    0 -0.18940155568E+01 -0.23576408086E+02 -0.16872880067E+02  0.29053887776E+02  0.00000000000E+00 0.  1.
         13    1    3    3    0    0  0.25153619480E+02  0.58672989127E+02  0.33966885241E+02  0.72311641656E+02  0.00000000000E+00 0. -1.
         -4    1    1    2    0  502  0.17062377915E+02 -0.24945413767E+02 -0.62777121628E+02  0.69673276139E+02  0.00000000000E+00 0. -1.
<scales pt_clust_5="13000.00000" pt_clust_6="13000.00000" pt_clust_7="13000.00000" pt_clust_8="13000.00000" pt_clust_9="30.22248"></scales>
<clustering>
<clus scale="   30.222">  2  9  1 -1</clus>
<clus scale="   90.609">  7  8 -1 -1</clus>
<clus scale="   91.359">  5  6 -1 -1</clus>
<clus scale="   99.002">  1  7  2 -1</clus>
<clus scale="   30.222">  2  5  1 -1</clus>
</clustering>
</event>
<event>
 9    1  0.1426358E-005  0.1789589E+03  0.7546771E-02  0.1171066E+00
          2   -1    0    0  502    0 -0.00000000000E+00  0.00000000000E+00  0.19245679854E+03  0.19245679854E+03  0.00000000000E+00 0. -1.
         21   -1    0    0  501  502  0.00000000000E+00 -0.00000000000E+00 -0.24568640811E+03  0.24568640811E+03  0.00000000000E+00 0. -1.
         23    2    1    2    0    0  0.16842629471E+03 -0.18328648538E+02  0.59971775930E+02  0.20132302796E+03  0.90724812329E+02 0.  0.
         23    2    1    2    0    0 -0.12685245986E+03 -0.22847314688E+02 -0.95894133664E+02  0.17580063545E+03  0.71390701013E+02 0.  0.
        -11    1    3    3    0    0  0.19515838105E+02  0.26285933454E+02 -0.44748592653E+01  0.33043041627E+02  0.00000000000E+00 0.  1.
         11    1    3    3    0    0  0.14891045660E+03 -0.44614581992E+02  0.64446635195E+02  0.16827998633E+03  0.00000000000E+00 0. -1.
        -11    1    4    4    0    0 -0.31027931468E+02 -0.21059685033E+02 -0.65109887043E+02  0.75136810258E+02  0.00000000000E+00 0.  1.
         11    1    4    4    0    0 -0.95824528397E+02 -0.17876296548E+01 -0.30784246621E+02  0.10066382519E+03  0.00000000000E+00 0. -1.
          2    1    1    2  501    0 -0.41573834844E+02  0.41175963226E+02 -0.17307251829E+02  0.61019543239E+02  0.00000000000E+00 0. -1.
<scales pt_clust_5="13000.00000" pt_clust_6="13000.00000" pt_clust_7="13000.00000" pt_clust_8="13000.00000" pt_clust_9="58.51362"></scales>
<clustering>
<clus scale="   58.514">  2  9  1 -1</clus>
<clus scale="   71.391">  7  8 -1 -1</clus>
<clus scale="   90.725">  5  6 -1 -1</clus>
<clus scale="  169.976">  2  7  1 -1</clus>
<clus scale="   58.514">  2  5  1 -1</clus>
</clustering>
</event>
<event>
 9    1  0.1426358E-005  0.9363495E+02  0.7546771E-02  0.1294480E+00
         21   -1    0    0  501  502  0.00000000000E+00  0.00000000000E+00  0.16363014129E+03  0.16363014129E+03  0.00000000000E+00 0.  1.
         -1   -1    0    0    0  501 -0.00000000000E+00 -0.00000000000E+00 -0.84088247567E+02  0.84088247567E+02  0.00000000000E+00 0.  1.
         23    2    1    2    0    0 -0.17815745003E+02  0.18965994269E+02  0.10107400988E+01  0.95202602675E+02  0.91571852946E+02 0.  0.
         23    2    1    2    0    0 -0.53121448593E+01 -0.44117260317E+01  0.83921297826E+02  0.12466296464E+03  0.91925993687E+02 0.  0.
        -11    1    4    4    0    0  0.33240859585E+02 -0.25828470056E+02  0.19015523161E+02  0.46191500652E+02  0.00000000000E+00 0. -1.
         11    1    4    4    0    0 -0.38553004444E+02  0.21416744024E+02  0.64905774665E+02  0.78471463992E+02  0.00000000000E+00 0.  1.
        -11    1    3    3    0    0 -0.18122175267E+02 -0.35644266658E+02 -0.48423362439E+01  0.40278718975E+02  0.00000000000E+00 0.  1.
         11    1    3    3    0    0  0.30643026459E+00  0.54610260926E+02  0.58530763426E+01  0.54923883700E+02  0.00000000000E+00 0. -1.
         -1    1    1    2    0  502  0.23127889862E+02 -0.14554268237E+02 -0.53901441979E+01  0.27852821542E+02  0.00000000000E+00 0.  1.
<scales pt_clust_5="13000.00000" pt_clust_6="13000.00000" pt_clust_7="13000.00000" pt_clust_8="13000.00000" pt_clust_9="27.32630"></scales>
<clustering>
<clus scale="   27.326">  1  9  2 -1</clus>
<clus scale="   91.572">  7  8 -1 -1</clus>
<clus scale="   91.926">  5  6 -1 -1</clus>
<clus scale="   93.287">  2  7  1 -1</clus>
<clus scale="   27.326">  1  5  2 -1</clus>
</clustering>
</event>
<event>
 9    1  0.1426358E-005  0.1311266E+03  0.7546771E-02  0.1235785E+00
          1   -1    0    0  502    0 -0.00000000000E+00  0.00000000000E+00  0.85683148826E+02  0.85683148826E+02  0.00000000000E+00 0. -1.
         21   -1    0    0  501  502  0.00000000000E+00 -0.00000000000E+00 -0.48797436819E+03  0.48797436819E+03  0.00000000000E+00 0. -1.
         23    2    1    2    0    0  0.53347502135E+02  0.24888703939E+01 -0.35892557322E+02  0.11098688969E+03  0.90430434871E+02 0.  0.
         23    2    1    2    0    0 -0.51716538115E+02 -0.46145950347E+02 -0.54149088572E+02  0.14737965568E+03  0.11825645888E+03 0.  0.
        -11    1    4    4    0    0 -0.94200883609E+01 -0.73832169816E+02 -0.61170983590E+02  0.96342184934E+02  0.00000000000E+00 0.  1.
         11    1    4    4    0    0 -0.42296449754E+02  0.27686219469E+02  0.70218950176E+01  0.51037470744E+02  0.00000000000E+00 0. -1.
        -11    1    3    3    0    0  0.21965724945E+02  0.32009270186E+02 -0.52084207571E+02  0.64960381222E+02  0.00000000000E+00 0. -1.
         11    1    3    3    0    0  0.31381777190E+02 -0.29520399792E+02  0.16191650249E+02  0.46026508463E+02  0.00000000000E+00 0.  1.
          1    1    1    2  501    0 -0.16309640201E+01  0.43657079953E+02 -0.31224957347E+03  0.31529097165E+03  0.00000000000E+00 0. -1.
<scales pt_clust_5="13000.00000" pt_clust_6="13000.00000" pt_clust_7="13000.00000" pt_clust_8="13000.00000" pt_clust_9="43.68753"></scales>
<clustering>
<clus scale="   43.688">  2  9  1 -1</clus>
<clus scale="   90.430">  7  8 -1 -1</clus>
<clus scale="  106.711">  1  7  2 -1</clus>
<clus scale="  118.256">  5  6 -1 -1</clus>
<clus scale="   43.688">  2  5  1 -1</clus>
</clustering>
</event>
<event>
 9    1  0.1426358E-005  0.1276037E+03  0.7546771E-02  0.1233132E+00
         21   -1    0    0  501  502  0.00000000000E+00  0.00000000000E+00  0.28252440617E+02  0.28252440617E+02  0.00000000000E+00 0. -1.
          2   -1    0    0  502    0 -0.00000000000E+00 -0.00000000000E+00 -0.84855918493E+03  0.84855918493E+03  0.00000000000E+00 0. -1.
         23    2    1    2    0    0 -0.61054756175E+02 -0.46051028969E+02 -0.39027345440E+03  0.40867960992E+03  0.94113090675E+02 0.  0.
         23    2    1    2    0    0  0.82507558895E+02  0.16534947627E+02 -0.39947414551E+03  0.42053702525E+03  0.10094996239E+03 0.  0.
        -13    1    4    4    0    0  0.23261109618E+01 -0.30655368659E+02 -0.17277767772E+03  0.17549156201E+03  0.00000000000E+00 0.  1.
         13    1    4    4    0    0  0.80181447934E+02  0.47190316286E+02 -0.22669646779E+03  0.24504546324E+03  0.00000000000E+00 0. -1.
        -13    1    3    3    0    0 -0.42536767777E+02 -0.71631101955E+02 -0.33314908711E+03  0.34340749209E+03  0.00000000000E+00 0.  1.
         13    1    3    3    0    0 -0.18517988398E+02  0.25580072986E+02 -0.57124367290E+02  0.65272117834E+02  0.00000000000E+00 0. -1.
          2    1    1    2  501    0 -0.21452802720E+02  0.29516081342E+02 -0.30559144407E+02  0.47594990379E+02  0.00000000000E+00 0. -1.
<scales pt_clust_5="13000.00000" pt_clust_6="13000.00000" pt_clust_7="13000.00000" pt_clust_8="13000.00000" pt_clust_9="36.48865"></scales>
<clustering>
<clus scale="   36.489">  1  9  2 -1</clus>
<clus scale="   94.113">  7  8 -1 -1</clus>
<clus scale="  100.950">  5  6 -1 -1</clus>
<clus scale="  122.266">  2  7  1 -1</clus>
<clus scale="   36.489">  1  5  2 -1</clus>
</clustering>
</event>
<event>
 9    1  0.1426358E-005  0.1346528E+03  0.7546771E-02  0.1220994E+00
         21   -1    0    0  501  502  0.00000000000E+00  0.00000000000E+00  0.78391460900E+03  0.78391460900E+03  0.00000000000E+00 0. -1.
          4   -1    0    0  502    0 -0.00000000000E+00 -0.00000000000E+00 -0.67179226749E+02  0.67179226749E+02  0.00000000000E+00 0. -1.
         23    2    1    2    0    0  0.64728429036E+02  0.60016755057E+02  0.87682690631E+02  0.15368457611E+03  0.90215931442E+02 0.  0.
         23    2    1    2    0    0 -0.12282179634E+03 -0.24974483169E+02  0.15771812507E+03  0.22121699408E+03  0.91394928909E+02 0.  0.
        -11    1    3    3    0    0  0.61152746916E+02  0.88100454714E+01  0.81069261880E+02  0.10192889962E+03  0.00000000000E+00 0.  1.
         11    1    3    3    0    0  0.35756821202E+01  0.51206709585E+02  0.66134287508E+01  0.51755676491E+02  0.00000000000E+00 0. -1.
        -13    1    4    4    0    0 -0.18446544978E+02  0.28813550014E+02  0.17827347216E+02  0.38578620955E+02  0.00000000000E+00 0. -1.
         13    1    4    4    0    0 -0.10437525136E+03 -0.53788033183E+02  0.13989077785E+03  0.18263837313E+03  0.00000000000E+00 0.  1.
          4    1    1    2  501    0  0.58093367305E+02 -0.35042271888E+02  0.47133456655E+03  0.47619226555E+03  0.00000000000E+00 0. -1.
<scales pt_clust_5="13000.00000" pt_clust_6="13000.00000" pt_clust_7="13000.00000" pt_clust_8="13000.00000" pt_clust_9="67.84394"></scales>
<clustering>
<clus scale="   67.844">  1  9  2 -1</clus>
<clus scale="   90.216">  5  6 -1 -1</clus>
<clus scale="   91.395">  7  8 -1 -1</clus>
<clus scale="  133.855">  2  5  1 -1</clus>
<clus scale="   67.844">  1  5  2 -1</clus>
</clustering>
</event>
<event>
 9    1  0.1426358E-005  0.1139257E+03  0.7546771E-02  0.1254215E+00
         21   -1    0    0  501  502  0.00000000000E+00  0.00000000000E+00  0.13641721560E+03  0.13641721560E+03  0.00000000000E+00 0. -1.
         -3   -1    0    0    0  501 -0.00000000000E+00 -0.00000000000E+00 -0.27407227847E+03  0.27407227847E+03  0.00000000000E+00 0.  1.
         23    2    1    2    0    0 -0.54763528042E+02  0.22095126998E+02 -0.14023002674E+03  0.17815360380E+03  0.92666107652E+02 0.  0.
         23    2    1    2    0    0  0.52488224922E+02 -0.70227197576E+02 -0.70769304045E+02  0.14457909646E+03  0.90597724611E+02 0.  0.
        -13    1    4    4    0    0  0.44972618095E+02 -0.47445887335E+02  0.45505218185E+01  0.65531334887E+02  0.00000000000E+00 0. -1.
         13    1    4    4    0    0  0.75156068275E+01 -0.22781310241E+02 -0.75319825863E+02  0.79047761577E+02  0.00000000000E+00 0.  1.
        -13    1    3    3    0    0 -0.68031403783E+02 -0.12283222777E+02 -0.11247013104E+03  0.13201772547E+03  0.00000000000E+00 0. -1.
         13    1    3    3    0    0  0.13267875741E+02  0.34378349775E+02 -0.27759895695E+02  0.46135878327E+02  0.00000000000E+00 0.  1.
         -3    1    1    2    0  502  0.22753031197E+01  0.48132070577E+02  0.73344267915E+02  0.87756793802E+02  0.00000000000E+00 0.  1.
<scales pt_clust_5="13000.00000" pt_clust_6="13000.00000" pt_clust_7="13000.00000" pt_clust_8="13000.00000" pt_clust_9="48.18582"></scales>
<clustering>
<clus scale="   48.186">  1  9  2 -1</clus>
<clus scale="   90.598">  5  6 -1 -1</clus>
<clus scale="   92.666">  7  8 -1 -1</clus>
<clus scale="  112.250">  1  5  2 -1</clus>
<clus scale="   48.186">  1  5  2 -1</clus>
</clustering>
</event>
<event>
 9    1  0.1426358E-005  0.9286576E+02  0.7546771E-02  0.1297017E+00
         21   -1    0    0  501  502  0.00000000000E+00  0.00000000000E+00  0.58081224021E+02  0.58081224021E+02  0.00000000000E+00 0.  1.
          1   -1    0    0  502    0 -0.00000000000E+00 -0.00000000000E+00 -0.23981222723E+03  0.23981222723E+03  0.00000000000E+00 0. -1.
         23    2    1    2    0    0 -0.16098385604E+02 -0.83919852438E+01 -0.12127529635E+03  0.15361673486E+03  0.92524700966E+02 0.  0.
         23    2    1    2    0    0 -0.70673215698E+01 -0.20498767828E+02 -0.49084103087E+02  0.10553863468E+03  0.90879082951E+02 0.  0.
        -11    1    4    4    0    0 -0.16140112631E+02 -0.45480947272E+02 -0.59831835235E+02  0.76869163571E+02  0.00000000000E+00 0. -1.
         11    1    4    4    0    0  0.90727910612E+01  0.24982179444E+02  0.10747732149E+02  0.28669471110E+02  0.00000000000E+00 0.  1.
        -13    1    3    3    0    0 -0.48013151604E+02 -0.47097247815E+01 -0.29898930990E+02  0.56757293001E+02  0.00000000000E+00 0.  1.
         13    1    3    3    0    0  0.31914765999E+02 -0.36822604623E+01 -0.91376365360E+02  0.96859441859E+02  0.00000000000E+00 0. -1.
          1    1    1    2  501    0  0.23165707174E+02  0.28890753072E+02 -0.11371603768E+02  0.38738081705E+02  0.00000000000E+00 0. -1.
<scales pt_clust_5="13000.00000" pt_clust_6="13000.00000" pt_clust_7="13000.00000" pt_clust_8="13000.00000" pt_clust_9="37.03141"></scales>
<clustering>
<clus scale="   37.031">  1  9  2 -1</clus>
<clus scale="   90.879">  5  6 -1 -1</clus>
<clus scale="   91.226">  1  5  2 -1</clus>
<clus scale="   92.525">  7  8 -1 -1</clus>
<clus scale="   37.031">  1  5  2 -1</clus>
</clustering>
</event>
<event>
 9    1  0.1426358E-005  0.1725092E+03  0.7546771E-02  0.1175685E+00
         21   -1    0    0  501  502  0.00000000000E+00  0.00000000000E+00  0.70183976835E+02  0.70183976835E+02  0.00000000000E+00 0. -1.
          1   -1    0    0  502    0 -0.00000000000E+00 -0.00000000000E+00 -0.82287429852E+03  0.82287429852E+03  0.00000000000E+00 0. -1.
         23    2    1    2    0    0 -0.16898813202E+03  0.54857258700E+02 -0.49365797747E+03  0.53242262501E+03  0.90605437499E+02 0.  0.
         23    2    1    2    0    0  0.11253716595E+03  0.15040167645E+02 -0.21501782717E+03  0.26058746450E+03  0.93714141360E+02 0.  0.
        -11    1    3    3    0    0 -0.10704035550E+03 -0.77259042564E+01 -0.32338411686E+03  0.34072659764E+03  0.00000000000E+00 0.  1.
         11    1    3    3    0    0 -0.61947776522E+02  0.62583162956E+02 -0.17027386061E+03  0.19169602737E+03  0.00000000000E+00 0. -1.
        -13    1    4    4    0    0  0.14126786328E+02 -0.20899334326E+02 -0.10767968607E+03  0.11059504085E+03  0.00000000000E+00 0.  1.
         13    1    4    4    0    0  0.98410379622E+02  0.35939501971E+02 -0.10733814110E+03  0.14999242366E+03  0.00000000000E+00 0. -1.
          1    1    1    2  501    0  0.56450966071E+02 -0.69897426345E+02 -0.44014517039E+02  0.10004818584E+03  0.00000000000E+00 0. -1.
<scales pt_clust_5="13000.00000" pt_clust_6="13000.00000" pt_clust_7="13000.00000" pt_clust_8="13000.00000" pt_clust_9="89.84632"></scales>
<clustering>
<clus scale="   89.846">  1  9  2 -1</clus>
<clus scale="   90.605">  5  6 -1 -1</clus>
<clus scale="   93.714">  7  8 -1 -1</clus>
<clus scale="  170.840">  2  5  1 -1</clus>
<clus scale="   89.846">  1  5  2 -1</clus>
</clustering>
</event>
<event>
 9    1  0.1426358E-005  0.9635656E+02  0.7546771E-02  0.1289164E+00
         -1   -1    0    0    0  501 -0.00000000000E+00  0.00000000000E+00  0.63941132616E+03  0.63941132616E+03  0.00000000000E+00 0.  1.
         21   -1    0    0  501  502  0.00000000000E+00 -0.00000000000E+00 -0.23634211000E+02  0.23634211000E+02  0.00000000000E+00 0. -1.
         23    2    1    2    0    0  0.13073989498E+02  0.28981272289E+02  0.37567956227E+03  0.38761816046E+03  0.90010340909E+02 0.  0.
         23    2    1    2    0    0 -0.37258159634E+02 -0.22052742133E+02  0.22647095120E+03  0.24681683862E+03  0.88062285889E+02 0.  0.
        -11    1    4    4    0    0 -0.48282512877E+02 -0.44702834539E+02  0.11461578884E+03  0.13216021912E+03  0.00000000000E+00 0. -1.
         11    1    4    4    0    0  0.11024353243E+02  0.22650092407E+02  0.11185516235E+03  0.11465661950E+03  0.00000000000E+00 0.  1.
        -11    1    3    3    0    0  0.30220538950E+02 -0.24342960392E+02  0.13213757853E+03  0.13771782875E+03  0.00000000000E+00 0.  1.
         11    1    3    3    0    0 -0.17146549451E+02  0.53324232681E+02  0.24354198374E+03  0.24990033172E+03  0.00000000000E+00 0. -1.
         -1    1    1    2    0  502  0.24184170135E+02 -0.69285301565E+01  0.13626601698E+02  0.28610538078E+02  0.00000000000E+00 0.  1.
<scales pt_clust_5="13000.00000" pt_clust_6="13000.00000" pt_clust_7="13000.00000" pt_clust_8="13000.00000" pt_clust_9="25.15708"></scales>
<clustering>
<clus scale="   25.157">  2  9  1 -1</clus>
<clus scale="   88.062">  5  6 -1 -1</clus>
<clus scale="   90.010">  7  8 -1 -1</clus>
<clus scale="   94.539">  2  5  1 -1</clus>
<clus scale="   25.157">  2  5  1 -1</clus>
</clustering>
</event>
<event>
 9    1  0.1426358E-005  0.1354519E+03  0.7546771E-02  0.1220526E+00
          1   -1    0    0  502    0 -0.00000000000E+00  0.00000000000E+00  0.12745039967E+04  0.12745039967E+04  0.00000000000E+00 0. -1.
         21   -1    0    0  501  502  0.00000000000E+00 -0.00000000000E+00 -0.18470928729E+02  0.18470928729E+02  0.00000000000E+00 0.  1.
         23    2    1    2    0    0  0.21430675626E+02  0.10092889233E+03  0.64296090039E+03  0.65712848925E+03  0.88165848215E+02 0.  0.
         23    2    1    2    0    0  0.12134454644E+02 -0.10477285305E+03  0.48724994182E+03  0.50556740294E+03  0.84031526175E+02 0.  0.
        -11    1    3    3    0    0 -0.22028533027E+02  0.40547664531E+01  0.50723554400E+02  0.55448862651E+02  0.00000000000E+00 0. -1.
         11    1    3    3    0    0  0.43459208653E+02  0.96874125881E+02  0.59223734599E+03  0.60167962660E+03  0.00000000000E+00 0.  1.
        -11    1    4    4    0    0 -0.26689909471E+02 -0.78114271052E+02  0.23805244172E+03  0.25195863871E+03  0.00000000000E+00 0. -1.
         11    1    4    4    0    0  0.38824364115E+02 -0.26658582001E+02  0.24919750010E+03  0.25360876424E+03  0.00000000000E+00 0.  1.
          1    1    1    2  501    0 -0.33565130270E+02  0.38439607184E+01  0.12582222576E+03  0.13027903323E+03  0.00000000000E+00 0. -1.
<scales pt_clust_5="13000.00000" pt_clust_6="13000.00000" pt_clust_7="13000.00000" pt_clust_8="13000.00000" pt_clust_9="33.78452"></scales>
<clustering>
<clus scale="   33.785">  2  9  1 -1</clus>
<clus scale="   84.032">  7  8 -1 -1</clus>
<clus scale="   88.166">  5  6 -1 -1</clus>
<clus scale="  132.798">  2  7  1 -1</clus>
<clus scale="   33.785">  2  5  1 -1</clus>
</clustering>
</event>
<event>
 9    1  0.1426358E-005  0.2368667E+03  0.7546771E-02  0.1122641E+00
         21   -1    0    0  501  502  0.00000000000E+00  0.00000000000E+00  0.63728783982E+02  0.63728783982E+02  0.00000000000E+00 0. -1.
         -3   -1    0    0    0  501 -0.00000000000E+00 -0.00000000000E+00 -0.19327737703E+04  0.19327737703E+04  0.00000000000E+00 0.  1.
         23    2    1    2    0    0 -0.26304497976E+01  0.16270683034E+03 -0.57873402918E+03  0.60672202939E+03  0.81841997175E+02 0.  0.
         23    2    1    2    0    0 -0.20175076783E+02 -0.30233328504E+03 -0.11403464241E+04  0.11836131171E+04  0.93475103225E+02 0.  0.
        -11    1    3    3    0    0  0.33147580838E+02  0.12638144152E+03 -0.39523269833E+03  0.41626904365E+03  0.00000000000E+00 0.  1.
         11    1    3    3    0    0 -0.35778030635E+02  0.36325388827E+02 -0.18350133085E+03  0.19045298573E+03  0.00000000000E+00 0. -1.
        -11    1    4    4    0    0 -0.24528497789E+02 -0.69751263430E+02 -0.42529613730E+03  0.43167544563E+03  0.00000000000E+00 0.  1.
         11    1    4    4    0    0  0.43534210061E+01 -0.23258202161E+03 -0.71505028682E+03  0.75193767144E+03  0.00000000000E+00 0. -1.
         -3    1    1    2    0  502  0.22805526581E+02  0.13962645470E+03 -0.14996453306E+03  0.20616740787E+03  0.00000000000E+00 0.  1.
<scales pt_clust_5="13000.00000" pt_clust_6="13000.00000" pt_clust_7="13000.00000" pt_clust_8="13000.00000" pt_clust_9="141.47664"></scales>
<clustering>
<clus scale="   81.842">  5  6 -1 -1</clus>
<clus scale="   93.475">  7  8 -1 -1</clus>
<clus scale="  141.477">  1  9  2 -1</clus>
<clus scale="  232.522">  2  5  1 -1</clus>
<clus scale="  141.477">  1  5  2 -1</clus>
</clustering>
</event>
<event>
 9    1  0.1426358E-005  0.1520593E+03  0.7546771E-02  0.1199161E+00
          2   -1    0    0  502    0 -0.00000000000E+00  0.00000000000E+00  0.98766099931E+03  0.98766099931E+03  0.00000000000E+00 0. -1.
         21   -1    0    0  501  502  0.00000000000E+00 -0.00000000000E+00 -0.11392386007E+03  0.11392386007E+03  0.00000000000E+00 0. -1.
         23    2    1    2    0    0  0.28644766941E+02 -0.99564954088E+02  0.42914098437E+03  0.45072416594E+03  0.90865761101E+02 0.  0.
         23    2    1    2    0    0 -0.23803004793E+02  0.13059903550E+03  0.53260083513E+03  0.55741883655E+03  0.97105193677E+02 0.  0.
        -11    1    4    4    0    0 -0.52325307808E+02  0.84783397720E+02  0.23959009215E+03  0.25947943006E+03  0.00000000000E+00 0.  1.
         11    1    4    4    0    0  0.28522303015E+02  0.45815637778E+02  0.29301074298E+03  0.29793940649E+03  0.00000000000E+00 0. -1.
        -11    1    3    3    0    0  0.24614749984E+02 -0.72516900891E-01  0.27425043824E+02  0.36851379950E+02  0.00000000000E+00 0.  1.
         11    1    3    3    0    0  0.40300169570E+01 -0.99492437187E+02  0.40171594055E+03  0.41387278599E+03  0.00000000000E+00 0. -1.
          2    1    1    2  501    0 -0.48417621476E+01 -0.31034081410E+02 -0.88004680267E+02  0.93441856887E+02  0.00000000000E+00 0. -1.
<scales pt_clust_5="13000.00000" pt_clust_6="13000.00000" pt_clust_7="13000.00000" pt_clust_8="13000.00000" pt_clust_9="31.40950"></scales>
<clustering>
<clus scale="   31.410">  2  9  1 -1</clus>
<clus scale="   90.866">  7  8 -1 -1</clus>
<clus scale="   97.105">  5  6 -1 -1</clus>
<clus scale="  148.153">  1  7  2 -1</clus>
<clus scale="   31.410">  2  5  1 -1</clus>
</clustering>
</event>
<event>
 9    1  0.1426358E-005  0.1090475E+03  0.7546771E-02  0.1265125E+00
          2   -1    0    0  502    0 -0.00000000000E+00  0.00000000000E+00  0.38237366975E+03  0.38237366975E+03  0.00000000000E+00 0. -1.
         21   -1    0    0  501  502  0.00000000000E+00 -0.00000000000E+00 -0.69190749021E+02  0.69190749021E+02  0.00000000000E+00 0.  1.
         23    2    1    2    0    0 -0.50382564184E+02  0.27495812202E+02  0.24534794927E+03  0.27042266086E+03  0.98175235321E+02 0.  0.
         23    2    1    2    0    0  0.30575500205E+02 -0.10158789086E+02  0.10007215018E+03  0.13952291788E+03  0.91728660530E+02 0.  0.
        -11    1    3    3    0    0 -0.39377089399E+02 -0.24641674761E+02  0.51365371010E+02  0.69254376350E+02  0.00000000000E+00 0.  1.
         11    1    3    3    0    0 -0.11005474784E+02  0.52137486964E+02  0.19398257826E+03  0.20116828451E+03  0.00000000000E+00 0. -1.
        -11    1    4    4    0    0 -0.66384495506E+00  0.38968447234E+02  0.38437097724E+02  0.54739300793E+02  0.00000000000E+00 0. -1.
         11    1    4    4    0    0  0.31239345160E+02 -0.49127236319E+02  0.61635052461E+02  0.84783617087E+02  0.00000000000E+00 0.  1.
          2    1    1    2  501    0  0.19807063979E+02 -0.17337023117E+02 -0.32237178725E+02  0.41618840038E+02  0.00000000000E+00 0. -1.
<scales pt_clust_5="13000.00000" pt_clust_6="13000.00000" pt_clust_7="13000.00000" pt_clust_8="13000.00000" pt_clust_9="26.32284"></scales>
<clustering>
<clus scale="   26.323">  2  9  1 -1</clus>
<clus scale="   91.729">  7  8 -1 -1</clus>
<clus scale="   98.175">  5  6 -1 -1</clus>
<clus scale="  103.282">  2  7  1 -1</clus>
<clus scale="   26.323">  2  5  1 -1</clus>
</clustering>
</event>
<event>
 9    1  0.1426358E-005  0.1131769E+03  0.7546771E-02  0.1256754E+00
         21   -1    0    0  501  502  0.00000000000E+00  0.00000000000E+00  0.26764085300E+03  0.26764085300E+03  0.00000000000E+00 0.  1.
          2   -1    0    0  502    0 -0.00000000000E+00 -0.00000000000E+00 -0.57765859078E+03  0.57765859078E+03  0.00000000000E+00 0. -1.
         23    2    1    2    0    0 -0.50557968767E+01  0.66420958878E+02 -0.54980116462E+03  0.56126914845E+03  0.91128653668E+02 0.  0.
         23    2    1    2    0    0  0.11939176598E+02 -0.87732028824E+02  0.22685331102E+03  0.25817047102E+03  0.85732809153E+02 0.  0.
        -11    1    3    3    0    0 -0.44637925486E+02  0.56577851858E+02 -0.34537976449E+03  0.35281833772E+03  0.00000000000E+00 0.  1.
         11    1    3    3    0    0  0.39582128610E+02  0.98431070207E+01 -0.20442140013E+03  0.20845081073E+03  0.00000000000E+00 0. -1.
        -11    1    4    4    0    0 -0.32081221767E+02 -0.10712544946E+02  0.50800571614E+02  0.61030004798E+02  0.00000000000E+00 0. -1.
         11    1    4    4    0    0  0.44020398365E+02 -0.77019483878E+02  0.17605273941E+03  0.19714046622E+03  0.00000000000E+00 0.  1.
          2    1    1    2  501    0 -0.68833797213E+01  0.21311069946E+02  0.12930115810E+02  0.25859824313E+02  0.00000000000E+00 0. -1.
<scales pt_clust_5="13000.00000" pt_clust_6="13000.00000" pt_clust_7="13000.00000" pt_clust_8="13000.00000" pt_clust_9="22.39515"></scales>
<clustering>
<clus scale="   22.395">  1  9  2 -1</clus>
<clus scale="   85.733">  7  8 -1 -1</clus>
<clus scale="   91.129">  5  6 -1 -1</clus>
<clus scale="  108.879">  1  7  2 -1</clus>
<clus scale="   22.395">  1  5  2 -1</clus>
</clustering>
</event>
<event>
 9    1  0.1426358E-005  0.1588391E+03  0.7546771E-02  0.1202368E+00
         -4   -1    0    0    0  501 -0.00000000000E+00  0.00000000000E+00  0.11002207491E+04  0.11002207491E+04  0.00000000000E+00 0.  1.
         21   -1    0    0  501  502  0.00000000000E+00 -0.00000000000E+00 -0.64586714925E+02  0.64586714925E+02  0.00000000000E+00 0.  1.
         23    2    1    2    0    0  0.50382957005E+02 -0.62919739043E+02  0.45216026506E+03  0.46813351009E+03  0.90568990535E+02 0.  0.
         23    2    1    2    0    0  0.10661104822E+03  0.61633513768E+02  0.92581270826E+02  0.18128651043E+03  0.95545285256E+02 0.  0.
        -11    1    3    3    0    0  0.68276539091E+02 -0.26163622026E+02  0.35943528161E+03  0.36679686827E+03  0.00000000000E+00 0. -1.
         11    1    3    3    0    0 -0.17893582086E+02 -0.36756117018E+02  0.92724983456E+02  0.10133664182E+03  0.00000000000E+00 0.  1.
        -11    1    4    4    0    0  0.78882587167E+02  0.86269563684E+02  0.81747704786E+02  0.14264496982E+03  0.00000000000E+00 0.  1.
         11    1    4    4    0    0  0.27728461056E+02 -0.24636049916E+02  0.10833566040E+02  0.38641540615E+02  0.00000000000E+00 0. -1.
         -4    1    1    2    0  502 -0.15699400523E+03  0.12862252759E+01  0.49089249833E+03  0.51538744355E+03  0.00000000000E+00 0.  1.
<scales pt_clust_5="13000.00000" pt_clust_6="13000.00000" pt_clust_7="13000.00000" pt_clust_8="13000.00000" pt_clust_9="126.88963"></scales>
<clustering>
<clus scale="   90.569">  5  6 -1 -1</clus>
<clus scale="   95.545">  7  8 -1 -1</clus>
<clus scale="  121.244">  1  5  2 -1</clus>
<clus scale="  126.890">  2  9  1 -1</clus>
<clus scale="  126.890">  2  5  1 -1</clus>
</clustering>
</event>
<event>
 9    1  0.1426358E-005  0.1486650E+03  0.7546771E-02  0.1223547E+00
          1   -1    0    0  502    0 -0.00000000000E+00  0.00000000000E+00  0.10796044806E+03  0.10796044806E+03  0.00000000000E+00 0. -1.
         21   -1    0    0  501  502  0.00000000000E+00 -0.00000000000E+00 -0.55722003141E+03  0.55722003141E+03  0.00000000000E+00 0. -1.
         23    2    1    2    0    0  0.84309891240E+01 -0.16581580325E+02  0.34540910981E+02  0.10041741952E+03  0.92436752585E+02 0.  0.
         23    2    1    2    0    0 -0.51071265214E+02  0.11216017265E+03 -0.40660198413E+03  0.43471279877E+03  0.91988398466E+02 0.  0.
        -11    1    3    3    0    0 -0.36207894995E+02 -0.29202731972E+02  0.87217303242E+01  0.47327368345E+02  0.00000000000E+00 0. -1.
         11    1    3    3    0    0  0.44638884119E+02  0.12621151646E+02  0.25819180657E+02  0.53090051178E+02  0.00000000000E+00 0.  1.
        -13    1    4    4    0    0 -0.50380092816E+02  0.27086968597E+02 -0.88070185102E+02  0.10501530900E+03  0.00000000000E+00 0.  1.
         13    1    4    4    0    0 -0.69117239788E+00  0.85073204056E+02 -0.31853179903E+03  0.32969748977E+03  0.00000000000E+00 0. -1.
          1    1    1    2  501    0  0.42640276090E+02 -0.95578592327E+02 -0.77198510203E+02  0.13005026118E+03  0.00000000000E+00 0. -1.
<scales pt_clust_5="13000.00000" pt_clust_6="13000.00000" pt_clust_7="13000.00000" pt_clust_8="13000.00000" pt_clust_9="116.78800"></scales>
<clustering>
<clus scale="   91.988">  7  8 -1 -1</clus>
<clus scale="   92.437">  5  6 -1 -1</clus>
<clus scale="   94.290">  1  5  2 -1</clus>
<clus scale="  116.788">  2  9  1 -1</clus>
<clus scale="  116.788">  2  5  1 -1</clus>
</clustering>
</event>
<event>
 9    1  0.1428963E-005  0.1339470E+03  0.7546771E-02  0.1239394E+00
         -1   -1    0    0    0  501 -0.00000000000E+00  0.00000000000E+00  0.39167813903E+03  0.39167813903E+03  0.00000000000E+00 0.  1.
         21   -1    0    0  501  502  0.00000000000E+00 -0.00000000000E+00 -0.15193639265E+03  0.15193639265E+03  0.00000000000E+00 0.  1.
         23    2    1    2    0    0 -0.15620244617E+02 -0.81810460666E+00  0.25225026114E+03  0.26885040096E+03  0.91682509312E+02 0.  0.
         23    2    1    2    0    0 -0.81854302679E+02 -0.42531177905E+02 -0.75176570313E+02  0.15103970770E+03  0.93018539102E+02 0.  0.
        -11    1    3    3    0    0  0.86053928927E+01  0.42126798150E+02  0.13410131770E+03  0.14082571966E+03  0.00000000000E+00 0.  1.
         11    1    3    3    0    0 -0.24225637510E+02 -0.42944902757E+02  0.11814894345E+03  0.12802468130E+03  0.00000000000E+00 0. -1.
        -13    1    4    4    0    0 -0.83411484741E+02 -0.66133651862E+02 -0.54331775135E+02  0.11951182989E+03  0.00000000000E+00 0.  1.
         13    1    4    4    0    0  0.15571820618E+01  0.23602473957E+02 -0.20844795178E+02  0.31527877804E+02  0.00000000000E+00 0. -1.
         -1    1    1    2    0  502  0.97474547296E+02  0.43349282512E+02  0.62668055548E+02  0.12372442302E+03  0.00000000000E+00 0.  1.
<scales pt_clust_5="13000.00000" pt_clust_6="13000.00000" pt_clust_7="13000.00000" pt_clust_8="13000.00000" pt_clust_9="96.38131"></scales>
<clustering>
<clus scale="   91.683">  5  6 -1 -1</clus>
<clus scale="   93.007">  1  5  2 -1</clus>
<clus scale="   93.019">  7  8 -1 -1</clus>
<clus scale="   96.381">  2  9  1 -1</clus>
<clus scale="   96.381">  2  5  1 -1</clus>
</clustering>
</event>
<event>
 9    1  0.1426358E-005  0.9993024E+02  0.7546771E-02  0.1282139E+00
         21   -1    0    0  501  502  0.00000000000E+00  0.00000000000E+00  0.33386543417E+03  0.33386543417E+03  0.00000000000E+00 0.  1.
          2   -1    0    0  502    0 -0.00000000000E+00 -0.00000000000E+00 -0.66998050146E+02  0.66998050146E+02  0.00000000000E+00 0. -1.
         23    2    1    2    0    0  0.37632294248E+02 -0.20676706329E+01  0.57655066127E+01  0.97569907638E+02  0.89811920021E+02 0.  0.
         23    2    1    2    0    0 -0.26328817669E+02 -0.40321654252E+02  0.21727939921E+03  0.24128524625E+03  0.93215826411E+02 0.  0.
        -11    1    3    3    0    0 -0.91063747896E+01  0.31600316174E+02  0.19660878135E+02  0.38315221167E+02  0.00000000000E+00 0.  1.
         11    1    3    3    0    0  0.46738669038E+02 -0.33667986806E+02 -0.13895371522E+02  0.59254686471E+02  0.00000000000E+00 0. -1.
        -13    1    4    4    0    0 -0.13464988414E+02 -0.56211801465E+02  0.21259266096E+03  0.22031049007E+03  0.00000000000E+00 0.  1.
         13    1    4    4    0    0 -0.12863829256E+02  0.15890147213E+02  0.46867382491E+01  0.20974756184E+02  0.00000000000E+00 0. -1.
          2    1    1    2  501    0 -0.11303476579E+02  0.42389324885E+02  0.43822478196E+02  0.62008330426E+02  0.00000000000E+00 0. -1.
<scales pt_clust_5="13000.00000" pt_clust_6="13000.00000" pt_clust_7="13000.00000" pt_clust_8="13000.00000" pt_clust_9="43.87053"></scales>
<clustering>
<clus scale="   43.871">  1  9  2 -1</clus>
<clus scale="   89.812">  5  6 -1 -1</clus>
<clus scale="   93.216">  7  8 -1 -1</clus>
<clus scale="   96.763">  2  5  1 -1</clus>
<clus scale="   43.871">  1  5  2 -1</clus>
</clustering>
</event>
<event>
 9    1  0.1426358E-005  0.1300625E+03  0.7546771E-02  0.1247046E+00
         21   -1    0    0  501  502  0.00000000000E+00  0.00000000000E+00  0.23577571776E+03  0.23577571776E+03  0.00000000000E+00 0. -1.
          1   -1    0    0  502    0 -0.00000000000E+00 -0.00000000000E+00 -0.31866459947E+03  0.31866459947E+03  0.00000000000E+00 0. -1.
         23    2    1    2    0    0  0.11745743415E+02 -0.21106929094E+02 -0.24997751526E+03  0.26469814426E+03  0.83623468549E+02 0.  0.
         23    2    1    2    0    0  0.51772320601E+02 -0.69578958890E+02  0.49716354531E+02  0.12838937126E+03  0.80563701777E+02 0.  0.
        -11    1    3    3    0    0  0.33667336562E+02 -0.38938287970E+02 -0.10436376844E+03  0.11636784773E+03  0.00000000000E+00 0. -1.
         11    1    3    3    0    0 -0.21921593147E+02  0.17831358876E+02 -0.14561374682E+03  0.14833029653E+03  0.00000000000E+00 0.  1.
        -13    1    4    4    0    0  0.20250254309E+02  0.14743696195E+02 -0.99107786340E+00  0.25068538298E+02  0.00000000000E+00 0.  1.
         13    1    4    4    0    0  0.31522066293E+02 -0.84322655085E+02  0.50707432395E+02  0.10332083296E+03  0.00000000000E+00 0. -1.
          1    1    1    2  501    0 -0.63518064017E+02  0.90685887984E+02  0.11737227903E+03  0.16135280171E+03  0.00000000000E+00 0. -1.
<scales pt_clust_5="13000.00000" pt_clust_6="13000.00000" pt_clust_7="13000.00000" pt_clust_8="13000.00000" pt_clust_9="102.10658"></scales>
<clustering>
<clus scale="   80.564">  7  8 -1 -1</clus>
<clus scale="   83.623">  5  6 -1 -1</clus>
<clus scale="   87.042">  2  5  1 -1</clus>
<clus scale="  102.107">  1  9  2 -1</clus>
<clus scale="  102.107">  1  5  2 -1</clus>
</clustering>
</event>
<event>
 9    1  0.1426358E-005  0.1965214E+03  0.7546771E-02  0.1153270E+00
         -1   -1    0    0    0  501 -0.00000000000E+00  0.00000000000E+00  0.22837663940E+03  0.22837663940E+03  0.00000000000E+00 0.  1.
         21   -1    0    0  501  502  0.00000000000E+00 -0.00000000000E+00 -0.20415207795E+03  0.20415207795E+03  0.00000000000E+00 0. -1.
         23    2    1    2    0    0 -0.18334595660E+02  0.17545862687E+03  0.75605362174E+02  0.21514726539E+03  0.97212591137E+02 0.  0.
         23    2    1    2    0    0  0.11832565810E+01 -0.16114995466E+03 -0.57521474858E+02  0.19421651268E+03  0.91872878173E+02 0.  0.
        -11    1    4    4    0    0  0.27685110223E+02 -0.14228528159E+03 -0.22972416101E+02  0.14676272887E+03  0.00000000000E+00 0.  1.
         11    1    4    4    0    0 -0.26501853642E+02 -0.18864673074E+02 -0.34549058757E+02  0.47453783807E+02  0.00000000000E+00 0. -1.
        -13    1    3    3    0    0 -0.26679256138E+02  0.11462939458E+03 -0.74677704752E-01  0.11769318751E+03  0.00000000000E+00 0. -1.
         13    1    3    3    0    0  0.83446604779E+01  0.60829232287E+02  0.75680039879E+02  0.97454077879E+02  0.00000000000E+00 0.  1.
         -1    1    1    2    0  502  0.17151339079E+02 -0.14308672209E+02  0.61406741372E+01  0.23164939271E+02  0.00000000000E+00 0.  1.
<scales pt_clust_5="13000.00000" pt_clust_6="13000.00000" pt_clust_7="13000.00000" pt_clust_8="13000.00000" pt_clust_9="22.33623"></scales>
<clustering>
<clus scale="   22.336">  2  9  1 -1</clus>
<clus scale="   91.873">  5  6 -1 -1</clus>
<clus scale="   97.213">  7  8 -1 -1</clus>
<clus scale="  193.936">  2  5  1 -1</clus>
<clus scale="   22.336">  2  5  1 -1</clus>
</clustering>
</event>
<event>
 9    1  0.1426358E-005  0.1419601E+03  0.7546771E-02  0.1228480E+00
          2   -1    0    0  502    0 -0.00000000000E+00  0.00000000000E+00  0.23070589728E+03  0.23070589728E+03  0.00000000000E+00 0. -1.
         21   -1    0    0  501  502  0.00000000000E+00 -0.00000000000E+00 -0.18958802011E+03  0.18958802011E+03  0.00000000000E+00 0. -1.
         23    2    1    2    0    0  0.33849387226E+02  0.10024105488E+02 -0.44194661983E+02  0.10726446989E+03  0.91138546431E+02 0.  0.
         23    2    1    2    0    0  0.45023314515E+02 -0.86859121360E+02  0.13614580701E+03  0.19175066178E+03  0.93064653400E+02 0.  0.
        -11    1    3    3    0    0 -0.21931337180E+02  0.13070204282E+02  0.11837970298E+02  0.28141629861E+02  0.00000000000E+00 0.  1.
         11    1    3    3    0    0  0.55780724407E+02 -0.30460987933E+01 -0.56032632281E+02  0.79122840024E+02  0.00000000000E+00 0. -1.
        -13    1    4    4    0    0  0.24683582479E+02 -0.89050879799E+02  0.53858040428E+02  0.10695806167E+03  0.00000000000E+00 0.  1.
         13    1    4    4    0    0  0.20339732036E+02  0.21917584393E+01  0.82287766582E+02  0.84792600110E+02  0.00000000000E+00 0. -1.
          2    1    1    2  501    0 -0.78872701742E+02  0.76835015871E+02 -0.50833267857E+02  0.12127878572E+03  0.00000000000E+00 0. -1.
<scales pt_clust_5="13000.00000" pt_clust_6="13000.00000" pt_clust_7="13000.00000" pt_clust_8="13000.00000" pt_clust_9="107.19900"></scales>
<clustering>
<clus scale="   91.139">  5  6 -1 -1</clus>
<clus scale="   93.065">  7  8 -1 -1</clus>
<clus scale="   97.737">  1  5  2 -1</clus>
<clus scale="  107.199">  2  9  1 -1</clus>
<clus scale="  107.199">  2  5  1 -1</clus>
</clustering>
</event>
<event>
 9    1  0.1426358E-005  0.1487028E+03  0.7546771E-02  0.1202228E+00
          2   -1    0    0  502    0 -0.00000000000E+00  0.00000000000E+00  0.21997532359E+03  0.21997532359E+03  0.00000000000E+00 0. -1.
         21   -1    0    0  501  502  0.00000000000E+00 -0.00000000000E+00 -0.26974018527E+03  0.26974018527E+03  0.00000000000E+00 0. -1.
         23    2    1    2    0    0 -0.67225967584E+02 -0.11064907636E+03  0.82961458227E+02  0.17867864321E+03  0.90999478957E+02 0.  0.
         23    2    1    2    0    0  0.11015120838E+03  0.91751133862E+01 -0.14001344450E+03  0.20061656115E+03  0.91791985236E+02 0.  0.
        -13    1    4    4    0    0  0.44165075219E+02  0.11585959331E+02  0.17077489312E+00  0.45659801650E+02  0.00000000000E+00 0.  1.
         13    1    4    4    0    0  0.65986133165E+02 -0.24108459449E+01 -0.14018421939E+03  0.15495675950E+03  0.00000000000E+00 0. -1.
        -13    1    3    3    0    0 -0.43530806191E+02 -0.10077373306E+02 -0.22652228424E+01  0.44739420816E+02  0.00000000000E+00 0.  1.
         13    1    3    3    0    0 -0.23695161392E+02 -0.10057170306E+03  0.85226681070E+02  0.13393922239E+03  0.00000000000E+00 0. -1.
          2    1    1    2  501    0 -0.42925240800E+02  0.10147396298E+03  0.72871245947E+01  0.11042030450E+03  0.00000000000E+00 0. -1.
<scales pt_clust_5="13000.00000" pt_clust_6="13000.00000" pt_clust_7="13000.00000" pt_clust_8="13000.00000" pt_clust_9="110.17964"></scales>
<clustering>
<clus scale="   90.999">  7  8 -1 -1</clus>
<clus scale="   91.792">  5  6 -1 -1</clus>
<clus scale="  110.180">  2  9  1 -1</clus>
<clus scale="  148.215">  1  7  2 -1</clus>
<clus scale="  110.180">  2  5  1 -1</clus>
</clustering>
</event>
<event>
 9    1  0.1426358E-005  0.9836721E+02  0.7546771E-02  0.1284513E+00
          2   -1    0    0  502    0 -0.00000000000E+00  0.00000000000E+00  0.16049435940E+03  0.16049435940E+03  0.00000000000E+00 0. -1.
         21   -1    0    0  501  502  0.00000000000E+00 -0.00000000000E+00 -0.17572496917E+03  0.17572496917E+03  0.00000000000E+00 0. -1.
         23    2    1    2    0    0  0.51899207301E+00 -0.45086560417E+02  0.39912344822E+02  0.10827798685E+03  0.89989220931E+02 0.  0.
         23    2    1    2    0    0 -0.77747397547E+02 -0.15838651353E+02 -0.12813665763E+02  0.12085316901E+03  0.90253962392E+02 0.  0.
        -13    1    3    3    0    0  0.46833845264E+00 -0.72313639336E+02  0.21624353381E+02  0.75479099319E+02  0.00000000000E+00 0. -1.
         13    1    3    3    0    0  0.50653620375E-01  0.27227078919E+02  0.18287991441E+02  0.32798887529E+02  0.00000000000E+00 0.  1.
        -13    1    4    4    0    0 -0.31052475714E+02 -0.30678393528E+02 -0.44633981014E+02  0.62430860467E+02  0.00000000000E+00 0.  1.
         13    1    4    4    0    0 -0.46694921833E+02  0.14839742175E+02  0.31820315251E+02  0.58422308543E+02  0.00000000000E+00 0. -1.
          2    1    1    2  501    0  0.77228405474E+02  0.60925211770E+02 -0.42329288832E+02  0.10708817271E+03  0.00000000000E+00 0. -1.
<scales pt_clust_5="13000.00000" pt_clust_6="13000.00000" pt_clust_7="13000.00000" pt_clust_8="13000.00000" pt_clust_9="98.36721"></scales>
<clustering>
<clus scale="   89.989">  5  6 -1 -1</clus>
<clus scale="   90.254">  7  8 -1 -1</clus>
<clus scale="   98.367">  2  9  1 -1</clus>
<clus scale="   96.991">  1  5  2 -1</clus>
<clus scale="   98.367">  2  5  1 -1</clus>
</clustering>
</event>
<event>
 9    1  0.1426358E-005  0.2392384E+03  0.7546771E-02  0.1120365E+00
         21   -1    0    0  501  502  0.00000000000E+00  0.00000000000E+00  0.97805225332E+02  0.97805225332E+02  0.00000000000E+00 0. -1.
          2   -1    0    0  502    0 -0.00000000000E+00 -0.00000000000E+00 -0.12653382677E+04  0.12653382677E+04  0.00000000000E+00 0. -1.
         23    2    1    2    0    0 -0.24804274875E+03  0.69332503295E+02 -0.64964432431E+03  0.70473127377E+03  0.90973726373E+02 0.  0.
         23    2    1    2    0    0  0.18310680902E+03  0.98546713699E+02 -0.28768398140E+03  0.36618913917E+03  0.89960292343E+02 0.  0.
        -13    1    3    3    0    0 -0.15201833923E+03  0.69330581554E+02 -0.49761137141E+03  0.52491273747E+03  0.00000000000E+00 0. -1.
         13    1    3    3    0    0 -0.96024409520E+02  0.19217417933E-02 -0.15203295290E+03  0.17981853630E+03  0.00000000000E+00 0.  1.
        -13    1    4    4    0    0  0.12143420387E+03  0.57070147951E+02 -0.10970774356E+03  0.17331779093E+03  0.00000000000E+00 0. -1.
         13    1    4    4    0    0  0.61672605142E+02  0.41476565748E+02 -0.17797623785E+03  0.19287134823E+03  0.00000000000E+00 0.  1.
          2    1    1    2  501    0  0.64935939735E+02 -0.16787921699E+03 -0.23020473667E+03  0.29222308012E+03  0.00000000000E+00 0. -1.
<scales pt_clust_5="13000.00000" pt_clust_6="13000.00000" pt_clust_7="13000.00000" pt_clust_8="13000.00000" pt_clust_9="180.00030"></scales>
<clustering>
<clus scale="   89.960">  7  8 -1 -1</clus>
<clus scale="   90.974">  5  6 -1 -1</clus>
<clus scale="  180.000">  1  9  2 -1</clus>
<clus scale="  238.855">  1  7  2 -1</clus>
<clus scale="  180.000">  1  5  2 -1</clus>
</clustering>
</event>
<event>
 9    1  0.1426358E-005  0.9615739E+02  0.7546771E-02  0.1289437E+00
         21   -1    0    0  501  502  0.00000000000E+00  0.00000000000E+00  0.17459413893E+03  0.17459413893E+03  0.00000000000E+00 0. -1.
         -3   -1    0    0    0  501 -0.00000000000E+00 -0.00000000000E+00 -0.91381027778E+02  0.91381027778E+02  0.00000000000E+00 0.  1.
         23    2    1    2    0    0 -0.14202671235E+02 -0.21004142686E+02  0.15029289256E+02  0.93447657013E+02  0.88677478458E+02 0.  0.
         23    2    1    2    0    0 -0.15029093128E+02  0.45568347560E+02  0.97363127821E+01  0.10271341706E+03  0.90293423447E+02 0.  0.
        -11    1    3    3    0    0  0.43888306513E+00  0.25393814788E+02 -0.20960389022E+02  0.32929870267E+02  0.00000000000E+00 0.  1.
         11    1    3    3    0    0 -0.14641554300E+02 -0.46397957474E+02  0.35989678278E+02  0.60517786746E+02  0.00000000000E+00 0. -1.
        -13    1    4    4    0    0  0.24932959128E+02  0.47446708785E+02  0.25945319190E+02  0.59548318308E+02  0.00000000000E+00 0.  1.
         13    1    4    4    0    0 -0.39962052256E+02 -0.18783612254E+01 -0.16209006408E+02  0.43165098751E+02  0.00000000000E+00 0. -1.
         -3    1    1    2    0  502  0.29231764363E+02 -0.24564204874E+02  0.58447509112E+02  0.69814092634E+02  0.00000000000E+00 0.  1.
<scales pt_clust_5="13000.00000" pt_clust_6="13000.00000" pt_clust_7="13000.00000" pt_clust_8="13000.00000" pt_clust_9="38.18241"></scales>
<clustering>
<clus scale="   38.182">  1  9  2 -1</clus>
<clus scale="   88.677">  5  6 -1 -1</clus>
<clus scale="   90.293">  7  8 -1 -1</clus>
<clus scale="   94.642">  2  5  1 -1</clus>
<clus scale="   38.182">  1  5  2 -1</clus>
</clustering>
</event>
<event>
 9    1  0.1426358E-005  0.1296424E+03  0.7546771E-02  0.1228627E+00
         21   -1    0    0  501  502  0.00000000000E+00  0.00000000000E+00  0.74472928077E+02  0.74472928077E+02  0.00000000000E+00 0. -1.
          1   -1    0    0  502    0 -0.00000000000E+00 -0.00000000000E+00 -0.62034395740E+03  0.62034395740E+03  0.00000000000E+00 0. -1.
         23    2    1    2    0    0 -0.72864448724E+02  0.69820682227E+02 -0.47469974804E+03  0.49401925602E+03  0.92363515394E+02 0.  0.
         23    2    1    2    0    0 -0.15135282471E+01 -0.64995217260E+02 -0.27248669867E+02  0.11428425266E+03  0.89954051399E+02 0.  0.
        -11    1    3    3    0    0 -0.86438464549E+02  0.26238238943E+02 -0.28884162803E+03  0.30263763715E+03  0.00000000000E+00 0. -1.
         11    1    3    3    0    0  0.13574015825E+02  0.43582443284E+02 -0.18585812001E+03  0.19138161887E+03  0.00000000000E+00 0.  1.
        -13    1    4    4    0    0 -0.29993222249E+02 -0.34861165394E+02  0.21095047060E+02  0.50595407341E+02  0.00000000000E+00 0. -1.
         13    1    4    4    0    0  0.28479694002E+02 -0.30134051866E+02 -0.48343716927E+02  0.63688845323E+02  0.00000000000E+00 0.  1.
          1    1    1    2  501    0  0.74377976971E+02 -0.48254649674E+01 -0.43922611417E+02  0.86513376793E+02  0.00000000000E+00 0. -1.
<scales pt_clust_5="13000.00000" pt_clust_6="13000.00000" pt_clust_7="13000.00000" pt_clust_8="13000.00000" pt_clust_9="74.53434"></scales>
<clustering>
<clus scale="   74.534">  1  9  2 -1</clus>
<clus scale="   89.954">  7  8 -1 -1</clus>
<clus scale="   92.364">  5  6 -1 -1</clus>
<clus scale="  127.937">  1  7  2 -1</clus>
<clus scale="   74.534">  1  5  2 -1</clus>
</clustering>
</event>
<event>
 9    1  0.1426358E-005  0.1303173E+03  0.7546771E-02  0.1227293E+00
          2   -1    0    0  502    0 -0.00000000000E+00  0.00000000000E+00  0.51642541315E+03  0.51642541315E+03  0.00000000000E+00 0. -1.
         21   -1    0    0  501  502  0.00000000000E+00 -0.00000000000E+00 -0.72104583139E+02  0.72104583139E+02  0.00000000000E+00 0. -1.
         23    2    1    2    0    0 -0.32223148232E+02  0.86905753648E+02  0.19101860670E+03  0.23114870462E+03  0.91382023620E+02 0.  0.
         23    2    1    2    0    0  0.89923875244E+02 -0.54611469986E+02  0.58823963463E+02  0.15196929541E+03  0.92551024185E+02 0.  0.
        -11    1    3    3    0    0  0.15959058767E+02  0.71199997578E+02  0.75469891291E+02  0.10497540523E+03  0.00000000000E+00 0. -1.
         11    1    3    3    0    0 -0.48182206999E+02  0.15705756070E+02  0.11554871541E+03  0.12617329939E+03  0.00000000000E+00 0.  1.
        -11    1    4    4    0    0  0.18822791445E+02  0.25895234097E+02  0.72697385799E+01  0.32828489544E+02  0.00000000000E+00 0.  1.
         11    1    4    4    0    0  0.71101083799E+02 -0.80506704083E+02  0.51554224883E+02  0.11914080587E+03  0.00000000000E+00 0. -1.
          2    1    1    2  501    0 -0.57700727011E+02 -0.32294283662E+02  0.19447825984E+03  0.20541199626E+03  0.00000000000E+00 0. -1.
<scales pt_clust_5="13000.00000" pt_clust_6="13000.00000" pt_clust_7="13000.00000" pt_clust_8="13000.00000" pt_clust_9="66.12336"></scales>
<clustering>
<clus scale="   66.123">  2  9  1 -1</clus>
<clus scale="   91.382">  5  6 -1 -1</clus>
<clus scale="   92.551">  7  8 -1 -1</clus>
<clus scale="  129.490">  1  5  2 -1</clus>
<clus scale="   66.123">  2  5  1 -1</clus>
</clustering>
</event>
<event>
 9    1  0.1426358E-005  0.1408766E+03  0.7546771E-02  0.1218372E+00
          2   -1    0    0  502    0 -0.00000000000E+00  0.00000000000E+00  0.44875943445E+03  0.44875943445E+03  0.00000000000E+00 0. -1.
         21   -1    0    0  501  502  0.00000000000E+00 -0.00000000000E+00 -0.75460841893E+02  0.75460841893E+02  0.00000000000E+00 0.  1.
         23    2    1    2    0    0  0.10592672798E+03  0.54097978248E+02  0.22970253576E+03  0.27439357285E+03  0.91550614061E+02 0.  0.
         23    2    1    2    0    0 -0.37690594314E+02 -0.68637370585E+01  0.98456258894E+02  0.15535530658E+03  0.11390322463E+03 0.  0.
        -11    1    3    3    0    0  0.19316211911E+02 -0.21755697019E+02  0.82724895800E+02  0.87691703031E+02  0.00000000000E+00 0. -1.
         11    1    3    3    0    0  0.86610516072E+02  0.75853675266E+02  0.14697763996E+03  0.18670186982E+03  0.00000000000E+00 0.  1.
        -13    1    4    4    0    0 -0.71506085630E+02 -0.22120200955E+02  0.90449481694E+02  0.11740328918E+03  0.00000000000E+00 0. -1.
         13    1    4    4    0    0  0.33815491316E+02  0.15256463896E+02  0.80067771991E+01  0.37952017399E+02  0.00000000000E+00 0.  1.
          2    1    1    2  501    0 -0.68236133669E+02 -0.47234241189E+02  0.45139797896E+02  0.94471396903E+02  0.00000000000E+00 0. -1.
<scales pt_clust_5="13000.00000" pt_clust_6="13000.00000" pt_clust_7="13000.00000" pt_clust_8="13000.00000" pt_clust_9="82.98942"></scales>
<clustering>
<clus scale="   82.989">  2  9  1 -1</clus>
<clus scale="   91.551">  5  6 -1 -1</clus>
<clus scale="  113.903">  7  8 -1 -1</clus>
<clus scale="  123.506">  1  5  2 -1</clus>
<clus scale="   82.989">  2  5  1 -1</clus>
</clustering>
</event>
<event>
 9    1  0.1426358E-005  0.1001665E+03  0.7546771E-02  0.1280818E+00
         21   -1    0    0  501  502  0.00000000000E+00  0.00000000000E+00  0.27433043811E+03  0.27433043811E+03  0.00000000000E+00 0.  1.
          1   -1    0    0  502    0 -0.00000000000E+00 -0.00000000000E+00 -0.94044512807E+02  0.94044512807E+02  0.00000000000E+00 0. -1.
         23    2    1    2    0    0 -0.70591275476E+01 -0.21362846961E+02  0.25899989029E+02  0.98770711680E+02  0.92620956279E+02 0.  0.
         23    2    1    2    0    0  0.58605001716E+02  0.64015938939E+02  0.15887692917E+03  0.20254879639E+03  0.90838040658E+02 0.  0.
        -11    1    4    4    0    0  0.50980334569E+02  0.29251639749E+02  0.15615953959E+03  0.16685459163E+03  0.00000000000E+00 0.  1.
         11    1    4    4    0    0  0.76246671475E+01  0.34764299190E+02  0.27173895763E+01  0.35694204760E+02  0.00000000000E+00 0. -1.
        -13    1    3    3    0    0 -0.45704860618E+02  0.58346337128E+01  0.27749139824E+01  0.46159261068E+02  0.00000000000E+00 0. -1.
         13    1    3    3    0    0  0.38645733071E+02 -0.27197480674E+02  0.23125075047E+02  0.52611450612E+02  0.00000000000E+00 0.  1.
          1    1    1    2  501    0 -0.51545874168E+02 -0.42653091978E+02 -0.44909928948E+01  0.67055442853E+02  0.00000000000E+00 0. -1.
<scales pt_clust_5="13000.00000" pt_clust_6="13000.00000" pt_clust_7="13000.00000" pt_clust_8="13000.00000" pt_clust_9="66.90492"></scales>
<clustering>
<clus scale="   66.905">  1  9  2 -1</clus>
<clus scale="   90.838">  5  6 -1 -1</clus>
<clus scale="   92.621">  7  8 -1 -1</clus>
<clus scale="   98.520">  1  5  2 -1</clus>
<clus scale="   66.905">  1  5  2 -1</clus>
</clustering>
</event>
<event>
 9    1  0.1426358E-005  0.1200401E+03  0.7546771E-02  0.1243103E+00
         -3   -1    0    0    0  501 -0.00000000000E+00  0.00000000000E+00  0.63787572612E+02  0.63787572612E+02  0.00000000000E+00 0.  1.
         21   -1    0    0  501  502  0.00000000000E+00 -0.00000000000E+00 -0.31834202817E+03  0.31834202817E+03  0.00000000000E+00 0. -1.
         23    2    1    2    0    0  0.58787630774E+02 -0.35924412103E+02 -0.12011896436E+03  0.16550689129E+03  0.90649967181E+02 0.  0.
         23    2    1    2    0    0 -0.84578749483E+02  0.32749572404E+02 -0.14032134683E+03  0.18997867249E+03  0.90419667481E+02 0.  0.
        -11    1    3    3    0    0  0.26831520166E+02  0.13868693125E+02  0.15199750700E+01  0.30242047676E+02  0.00000000000E+00 0.  1.
         11    1    3    3    0    0  0.31956110608E+02 -0.49793105228E+02 -0.12163893943E+03  0.13526484362E+03  0.00000000000E+00 0. -1.
        -13    1    4    4    0    0 -0.19333897967E+02 -0.31195676943E+02 -0.41430183154E+02  0.55348260558E+02  0.00000000000E+00 0. -1.
         13    1    4    4    0    0 -0.65244851517E+02  0.63945249347E+02 -0.98891163680E+02  0.13463041193E+03  0.00000000000E+00 0.  1.
         -3    1    1    2    0  502  0.25791118709E+02  0.31748396991E+01  0.58858556284E+01  0.26644037004E+02  0.00000000000E+00 0.  1.
<scales pt_clust_5="13000.00000" pt_clust_6="13000.00000" pt_clust_7="13000.00000" pt_clust_8="13000.00000" pt_clust_9="25.98581"></scales>
<clustering>
<clus scale="   25.986">  2  9  1 -1</clus>
<clus scale="   90.420">  7  8 -1 -1</clus>
<clus scale="   90.650">  5  6 -1 -1</clus>
<clus scale="  119.866">  2  7  1 -1</clus>
<clus scale="   25.986">  2  5  1 -1</clus>
</clustering>
</event>
<event>
 9    1  0.1426358E-005  0.1239890E+03  0.7546771E-02  0.1237749E+00
         21   -1    0    0  501  502  0.00000000000E+00  0.00000000000E+00  0.30715944187E+03  0.30715944187E+03  0.00000000000E+00 0. -1.
          3   -1    0    0  502    0 -0.00000000000E+00 -0.00000000000E+00 -0.30195465759E+03  0.30195465759E+03  0.00000000000E+00 0. -1.
         23    2    1    2    0    0 -0.69838590775E+02  0.57548288880E+02 -0.16356924661E+03  0.20952544429E+03  0.94640261257E+02 0.  0.
         23    2    1    2    0    0  0.38581137156E+02 -0.57187290552E+02 -0.85954392451E+02  0.14294935891E+03  0.91035549567E+02 0.  0.
        -11    1    4    4    0    0  0.29048206004E+02 -0.80570203471E+02 -0.50515068707E+02  0.99434039070E+02  0.00000000000E+00 0. -1.
         11    1    4    4    0    0  0.95329311516E+01  0.23382912919E+02 -0.35439323744E+02  0.43515319835E+02  0.00000000000E+00 0.  1.
        -13    1    3    3    0    0 -0.44987585837E+02  0.75608841586E+02 -0.74428878528E+02  0.11523991394E+03  0.00000000000E+00 0.  1.
         13    1    3    3    0    0 -0.24851004938E+02 -0.18060552706E+02 -0.89140368086E+02  0.94285530348E+02  0.00000000000E+00 0. -1.
          3    1    1    2  501    0  0.31257453620E+02 -0.36099832861E+00  0.25472842335E+03  0.25663929627E+03  0.00000000000E+00 0. -1.
<scales pt_clust_5="13000.00000" pt_clust_6="13000.00000" pt_clust_7="13000.00000" pt_clust_8="13000.00000" pt_clust_9="31.25954"></scales>
<clustering>
<clus scale="   31.260">  1  9  2 -1</clus>
<clus scale="   91.036">  5  6 -1 -1</clus>
<clus scale="   94.640">  7  8 -1 -1</clus>
<clus scale="  121.260">  1  5  2 -1</clus>
<clus scale="   31.260">  1  5  2 -1</clus>
</clustering>
</event>
<event>
 9    1  0.1426358E-005  0.2909119E+03  0.7546771E-02  0.1126801E+00
          2   -1    0    0  502    0 -0.00000000000E+00  0.00000000000E+00  0.11440211961E+04  0.11440211961E+04  0.00000000000E+00 0. -1.
         21   -1    0    0  501  502  0.00000000000E+00 -0.00000000000E+00 -0.19514155963E+03  0.19514155963E+03  0.00000000000E+00 0. -1.
         23    2    1    2    0    0  0.60348693147E+02 -0.27747515789E+02  0.10276661728E+03  0.15289963218E+03  0.91681134901E+02 0.  0.
         23    2    1    2    0    0 -0.25960421577E+03  0.20692295466E+03  0.85124193649E+03  0.91824650656E+03  0.91391216042E+02 0.  0.
        -11    1    4    4    0    0 -0.64160956033E+02  0.69701204132E+01  0.14810757129E+03  0.16155823572E+03  0.00000000000E+00 0.  1.
         11    1    4    4    0    0 -0.19544325974E+03  0.19995283425E+03  0.70313436520E+03  0.75668827084E+03  0.00000000000E+00 0. -1.
        -13    1    3    3    0    0  0.76631234292E+02  0.41550021849E+00  0.52018502204E+02  0.92619885991E+02  0.00000000000E+00 0.  1.
         13    1    3    3    0    0 -0.16282541144E+02 -0.28163016008E+02  0.50748115081E+02  0.60279746192E+02  0.00000000000E+00 0. -1.
          2    1    1    2  501    0  0.19925552262E+03 -0.17917543887E+03 -0.51289173040E+01  0.26801661699E+03  0.00000000000E+00 0. -1.
<scales pt_clust_5="13000.00000" pt_clust_6="13000.00000" pt_clust_7="13000.00000" pt_clust_8="13000.00000" pt_clust_9="276.18365"></scales>
<clustering>
<clus scale="   91.391">  5  6 -1 -1</clus>
<clus scale="   91.681">  7  8 -1 -1</clus>
<clus scale="  113.214">  1  7  2 -1</clus>
<clus scale="  276.184">  2  9  1 -1</clus>
<clus scale="  276.184">  2  5  1 -1</clus>
</clustering>
</event>
<event>
 9    1  0.1426358E-005  0.9329171E+02  0.7546771E-02  0.1297022E+00
         21   -1    0    0  501  502  0.00000000000E+00  0.00000000000E+00  0.65063602901E+02  0.65063602901E+02  0.00000000000E+00 0.  1.
          3   -1    0    0  502    0 -0.00000000000E+00 -0.00000000000E+00 -0.29579152349E+03  0.29579152349E+03  0.00000000000E+00 0. -1.
         23    2    1    2    0    0  0.11511594805E+01  0.15130055662E+02 -0.20186874439E+03  0.22129786063E+03  0.89395242624E+02 0.  0.
         23    2    1    2    0    0 -0.59109087556E+01  0.45271471516E+01 -0.53783537795E+02  0.10745921852E+03  0.92732846416E+02 0.  0.
        -13    1    4    4    0    0  0.26771921976E+02 -0.31736869756E+02 -0.37635758385E+02  0.56039405934E+02  0.00000000000E+00 0. -1.
         13    1    4    4    0    0 -0.32682830732E+02  0.36264016908E+02 -0.16147779410E+02  0.51419812590E+02  0.00000000000E+00 0.  1.
        -13    1    3    3    0    0  0.20941076252E+02 -0.31634496868E+02 -0.10957953499E+03  0.11596096134E+03  0.00000000000E+00 0. -1.
         13    1    3    3    0    0 -0.19789916772E+02  0.46764552530E+02 -0.92289209397E+02  0.10533689928E+03  0.00000000000E+00 0.  1.
          3    1    1    2  501    0  0.47597492751E+01 -0.19657202813E+02  0.24924361596E+02  0.32098047240E+02  0.00000000000E+00 0. -1.
<scales pt_clust_5="13000.00000" pt_clust_6="13000.00000" pt_clust_7="13000.00000" pt_clust_8="13000.00000" pt_clust_9="20.22525"></scales>
<clustering>
<clus scale="   20.225">  1  9  2 -1</clus>
<clus scale="   89.395">  7  8 -1 -1</clus>
<clus scale="   89.975">  2  7  1 -1</clus>
<clus scale="   92.733">  5  6 -1 -1</clus>
<clus scale="   20.225">  1  5  2 -1</clus>
</clustering>
</event>
<event>
 9    1  0.1426358E-005  0.1336527E+03  0.7546771E-02  0.1222196E+00
         -1   -1    0    0    0  501 -0.00000000000E+00  0.00000000000E+00  0.54928132095E+02  0.54928132095E+02  0.00000000000E+00 0.  1.
         21   -1    0    0  501  502  0.00000000000E+00 -0.00000000000E+00 -0.46345932983E+03  0.46345932983E+03  0.00000000000E+00 0. -1.
         23    2    1    2    0    0 -0.88153774357E+02 -0.61577002291E+01 -0.11027865773E+03  0.16662952743E+03  0.88289364340E+02 0.  0.
         23    2    1    2    0    0  0.11895149260E+03  0.10931830572E+02 -0.20367523702E+03  0.25217802684E+03  0.88550508360E+02 0.  0.
        -11    1    4    4    0    0  0.11077220843E+03 -0.21686241750E+02 -0.17356310955E+03  0.20703847043E+03  0.00000000000E+00 0.  1.
         11    1    4    4    0    0  0.81792841735E+01  0.32618072321E+02 -0.30112127470E+02  0.45139556404E+02  0.00000000000E+00 0. -1.
        -11    1    3    3    0    0 -0.34447300031E+02 -0.12955792332E+02  0.69969382631E+01  0.37462330139E+02  0.00000000000E+00 0.  1.
         11    1    3    3    0    0 -0.53706474326E+02  0.67980921031E+01 -0.11727559599E+03  0.12916719729E+03  0.00000000000E+00 0. -1.
         -1    1    1    2    0  502 -0.30797718246E+02 -0.47741303427E+01 -0.94577302991E+02  0.99579907665E+02  0.00000000000E+00 0.  1.
<scales pt_clust_5="13000.00000" pt_clust_6="13000.00000" pt_clust_7="13000.00000" pt_clust_8="13000.00000" pt_clust_9="31.16555"></scales>
<clustering>
<clus scale="   31.166">  2  9  1 -1</clus>
<clus scale="   88.289">  7  8 -1 -1</clus>
<clus scale="   88.551">  5  6 -1 -1</clus>
<clus scale="  133.480">  1  7  2 -1</clus>
<clus scale="   31.166">  2  5  1 -1</clus>
</clustering>
</event>
<event>
 9    1  0.1426358E-005  0.1276944E+03  0.7546771E-02  0.1230929E+00
          1   -1    0    0  502    0 -0.00000000000E+00  0.00000000000E+00  0.45791997667E+03  0.45791997667E+03  0.00000000000E+00 0. -1.
         21   -1    0    0  501  502  0.00000000000E+00 -0.00000000000E+00 -0.50039401849E+02  0.50039401849E+02  0.00000000000E+00 0.  1.
         23    2    1    2    0    0 -0.90507420335E+02  0.20258150267E+02  0.18671617288E+03  0.22790245406E+03  0.92057664332E+02 0.  0.
         23    2    1    2    0    0  0.68249838845E+02 -0.57648257190E+02  0.16230285066E+03  0.20685786539E+03  0.92014124364E+02 0.  0.
        -11    1    4    4    0    0 -0.46427892395E+01 -0.43971133571E+02  0.24971070878E+02  0.50779626429E+02  0.00000000000E+00 0.  1.
         11    1    4    4    0    0  0.72892628084E+02 -0.13677123619E+02  0.13733177978E+03  0.15607823896E+03  0.00000000000E+00 0. -1.
        -13    1    3    3    0    0 -0.46032971721E+02 -0.34263632635E+02  0.60411659873E+02  0.83322263864E+02  0.00000000000E+00 0.  1.
         13    1    3    3    0    0 -0.44474448614E+02  0.54521782902E+02  0.12630451301E+03  0.14458019019E+03  0.00000000000E+00 0. -1.
          1    1    1    2  501    0  0.22257581491E+02  0.37390106923E+02  0.58861551275E+02  0.73199059066E+02  0.00000000000E+00 0. -1.
<scales pt_clust_5="13000.00000" pt_clust_6="13000.00000" pt_clust_7="13000.00000" pt_clust_8="13000.00000" pt_clust_9="43.51347"></scales>
<clustering>
<clus scale="   43.513">  2  9  1 -1</clus>
<clus scale="   92.014">  5  6 -1 -1</clus>
<clus scale="   92.058">  7  8 -1 -1</clus>
<clus scale="  127.663">  2  5  1 -1</clus>
<clus scale="   43.513">  2  5  1 -1</clus>
</clustering>
</event>
<event>
 9    1  0.1426358E-005  0.1047174E+03  0.7546771E-02  0.1271063E+00
          4   -1    0    0  502    0 -0.00000000000E+00  0.00000000000E+00  0.32428245799E+03  0.32428245799E+03  0.00000000000E+00 0. -1.
         21   -1    0    0  501  502  0.00000000000E+00 -0.00000000000E+00 -0.41298821079E+02  0.41298821079E+02  0.00000000000E+00 0.  1.
         23    2    1    2    0    0  0.39452057645E+02  0.30521571557E+02  0.15166323347E+03  0.18549806410E+03  0.94444503365E+02 0.  0.
         23    2    1    2    0    0 -0.18678058783E+02 -0.32269277074E+02  0.10718533054E+03  0.14819097066E+03  0.95297914870E+02 0.  0.
        -11    1    3    3    0    0 -0.22744639070E+02  0.57435354625E+01  0.45904168524E+01  0.23903529717E+02  0.00000000000E+00 0.  1.
         11    1    3    3    0    0  0.62196696715E+02  0.24778036094E+02  0.14707281661E+03  0.16159453438E+03  0.00000000000E+00 0. -1.
        -13    1    4    4    0    0 -0.57832993305E+02 -0.16747805597E+02  0.62437507724E+02  0.86738610075E+02  0.00000000000E+00 0.  1.
         13    1    4    4    0    0  0.39154934523E+02 -0.15521471477E+02  0.44747822821E+02  0.61452360585E+02  0.00000000000E+00 0. -1.
          4    1    1    2  501    0 -0.20773998862E+02  0.17477055171E+01  0.24135072903E+02  0.31892244313E+02  0.00000000000E+00 0. -1.
<scales pt_clust_5="13000.00000" pt_clust_6="13000.00000" pt_clust_7="13000.00000" pt_clust_8="13000.00000" pt_clust_9="20.84739"></scales>
<clustering>
<clus scale="   20.847">  2  9  1 -1</clus>
<clus scale="   94.445">  5  6 -1 -1</clus>
<clus scale="   95.298">  7  8 -1 -1</clus>
<clus scale="  103.941">  1  5  2 -1</clus>
<clus scale="   20.847">  2  5  1 -1</clus>
</clustering>
</event>
<event>
 9    1  0.1426358E-005  0.9323546E+02  0.7546771E-02  0.1295516E+00
         21   -1    0    0  501  502  0.00000000000E+00  0.00000000000E+00  0.62906684929E+02  0.62906684929E+02  0.00000000000E+00 0.  1.
          3   -1    0    0  502    0 -0.00000000000E+00 -0.00000000000E+00 -0.30423528192E+03  0.30423528192E+03  0.00000000000E+00 0. -1.
         23    2    1    2    0    0  0.12287045377E+02 -0.19165494027E+02 -0.17159020106E+03  0.19524513965E+03  0.90328178411E+02 0.  0.
         23    2    1    2    0    0 -0.27392589544E+02 -0.39471735006E+01 -0.95085500155E+02  0.13441551776E+03  0.90886439764E+02 0.  0.
        -11    1    4    4    0    0 -0.56230399711E+02  0.10883617095E+02 -0.37909157782E+02  0.68683442083E+02  0.00000000000E+00 0. -1.
         11    1    4    4    0    0  0.28837810167E+02 -0.14830790596E+02 -0.57176342374E+02  0.65732075672E+02  0.00000000000E+00 0.  1.
        -13    1    3    3    0    0  0.13644106872E+02  0.25835692982E+02 -0.13230722353E+03  0.13549481939E+03  0.00000000000E+00 0. -1.
         13    1    3    3    0    0 -0.13570614954E+01 -0.45001187009E+02 -0.39282977526E+02  0.59750320262E+02  0.00000000000E+00 0.  1.
          3    1    1    2  501    0  0.15105544167E+02  0.23112667528E+02  0.25347104220E+02  0.37481309438E+02  0.00000000000E+00 0. -1.
<scales pt_clust_5="13000.00000" pt_clust_6="13000.00000" pt_clust_7="13000.00000" pt_clust_8="13000.00000" pt_clust_9="27.61110"></scales>
<clustering>
<clus scale="   27.611">  1  9  2 -1</clus>
<clus scale="   90.328">  7  8 -1 -1</clus>
<clus scale="   90.886">  5  6 -1 -1</clus>
<clus scale="   92.691">  2  7  1 -1</clus>
<clus scale="   27.611">  1  5  2 -1</clus>
</clustering>
</event>
<event>
 9    1  0.1426358E-005  0.1472335E+03  0.7546771E-02  0.1204591E+00
          1   -1    0    0  502    0 -0.00000000000E+00  0.00000000000E+00  0.15295647370E+03  0.15295647370E+03  0.00000000000E+00 0. -1.
         21   -1    0    0  501  502  0.00000000000E+00 -0.00000000000E+00 -0.51468036558E+03  0.51468036558E+03  0.00000000000E+00 0.  1.
         23    2    1    2    0    0  0.78247101874E+02 -0.81833269812E+02  0.50942144126E+02  0.15506873015E+03  0.92908105250E+02 0.  0.
         23    2    1    2    0    0 -0.11400568429E+03  0.47748761999E+02 -0.72697111724E+02  0.16902873823E+03  0.89490803845E+02 0.  0.
        -11    1    3    3    0    0  0.25102938037E+02 -0.20784198503E+02  0.65191503039E+02  0.72883965822E+02  0.00000000000E+00 0. -1.
         11    1    3    3    0    0  0.53144163837E+02 -0.61049071309E+02 -0.14249358912E+02  0.82184764324E+02  0.00000000000E+00 0.  1.
        -13    1    4    4    0    0 -0.10790171017E+03  0.28217843930E+02 -0.89141922603E+02  0.14277712751E+03  0.00000000000E+00 0.  1.
         13    1    4    4    0    0 -0.61039741131E+01  0.19530918069E+02  0.16444810880E+02  0.26251610721E+02  0.00000000000E+00 0. -1.
          1    1    1    2  501    0  0.35758582412E+02  0.34084507813E+02 -0.33996892428E+03  0.34353937091E+03  0.00000000000E+00 0. -1.
<scales pt_clust_5="13000.00000" pt_clust_6="13000.00000" pt_clust_7="13000.00000" pt_clust_8="13000.00000" pt_clust_9="49.40071"></scales>
<clustering>
<clus scale="   49.401">  2  9  1 -1</clus>
<clus scale="   89.491">  7  8 -1 -1</clus>
<clus scale="   92.908">  5  6 -1 -1</clus>
<clus scale="  145.101">  2  7  1 -1</clus>
<clus scale="   49.401">  2  5  1 -1</clus>
</clustering>
</event>
<event>
 9    1  0.1426358E-005  0.9151940E+02  0.7546771E-02  0.1300203E+00
         21   -1    0    0  501  502  0.00000000000E+00  0.00000000000E+00  0.39970831865E+03  0.39970831865E+03  0.00000000000E+00 0.  1.
          3   -1    0    0  502    0 -0.00000000000E+00 -0.00000000000E+00 -0.49653207395E+02  0.49653207395E+02  0.00000000000E+00 0. -1.
         23    2    1    2    0    0  0.73234308087E+01 -0.38251798954E+01  0.16290550814E+02  0.91268718020E+02  0.89422213142E+02 0.  0.
         23    2    1    2    0    0  0.12641302884E+02  0.26296808579E+02  0.21040064520E+03  0.23111950268E+03  0.91084951211E+02 0.  0.
        -11    1    4    4    0    0 -0.37624311972E+02  0.99802762599E+01  0.12270424633E+03  0.12873044253E+03  0.00000000000E+00 0. -1.
         11    1    4    4    0    0  0.50265614856E+02  0.16316532319E+02  0.87696398869E+02  0.10238906015E+03  0.00000000000E+00 0.  1.
        -13    1    3    3    0    0 -0.28159722694E+02 -0.33176872923E+02  0.46041268172E+01  0.43759260310E+02  0.00000000000E+00 0. -1.
         13    1    3    3    0    0  0.35483153503E+02  0.29351693027E+02  0.11686423997E+02  0.47509457710E+02  0.00000000000E+00 0.  1.
          3    1    1    2  501    0 -0.19964733693E+02 -0.22471628684E+02  0.12336391524E+03  0.12697330534E+03  0.00000000000E+00 0. -1.
<scales pt_clust_5="13000.00000" pt_clust_6="13000.00000" pt_clust_7="13000.00000" pt_clust_8="13000.00000" pt_clust_9="30.05935"></scales>
<clustering>
<clus scale="   30.059">  1  9  2 -1</clus>
<clus scale="   89.422">  7  8 -1 -1</clus>
<clus scale="   89.865">  2  7  1 -1</clus>
<clus scale="   91.085">  5  6 -1 -1</clus>
<clus scale="   30.059">  1  5  2 -1</clus>
</clustering>
</event>
<event>
 9    1  0.1426358E-005  0.1361961E+03  0.7546771E-02  0.1219519E+00
          2   -1    0    0  502    0 -0.00000000000E+00  0.00000000000E+00  0.37446021496E+03  0.37446021496E+03  0.00000000000E+00 0. -1.
         21   -1    0    0  501  502  0.00000000000E+00 -0.00000000000E+00 -0.14720577461E+03  0.14720577461E+03  0.00000000000E+00 0.  1.
         23    2    1    2    0    0  0.26263154483E+01  0.85565146789E+02  0.23559643388E+03  0.26868855236E+03  0.96744853267E+02 0.  0.
         23    2    1    2    0    0  0.36762105819E+02 -0.14559677240E+03  0.15786615332E+02  0.17723158869E+03  0.92800572458E+02 0.  0.
        -11    1    4    4    0    0  0.67100306821E+02 -0.10377806721E+03  0.20819051747E+02  0.12532266884E+03  0.00000000000E+00 0. -1.
         11    1    4    4    0    0 -0.30338201002E+02 -0.41818705184E+02 -0.50324364150E+01  0.51908919846E+02  0.00000000000E+00 0.  1.
        -13    1    3    3    0    0  0.20207293398E+02  0.48636285997E+02  0.21781200701E+03  0.22408903012E+03  0.00000000000E+00 0. -1.
         13    1    3    3    0    0 -0.17580977949E+02  0.36928860792E+02  0.17784426873E+02  0.44599522242E+02  0.00000000000E+00 0.  1.
          2    1    1    2  501    0 -0.39388421267E+02  0.60031625606E+02 -0.24128608869E+02  0.75745848525E+02  0.00000000000E+00 0. -1.
<scales pt_clust_5="13000.00000" pt_clust_6="13000.00000" pt_clust_7="13000.00000" pt_clust_8="13000.00000" pt_clust_9="71.80003"></scales>
<clustering>
<clus scale="   71.800">  2  9  1 -1</clus>
<clus scale="   92.801">  5  6 -1 -1</clus>
<clus scale="   96.745">  7  8 -1 -1</clus>
<clus scale="  133.423">  2  5  1 -1</clus>
<clus scale="   71.800">  2  5  1 -1</clus>
</clustering>
</event>
<event>
 9    1  0.1426358E-005  0.1486168E+03  0.7546771E-02  0.1218399E+00
         -2   -1    0    0    0  501 -0.00000000000E+00  0.00000000000E+00  0.41908769957E+03  0.41908769957E+03  0.00000000000E+00 0. -1.
         21   -1    0    0  501  502  0.00000000000E+00 -0.00000000000E+00 -0.58967248490E+03  0.58967248490E+03  0.00000000000E+00 0. -1.
         23    2    1    2    0    0 -0.51648054516E+02  0.62570301240E+01  0.37460778495E+03  0.38908195803E+03  0.91362495347E+02 0.  0.
         23    2    1    2    0    0 -0.75714998466E+02  0.13429626457E+02 -0.10124364057E+03  0.15740172487E+03  0.92800389961E+02 0.  0.
        -11    1    4    4    0    0  0.21403598709E+02  0.86403644418E+01 -0.23111853307E+02  0.32663859213E+02  0.00000000000E+00 0.  1.
         11    1    4    4    0    0 -0.97118597175E+02  0.47892620153E+01 -0.78131787262E+02  0.12473786566E+03  0.00000000000E+00 0. -1.
        -13    1    3    3    0    0 -0.51335324291E+02  0.43764751704E+02  0.25115165539E+03  0.26005350029E+03  0.00000000000E+00 0. -1.
         13    1    3    3    0    0 -0.31273022483E+00 -0.37507721580E+02  0.12345612956E+03  0.12902845773E+03  0.00000000000E+00 0.  1.
         -2    1    1    2    0  502  0.12736305298E+03 -0.19686656581E+02 -0.44394892971E+03  0.46227650157E+03  0.00000000000E+00 0. -1.
<scales pt_clust_5="13000.00000" pt_clust_6="13000.00000" pt_clust_7="13000.00000" pt_clust_8="13000.00000" pt_clust_9="116.08203"></scales>
<clustering>
<clus scale="   91.362">  7  8 -1 -1</clus>
<clus scale="   92.800">  5  6 -1 -1</clus>
<clus scale="  105.137">  1  7  2 -1</clus>
<clus scale="  116.082">  2  9  1 -1</clus>
<clus scale="  116.082">  2  5  1 -1</clus>
</clustering>
</event>
<event>
 9    1  0.1426358E-005  0.9667014E+02  0.7546771E-02  0.1288794E+00
          3   -1    0    0  502    0 -0.00000000000E+00  0.00000000000E+00  0.65758663161E+03  0.65758663161E+03  0.00000000000E+00 0. -1.
         21   -1    0    0  501  502  0.00000000000E+00 -0.00000000000E+00 -0.59523283294E+02  0.59523283294E+02  0.00000000000E+00 0. -1.
         23    2    1    2    0    0 -0.10257230958E+02 -0.50280942465E+02  0.39551716461E+03  0.40910851471E+03  0.91118413854E+02 0.  0.
         23    2    1    2    0    0 -0.11921076032E+02  0.10286689716E+02  0.23519368863E+03  0.25181174695E+03  0.88572889129E+02 0.  0.
        -13    1    4    4    0    0 -0.18104529600E+02 -0.31194152093E+02  0.48358844860E+02  0.60327663580E+02  0.00000000000E+00 0.  1.
         13    1    4    4    0    0  0.61834535677E+01  0.41480841809E+02  0.18683484377E+03  0.19148408337E+03  0.00000000000E+00 0. -1.
        -13    1    3    3    0    0 -0.49034981881E+02 -0.23600135404E+02  0.16203752979E+03  0.17093143918E+03  0.00000000000E+00 0.  1.
         13    1    3    3    0    0  0.38777750923E+02 -0.26680807060E+02  0.23347963482E+03  0.23817707553E+03  0.00000000000E+00 0. -1.
          3    1    1    2  501    0  0.22178306990E+02  0.39994252748E+02 -0.32647504930E+02  0.56189653247E+02  0.00000000000E+00 0. -1.
<scales pt_clust_5="13000.00000" pt_clust_6="13000.00000" pt_clust_7="13000.00000" pt_clust_8="13000.00000" pt_clust_9="45.73202"></scales>
<clustering>
<clus scale="   45.732">  2  9  1 -1</clus>
<clus scale="   88.573">  5  6 -1 -1</clus>
<clus scale="   91.118">  7  8 -1 -1</clus>
<clus scale="   94.275">  2  5  1 -1</clus>
<clus scale="   45.732">  2  5  1 -1</clus>
</clustering>
</event>
<event>
 9    1  0.1426358E-005  0.1127838E+03  0.7546771E-02  0.1255872E+00
          4   -1    0    0  502    0 -0.00000000000E+00  0.00000000000E+00  0.17989332922E+03  0.17989332922E+03  0.00000000000E+00 0. -1.
         21   -1    0    0  501  502  0.00000000000E+00 -0.00000000000E+00 -0.99119721060E+02  0.99119721060E+02  0.00000000000E+00 0.  1.
         23    2    1    2    0    0 -0.55479431770E+02 -0.49806245761E+02  0.76357939602E+02  0.14105852623E+03  0.92240681993E+02 0.  0.
         23    2    1    2    0    0  0.22862932996E+02  0.46932476441E+02  0.20776531790E+01  0.10512830193E+03  0.91226488339E+02 0.  0.
        -11    1    3    3    0    0 -0.41420226965E+02 -0.18800120114E+02 -0.11429252918E+02  0.46901039865E+02  0.00000000000E+00 0.  1.
         11    1    3    3    0    0 -0.14059204806E+02 -0.31006125648E+02  0.87787192521E+02  0.94157486362E+02  0.00000000000E+00 0. -1.
        -13    1    4    4    0    0 -0.77282542914E+01  0.67676969752E+02  0.15852915263E+00  0.68116982322E+02  0.00000000000E+00 0.  1.
         13    1    4    4    0    0  0.30591187288E+02 -0.20744493311E+02  0.19191240264E+01  0.37011319612E+02  0.00000000000E+00 0. -1.
          4    1    1    2  501    0  0.32616498774E+02  0.28737693207E+01  0.23380153740E+01  0.32826222114E+02  0.00000000000E+00 0. -1.
<scales pt_clust_5="13000.00000" pt_clust_6="13000.00000" pt_clust_7="13000.00000" pt_clust_8="13000.00000" pt_clust_9="32.74285"></scales>
<clustering>
<clus scale="   32.743">  2  9  1 -1</clus>
<clus scale="   91.226">  7  8 -1 -1</clus>
<clus scale="   92.241">  5  6 -1 -1</clus>
<clus scale="  111.956">  2  7  1 -1</clus>
<clus scale="   32.743">  2  5  1 -1</clus>
</clustering>
</event>
<event>
 9    1  0.1426358E-005  0.1517657E+03  0.7546771E-02  0.1199022E+00
          4   -1    0    0  502    0 -0.00000000000E+00  0.00000000000E+00  0.30180957152E+03  0.30180957152E+03  0.00000000000E+00 0. -1.
         21   -1    0    0  501  502  0.00000000000E+00 -0.00000000000E+00 -0.27800353346E+03  0.27800353346E+03  0.00000000000E+00 0. -1.
         23    2    1    2    0    0 -0.15935533504E+02  0.12658027955E+03  0.20681079217E+03  0.25894224631E+03  0.89464377079E+02 0.  0.
         23    2    1    2    0    0  0.74962949749E+02 -0.81019001304E+02 -0.25675782352E+02  0.14676608764E+03  0.93260475420E+02 0.  0.
        -11    1    3    3    0    0  0.35334361812E+02  0.70024832910E+02  0.11980263228E+03  0.14319450077E+03  0.00000000000E+00 0. -1.
         11    1    3    3    0    0 -0.51269895316E+02  0.56555446641E+02  0.87008159886E+02  0.11574774554E+03  0.00000000000E+00 0.  1.
        -13    1    4    4    0    0  0.55830554893E+02 -0.29828831582E+01 -0.34872553379E+02  0.65894183588E+02  0.00000000000E+00 0.  1.
         13    1    4    4    0    0  0.19132394856E+02 -0.78036118146E+02  0.91967710273E+01  0.80871904055E+02  0.00000000000E+00 0. -1.
          4    1    1    2  501    0 -0.59027416245E+02 -0.45561278247E+02 -0.15732897175E+03  0.17410477103E+03  0.00000000000E+00 0. -1.
<scales pt_clust_5="13000.00000" pt_clust_6="13000.00000" pt_clust_7="13000.00000" pt_clust_8="13000.00000" pt_clust_9="74.56585"></scales>
<clustering>
<clus scale="   74.566">  2  9  1 -1</clus>
<clus scale="   89.464">  5  6 -1 -1</clus>
<clus scale="   93.260">  7  8 -1 -1</clus>
<clus scale="  149.463">  1  5  2 -1</clus>
<clus scale="   74.566">  2  5  1 -1</clus>
</clustering>
</event>
<event>
 9    1  0.1426358E-005  0.9344392E+02  0.7546771E-02  0.1297089E+00
          1   -1    0    0  502    0 -0.00000000000E+00  0.00000000000E+00  0.17753338948E+03  0.17753338948E+03  0.00000000000E+00 0. -1.
         21   -1    0    0  501  502  0.00000000000E+00 -0.00000000000E+00 -0.19157777294E+03  0.19157777294E+03  0.00000000000E+00 0. -1.
         23    2    1    2    0    0 -0.10523990167E+01 -0.18266642483E+01  0.13538777574E+03  0.16446834322E+03  0.93357066458E+02 0.  0.
         23    2    1    2    0    0  0.19501480678E+02 -0.32418581882E+02 -0.83069101634E+02  0.12771973485E+03  0.89334107840E+02 0.  0.
        -11    1    3    3    0    0  0.23466079166E+02  0.38742322513E+02  0.56248367527E+02  0.72218441375E+02  0.00000000000E+00 0.  1.
         11    1    3    3    0    0 -0.24518478183E+02 -0.40568986761E+02  0.79139408209E+02  0.92249901848E+02  0.00000000000E+00 0. -1.
        -13    1    4    4    0    0 -0.20555653045E+02  0.19355324831E+02 -0.10847208400E+02  0.30246080763E+02  0.00000000000E+00 0.  1.
         13    1    4    4    0    0  0.40057133723E+02 -0.51773906713E+02 -0.72221893234E+02  0.97473654085E+02  0.00000000000E+00 0. -1.
          1    1    1    2  501    0 -0.18449081661E+02  0.34245246130E+02 -0.66363057560E+02  0.76923084347E+02  0.00000000000E+00 0. -1.
<scales pt_clust_5="13000.00000" pt_clust_6="13000.00000" pt_clust_7="13000.00000" pt_clust_8="13000.00000" pt_clust_9="38.89866"></scales>
<clustering>
<clus scale="   38.899">  2  9  1 -1</clus>
<clus scale="   89.334">  7  8 -1 -1</clus>
<clus scale="   89.425">  2  7  1 -1</clus>
<clus scale="   93.357">  5  6 -1 -1</clus>
<clus scale="   38.899">  2  5  1 -1</clus>
</clustering>
</event>
<event>
 9    1  0.1426358E-005  0.1040407E+03  0.7546771E-02  0.1273228E+00
         21   -1    0    0  501  502  0.00000000000E+00  0.00000000000E+00  0.43372684557E+03  0.43372684557E+03  0.00000000000E+00 0.  1.
         -2   -1    0    0    0  501 -0.00000000000E+00 -0.00000000000E+00 -0.32100297329E+03  0.32100297329E+03  0.00000000000E+00 0.  1.
         23    2    1    2    0    0  0.47142197298E+02  0.71273651442E+01 -0.29112972527E+03  0.30850251807E+03  0.90244670847E+02 0.  0.
         23    2    1    2    0    0 -0.30862084259E+02  0.62686106269E+02  0.21876312215E+03  0.24773939950E+03  0.92927338770E+02 0.  0.
        -13    1    4    4    0    0 -0.62796936285E+01  0.76910826505E+02  0.19815167453E+03  0.21264711591E+03  0.00000000000E+00 0.  1.
         13    1    4    4    0    0 -0.24582390631E+02 -0.14224720236E+02  0.20611447616E+02  0.35092283593E+02  0.00000000000E+00 0. -1.
        -13    1    3    3    0    0  0.28738914784E+01  0.42393433364E+02 -0.89409217679E+02  0.98992275712E+02  0.00000000000E+00 0. -1.
         13    1    3    3    0    0  0.44268305820E+02 -0.35266068220E+02 -0.20172050760E+03  0.20951024236E+03  0.00000000000E+00 0.  1.
         -2    1    1    2    0  502 -0.16280113039E+02 -0.69813471413E+02  0.18509047541E+03  0.19848790129E+03  0.00000000000E+00 0.  1.
<scales pt_clust_5="13000.00000" pt_clust_6="13000.00000" pt_clust_7="13000.00000" pt_clust_8="13000.00000" pt_clust_9="71.68656"></scales>
<clustering>
<clus scale="   71.687">  1  9  2 -1</clus>
<clus scale="   90.245">  7  8 -1 -1</clus>
<clus scale="   92.927">  5  6 -1 -1</clus>
<clus scale="  101.652">  2  7  1 -1</clus>
<clus scale="   71.687">  1  5  2 -1</clus>
</clustering>
</event>
<event>
 9    1  0.1426358E-005  0.1363211E+03  0.7546771E-02  0.1218903E+00
          4   -1    0    0  502    0 -0.00000000000E+00  0.00000000000E+00  0.36103333303E+03  0.36103333303E+03  0.00000000000E+00 0. -1.
         21   -1    0    0  501  502  0.00000000000E+00 -0.00000000000E+00 -0.10275172762E+03  0.10275172762E+03  0.00000000000E+00 0.  1.
         23    2    1    2    0    0  0.97918216955E+02  0.45120125422E+02  0.27201450060E+03  0.30541841456E+03  0.87548366561E+02 0.  0.
         23    2    1    2    0    0 -0.68116912390E+02 -0.38198798281E+02 -0.31258819613E+02  0.12310788050E+03  0.89885340822E+02 0.  0.
        -11    1    4    4    0    0 -0.92607539100E+01 -0.42868932216E+02 -0.44628771630E+02  0.62571832077E+02  0.00000000000E+00 0.  1.
         11    1    4    4    0    0 -0.58856158480E+02  0.46701339350E+01  0.13369952017E+02  0.60536048425E+02  0.00000000000E+00 0. -1.
        -13    1    3    3    0    0  0.26514782060E+02  0.54843846847E+02  0.81648175967E+02  0.10186906225E+03  0.00000000000E+00 0. -1.
         13    1    3    3    0    0  0.71403434895E+02 -0.97237214252E+01  0.19036632463E+03  0.20354935232E+03  0.00000000000E+00 0.  1.
          4    1    1    2  501    0 -0.29801304565E+02 -0.69213271409E+01  0.17525924422E+02  0.35258765577E+02  0.00000000000E+00 0. -1.
<scales pt_clust_5="13000.00000" pt_clust_6="13000.00000" pt_clust_7="13000.00000" pt_clust_8="13000.00000" pt_clust_9="30.59449"></scales>
<clustering>
<clus scale="   30.594">  2  9  1 -1</clus>
<clus scale="   87.548">  7  8 -1 -1</clus>
<clus scale="   89.885">  5  6 -1 -1</clus>
<clus scale="  134.792">  1  7  2 -1</clus>
<clus scale="   30.594">  2  5  1 -1</clus>
</clustering>
</event>
<event>
 9    1  0.1426358E-005  0.1325078E+03  0.7546771E-02  0.1229032E+00
          1   -1    0    0  502    0 -0.00000000000E+00  0.00000000000E+00  0.56623301022E+03  0.56623301022E+03  0.00000000000E+00 0. -1.
         21   -1    0    0  501  502  0.00000000000E+00 -0.00000000000E+00 -0.60474221046E+02  0.60474221046E+02  0.00000000000E+00 0. -1.
         23    2    1    2    0    0  0.40090724098E+02 -0.79154514786E+02  0.35358845969E+03  0.37576496722E+03  0.91114260123E+02 0.  0.
         23    2    1    2    0    0 -0.42453490182E+02  0.10278879595E+03  0.17449139967E+03  0.21834790741E+03  0.69718897803E+02 0.  0.
        -11    1    3    3    0    0  0.53649335163E+02 -0.31160172833E+02  0.28051798269E+03  0.28729696509E+03  0.00000000000E+00 0.  1.
         11    1    3    3    0    0 -0.13558611064E+02 -0.47994341953E+02  0.73070476995E+02  0.88468002135E+02  0.00000000000E+00 0. -1.
        -13    1    4    4    0    0  0.18078429447E+02  0.26074019384E+02  0.28372060307E+02  0.42563574852E+02  0.00000000000E+00 0.  1.
         13    1    4    4    0    0 -0.60531919630E+02  0.76714776570E+02  0.14611933936E+03  0.17578433256E+03  0.00000000000E+00 0. -1.
          1    1    1    2  501    0  0.23627660839E+01 -0.23634281167E+02 -0.22321070185E+02  0.32594356629E+02  0.00000000000E+00 0. -1.
<scales pt_clust_5="13000.00000" pt_clust_6="13000.00000" pt_clust_7="13000.00000" pt_clust_8="13000.00000" pt_clust_9="23.75209"></scales>
<clustering>
<clus scale="   23.752">  2  9  1 -1</clus>
<clus scale="   69.719">  7  8 -1 -1</clus>
<clus scale="   91.114">  5  6 -1 -1</clus>
<clus scale="  118.816">  2  7  1 -1</clus>
<clus scale="   23.752">  2  5  1 -1</clus>
</clustering>
</event>
<event>
 9    1  0.1426358E-005  0.9751116E+02  0.7546771E-02  0.1286080E+00
         21   -1    0    0  501  502  0.00000000000E+00  0.00000000000E+00  0.13999199330E+03  0.13999199330E+03  0.00000000000E+00 0. -1.
         -2   -1    0    0    0  501 -0.00000000000E+00 -0.00000000000E+00 -0.28550493422E+03  0.28550493422E+03  0.00000000000E+00 0.  1.
         23    2    1    2    0    0  0.21012967109E+00  0.36966402915E+02 -0.24023001494E+03  0.25888641425E+03  0.89135606281E+02 0.  0.
         23    2    1    2    0    0 -0.31813871512E+02 -0.40257298592E+02  0.60914867344E+02  0.12021853477E+03  0.90050555409E+02 0.  0.
        -11    1    4    4    0    0 -0.77986468440E+01  0.19405102707E+02  0.51029705915E+02  0.55148960003E+02  0.00000000000E+00 0.  1.
         11    1    4    4    0    0 -0.24015224668E+02 -0.59662401298E+02  0.98851614294E+01  0.65069574772E+02  0.00000000000E+00 0. -1.
        -13    1    3    3    0    0  0.33860154214E+02 -0.87788143458E+01 -0.55309286973E+02  0.65442301687E+02  0.00000000000E+00 0.  1.
         13    1    3    3    0    0 -0.33650024542E+02  0.45745217261E+02 -0.18492072797E+03  0.19344411256E+03  0.00000000000E+00 0. -1.
         -2    1    1    2    0  502  0.31603741841E+02  0.32908956766E+01  0.33802206669E+02  0.46391978492E+02  0.00000000000E+00 0.  1.
<scales pt_clust_5="13000.00000" pt_clust_6="13000.00000" pt_clust_7="13000.00000" pt_clust_8="13000.00000" pt_clust_9="31.77462"></scales>
<clustering>
<clus scale="   31.775">  1  9  2 -1</clus>
<clus scale="   89.136">  7  8 -1 -1</clus>
<clus scale="   90.051">  5  6 -1 -1</clus>
<clus scale="   96.667">  2  7  1 -1</clus>
<clus scale="   31.775">  1  5  2 -1</clus>
</clustering>
</event>
<event>
 9    1  0.1426358E-005  0.1548453E+03  0.7546771E-02  0.1198790E+00
         21   -1    0    0  501  502  0.00000000000E+00  0.00000000000E+00  0.20919548452E+03  0.20919548452E+03  0.00000000000E+00 0.  1.
          3   -1    0    0  502    0 -0.00000000000E+00 -0.00000000000E+00 -0.23369961608E+03  0.23369961608E+03  0.00000000000E+00 0. -1.
         23    2    1    2    0    0 -0.44942430865E+02  0.10608415412E+03 -0.12715380205E+03  0.19400501972E+03  0.90532803195E+02 0.  0.
         23    2    1    2    0    0 -0.82016355560E+01 -0.10023257377E+03  0.20221305223E+02  0.15064056083E+03  0.11031700554E+03 0.  0.
        -11    1    3    3    0    0  0.62120630240E+01  0.69062904381E+02 -0.24612040943E+02  0.73580072356E+02  0.00000000000E+00 0.  1.
         11    1    3    3    0    0 -0.51154493889E+02  0.37021249739E+02 -0.10254176111E+03  0.12042494737E+03  0.00000000000E+00 0. -1.
        -13    1    4    4    0    0  0.48758691771E+01 -0.23894179839E+02  0.59133427284E+02  0.63964585145E+02  0.00000000000E+00 0.  1.
         13    1    4    4    0    0 -0.13077504733E+02 -0.76338393927E+02 -0.38912122061E+02  0.86675975684E+02  0.00000000000E+00 0. -1.
          3    1    1    2  501    0  0.53144066421E+02 -0.58515803550E+01  0.82428365266E+02  0.98249520044E+02  0.00000000000E+00 0. -1.
<scales pt_clust_5="13000.00000" pt_clust_6="13000.00000" pt_clust_7="13000.00000" pt_clust_8="13000.00000" pt_clust_9="53.46525"></scales>
<clustering>
<clus scale="   53.465">  1  9  2 -1</clus>
<clus scale="   90.533">  5  6 -1 -1</clus>
<clus scale="  110.317">  7  8 -1 -1</clus>
<clus scale="  141.433">  2  5  1 -1</clus>
<clus scale="   53.465">  1  5  2 -1</clus>
</clustering>
</event>
<event>
 9    1  0.1426358E-005  0.9928772E+02  0.7546771E-02  0.1281886E+00
          3   -1    0    0  502    0 -0.00000000000E+00  0.00000000000E+00  0.14512839052E+03  0.14512839052E+03  0.00000000000E+00 0. -1.
         21   -1    0    0  501  502  0.00000000000E+00 -0.00000000000E+00 -0.25501545034E+03  0.25501545034E+03  0.00000000000E+00 0. -1.
         23    2    1    2    0    0 -0.13151526705E+02 -0.34586356623E+02  0.96770043101E+02  0.13747949752E+03  0.90371412941E+02 0.  0.
         23    2    1    2    0    0  0.92982457223E+01  0.77354268373E+02 -0.15204079426E+03  0.19318856899E+03  0.90195786261E+02 0.  0.
        -11    1    3    3    0    0 -0.36937155267E+02  0.92791990084E+01  0.72714500320E+02  0.82084441462E+02  0.00000000000E+00 0. -1.
         11    1    3    3    0    0  0.23785628561E+02 -0.43865555632E+02  0.24055542781E+02  0.55395056056E+02  0.00000000000E+00 0.  1.
        -13    1    4    4    0    0 -0.25688678283E+02 -0.35558225458E+00 -0.10052321328E+02  0.27587747185E+02  0.00000000000E+00 0.  1.
         13    1    4    4    0    0  0.34986924006E+02  0.77709850627E+02 -0.14198847293E+03  0.16560082180E+03  0.00000000000E+00 0. -1.
          3    1    1    2  501    0  0.38532809828E+01 -0.42767911750E+02 -0.54616308666E+02  0.69475774354E+02  0.00000000000E+00 0. -1.
<scales pt_clust_5="13000.00000" pt_clust_6="13000.00000" pt_clust_7="13000.00000" pt_clust_8="13000.00000" pt_clust_9="42.94115"></scales>
<clustering>
<clus scale="   42.941">  2  9  1 -1</clus>
<clus scale="   90.196">  7  8 -1 -1</clus>
<clus scale="   90.371">  5  6 -1 -1</clus>
<clus scale="   99.128">  2  7  1 -1</clus>
<clus scale="   42.941">  2  5  1 -1</clus>
</clustering>
</event>
<event>
 9    1  0.1426358E-005  0.1262775E+03  0.7546771E-02  0.1248270E+00
         21   -1    0    0  501  502  0.00000000000E+00  0.00000000000E+00  0.56885427164E+02  0.56885427164E+02  0.00000000000E+00 0.  1.
          1   -1    0    0  502    0 -0.00000000000E+00 -0.00000000000E+00 -0.54264244504E+03  0.54264244504E+03  0.00000000000E+00 0. -1.
         23    2    1    2    0    0 -0.41872043329E+01 -0.16206092111E+02 -0.40948903327E+03  0.42851775802E+03  0.12516401426E+03 0.  0.
         23    2    1    2    0    0  0.41820452794E+02 -0.11597739446E+02 -0.71859722574E+02  0.12401280348E+03  0.91279230203E+02 0.  0.
        -11    1    3    3    0    0 -0.54724456989E+02 -0.11108369322E+02 -0.32633101020E+03  0.33107414620E+03  0.00000000000E+00 0. -1.
         11    1    3    3    0    0  0.50537252656E+02 -0.50977227894E+01 -0.83158023070E+02  0.97443611820E+02  0.00000000000E+00 0.  1.
        -13    1    4    4    0    0 -0.23759330467E+02 -0.12435336286E+02 -0.46533355367E+02  0.53707509107E+02  0.00000000000E+00 0. -1.
         13    1    4    4    0    0  0.65579783261E+02  0.83759684031E+00 -0.25326367208E+02  0.70305294373E+02  0.00000000000E+00 0.  1.
          1    1    1    2  501    0 -0.37633248461E+02  0.27803831557E+02 -0.44082620251E+01  0.46997310700E+02  0.00000000000E+00 0. -1.
<scales pt_clust_5="13000.00000" pt_clust_6="13000.00000" pt_clust_7="13000.00000" pt_clust_8="13000.00000" pt_clust_9="46.79011"></scales>
<clustering>
<clus scale="   46.790">  1  9  2 -1</clus>
<clus scale="   91.279">  7  8 -1 -1</clus>
<clus scale="   92.800">  1  7  2 -1</clus>
<clus scale="  125.164">  5  6 -1 -1</clus>
<clus scale="   46.790">  1  5  2 -1</clus>
</clustering>
</event>
<event>
 9    1  0.1426358E-005  0.1119004E+03  0.7546771E-02  0.1268276E+00
         21   -1    0    0  501  502  0.00000000000E+00  0.00000000000E+00  0.40579766862E+02  0.40579766862E+02  0.00000000000E+00 0. -1.
          1   -1    0    0  502    0 -0.00000000000E+00 -0.00000000000E+00 -0.54370572092E+03  0.54370572092E+03  0.00000000000E+00 0. -1.
         23    2    1    2    0    0 -0.35166944707E+02  0.32253519589E+02 -0.39654101724E+03  0.40694602854E+03  0.77995437496E+02 0.  0.
         23    2    1    2    0    0  0.33164648018E+02 -0.10432519251E+02 -0.11088795384E+03  0.15500828813E+03  0.10258021128E+03 0.  0.
        -11    1    3    3    0    0 -0.54564828429E+02  0.16532843546E+01 -0.21474876848E+03  0.22157862580E+03  0.00000000000E+00 0.  1.
         11    1    3    3    0    0  0.19397883723E+02  0.30600235234E+02 -0.18179224876E+03  0.18536740274E+03  0.00000000000E+00 0. -1.
        -11    1    4    4    0    0 -0.73571358493E+01  0.41060092266E+02 -0.53991724212E+02  0.68228768919E+02  0.00000000000E+00 0. -1.
         11    1    4    4    0    0  0.40521783867E+02 -0.51492611516E+02 -0.56896229628E+02  0.86779519211E+02  0.00000000000E+00 0.  1.
          1    1    1    2  501    0  0.20022966891E+01 -0.21821000338E+02  0.43030170166E+01  0.22331171112E+02  0.00000000000E+00 0. -1.
<scales pt_clust_5="13000.00000" pt_clust_6="13000.00000" pt_clust_7="13000.00000" pt_clust_8="13000.00000" pt_clust_9="21.91267"></scales>
<clustering>
<clus scale="   21.913">  1  9  2 -1</clus>
<clus scale="   77.995">  5  6 -1 -1</clus>
<clus scale="   89.902">  2  5  1 -1</clus>
<clus scale="  102.580">  7  8 -1 -1</clus>
<clus scale="   21.913">  1  5  2 -1</clus>
</clustering>
</event>
<event>
 9    1  0.1426358E-005  0.9687930E+02  0.7546771E-02  0.1287443E+00
         -3   -1    0    0    0  501 -0.00000000000E+00  0.00000000000E+00  0.22240258382E+03  0.22240258382E+03  0.00000000000E+00 0.  1.
         21   -1    0    0  501  502  0.00000000000E+00 -0.00000000000E+00 -0.23745450201E+03  0.23745450201E+03  0.00000000000E+00 0.  1.
         23    2    1    2    0    0  0.16505915012E+02 -0.25512288887E+02  0.18428285459E+03  0.20856140465E+03  0.92813613751E+02 0.  0.
         23    2    1    2    0    0 -0.21984875280E+02 -0.63404029303E+01 -0.69574398527E+02  0.11757071077E+03  0.91971406705E+02 0.  0.
        -11    1    3    3    0    0 -0.29032950887E+02  0.71620788762E+01  0.11813587486E+03  0.12186177637E+03  0.00000000000E+00 0. -1.
         11    1    3    3    0    0  0.45538865899E+02 -0.32674367763E+02  0.66146979737E+02  0.86699628283E+02  0.00000000000E+00 0.  1.
        -13    1    4    4    0    0 -0.54087042358E+02  0.14674432694E+02 -0.46303490111E+02  0.72696357009E+02  0.00000000000E+00 0. -1.
         13    1    4    4    0    0  0.32102167078E+02 -0.21014835624E+02 -0.23270908415E+02  0.44874353765E+02  0.00000000000E+00 0.  1.
         -3    1    1    2    0  502  0.54789602687E+01  0.31852691817E+02 -0.12976037426E+03  0.13372497041E+03  0.00000000000E+00 0.  1.
<scales pt_clust_5="13000.00000" pt_clust_6="13000.00000" pt_clust_7="13000.00000" pt_clust_8="13000.00000" pt_clust_9="32.32047"></scales>
<clustering>
<clus scale="   32.320">  2  9  1 -1</clus>
<clus scale="   91.971">  7  8 -1 -1</clus>
<clus scale="   92.814">  5  6 -1 -1</clus>
<clus scale="   96.073">  2  7  1 -1</clus>
<clus scale="   32.320">  2  5  1 -1</clus>
</clustering>
</event>
<event>
 9    1  0.1426358E-005  0.9869766E+02  0.7546771E-02  0.1284202E+00
          3   -1    0    0  502    0 -0.00000000000E+00  0.00000000000E+00  0.25142152424E+03  0.25142152424E+03  0.00000000000E+00 0. -1.
         21   -1    0    0  501  502  0.00000000000E+00 -0.00000000000E+00 -0.85756078508E+02  0.85756078508E+02  0.00000000000E+00 0.  1.
         23    2    1    2    0    0 -0.20165090495E+02  0.37885079446E+02  0.19539894165E+03  0.21861378479E+03  0.88143805126E+02 0.  0.
         23    2    1    2    0    0  0.14630854406E+02 -0.17505907727E+02 -0.20474883326E+02  0.95506057526E+02  0.90452570284E+02 0.  0.
        -11    1    3    3    0    0  0.20475311419E+02 -0.86351112721E+01  0.12349910607E+02  0.25422899449E+02  0.00000000000E+00 0.  1.
         11    1    3    3    0    0 -0.40640401914E+02  0.46520190718E+02  0.18304903105E+03  0.19319088534E+03  0.00000000000E+00 0. -1.
        -13    1    4    4    0    0  0.39634994317E+02  0.13622639056E+02  0.12486343210E+02  0.43731199802E+02  0.00000000000E+00 0. -1.
         13    1    4    4    0    0 -0.25004139912E+02 -0.31128546783E+02 -0.32961226536E+02  0.51774857723E+02  0.00000000000E+00 0.  1.
          3    1    1    2  501    0  0.55342360889E+01 -0.20379171719E+02 -0.92586125940E+01  0.23057760434E+02  0.00000000000E+00 0. -1.
<scales pt_clust_5="13000.00000" pt_clust_6="13000.00000" pt_clust_7="13000.00000" pt_clust_8="13000.00000" pt_clust_9="21.11725"></scales>
<clustering>
<clus scale="   21.117">  2  9  1 -1</clus>
<clus scale="   88.144">  5  6 -1 -1</clus>
<clus scale="   90.453">  7  8 -1 -1</clus>
<clus scale="   96.586">  1  5  2 -1</clus>
<clus scale="   21.117">  2  5  1 -1</clus>
</clustering>
</event>
<event>
 9    1  0.1426358E-005  0.9706175E+02  0.7546771E-02  0.1286748E+00
          1   -1    0    0  502    0 -0.00000000000E+00  0.00000000000E+00  0.10696144045E+03  0.10696144045E+03  0.00000000000E+00 0. -1.
         21   -1    0    0  501  502  0.00000000000E+00 -0.00000000000E+00 -0.20298376449E+03  0.20298376449E+03  0.00000000000E+00 0. -1.
         23    2    1    2    0    0 -0.21660339760E+02 -0.10045681995E+02  0.14199242323E+02  0.95328710316E+02  0.91191328988E+02 0.  0.
         23    2    1    2    0    0  0.44683665650E+02  0.84899415796E+01  0.36667123497E+00  0.10164635629E+03  0.90901805342E+02 0.  0.
        -11    1    4    4    0    0  0.34888635812E+02  0.45291768898E+02  0.17637490145E+02  0.59830111962E+02  0.00000000000E+00 0. -1.
         11    1    4    4    0    0  0.97950298379E+01 -0.36801827319E+02 -0.17270818910E+02  0.41816244324E+02  0.00000000000E+00 0.  1.
        -13    1    3    3    0    0  0.29505198759E+02 -0.27242592983E+02  0.35995850124E+01  0.40319630932E+02  0.00000000000E+00 0. -1.
         13    1    3    3    0    0 -0.51165538519E+02  0.17196910988E+02  0.10599657311E+02  0.55009079384E+02  0.00000000000E+00 0.  1.
          1    1    1    2  501    0 -0.23023325890E+02  0.15557404154E+01 -0.11058823760E+03  0.11297013835E+03  0.00000000000E+00 0. -1.
<scales pt_clust_5="13000.00000" pt_clust_6="13000.00000" pt_clust_7="13000.00000" pt_clust_8="13000.00000" pt_clust_9="23.07583"></scales>
<clustering>
<clus scale="   23.076">  2  9  1 -1</clus>
<clus scale="   90.902">  5  6 -1 -1</clus>
<clus scale="   91.191">  7  8 -1 -1</clus>
<clus scale="   96.790">  2  5  1 -1</clus>
<clus scale="   23.076">  2  5  1 -1</clus>
</clustering>
</event>
<event>
 9    1  0.1426358E-005  0.1010182E+03  0.7546771E-02  0.1279600E+00
         21   -1    0    0  501  502  0.00000000000E+00  0.00000000000E+00  0.27915048886E+02  0.27915048886E+02  0.00000000000E+00 0.  1.
          2   -1    0    0  502    0 -0.00000000000E+00 -0.00000000000E+00 -0.44440981368E+03  0.44440981368E+03  0.00000000000E+00 0. -1.
         23    2    1    2    0    0  0.32011671779E+02  0.19727374385E+02 -0.18560275735E+03  0.20867187357E+03  0.87645027541E+02 0.  0.
         23    2    1    2    0    0 -0.51694612786E+02 -0.12746777018E+02 -0.20491343244E+03  0.23032082337E+03  0.90682708206E+02 0.  0.
        -13    1    4    4    0    0 -0.38377714383E+02  0.35003450660E+02 -0.13472510361E+03  0.14439163432E+03  0.00000000000E+00 0. -1.
         13    1    4    4    0    0 -0.13316898403E+02 -0.47750227679E+02 -0.70188328837E+02  0.85929189053E+02  0.00000000000E+00 0.  1.
        -13    1    3    3    0    0 -0.22815936104E+02 -0.17438570525E+02 -0.47498124488E+02  0.55504436869E+02  0.00000000000E+00 0. -1.
         13    1    3    3    0    0  0.54827607884E+02  0.37165944910E+02 -0.13810463286E+03  0.15316743670E+03  0.00000000000E+00 0.  1.
          2    1    1    2  501    0  0.19682941007E+02 -0.69805973670E+01 -0.25978575005E+02  0.33332165629E+02  0.00000000000E+00 0. -1.
<scales pt_clust_5="13000.00000" pt_clust_6="13000.00000" pt_clust_7="13000.00000" pt_clust_8="13000.00000" pt_clust_9="20.88413"></scales>
<clustering>
<clus scale="   20.884">  1  9  2 -1</clus>
<clus scale="   87.645">  7  8 -1 -1</clus>
<clus scale="   90.683">  5  6 -1 -1</clus>
<clus scale="   98.300">  2  7  1 -1</clus>
<clus scale="   20.884">  1  5  2 -1</clus>
</clustering>
</event>
<event>
 9    1  0.1426358E-005  0.1094228E+03  0.7546771E-02  0.1262736E+00
         21   -1    0    0  501  502  0.00000000000E+00  0.00000000000E+00  0.39670796972E+03  0.39670796972E+03  0.00000000000E+00 0.  1.
          3   -1    0    0  502    0 -0.00000000000E+00 -0.00000000000E+00 -0.57052622349E+02  0.57052622349E+02  0.00000000000E+00 0. -1.
         23    2    1    2    0    0  0.66115592553E+02  0.83811927017E+01  0.47654064211E+02  0.12048093934E+03  0.88335898352E+02 0.  0.
         23    2    1    2    0    0 -0.39808472620E+02  0.34933059191E+01  0.28728890555E+03  0.30403457144E+03  0.91132802565E+02 0.  0.
        -11    1    4    4    0    0  0.21046464388E+02  0.25237808089E+02  0.12764029913E+03  0.13180268049E+03  0.00000000000E+00 0. -1.
         11    1    4    4    0    0 -0.60854937008E+02 -0.21744502170E+02  0.15964860641E+03  0.17223189096E+03  0.00000000000E+00 0.  1.
        -11    1    3    3    0    0  0.44726502420E+02 -0.79575240718E+01  0.71373913169E+02  0.84605068933E+02  0.00000000000E+00 0.  1.
         11    1    3    3    0    0  0.21389090133E+02  0.16338716774E+02 -0.23719848958E+02  0.35875870403E+02  0.00000000000E+00 0. -1.
          3    1    1    2  501    0 -0.26307119933E+02 -0.11874498621E+02  0.47123776079E+01  0.29245081285E+02  0.00000000000E+00 0. -1.
<scales pt_clust_5="13000.00000" pt_clust_6="13000.00000" pt_clust_7="13000.00000" pt_clust_8="13000.00000" pt_clust_9="28.86294"></scales>
<clustering>
<clus scale="   28.863">  1  9  2 -1</clus>
<clus scale="   88.336">  7  8 -1 -1</clus>
<clus scale="   91.133">  5  6 -1 -1</clus>
<clus scale="  107.105">  2  7  1 -1</clus>
<clus scale="   28.863">  1  5  2 -1</clus>
</clustering>
</event>
<event>
 9    1  0.1426358E-005  0.1182814E+03  0.7546771E-02  0.1249440E+00
          1   -1    0    0  502    0 -0.00000000000E+00  0.00000000000E+00  0.26240145509E+03  0.26240145509E+03  0.00000000000E+00 0. -1.
         21   -1    0    0  501  502  0.00000000000E+00 -0.00000000000E+00 -0.65852663710E+02  0.65852663710E+02  0.00000000000E+00 0.  1.
         23    2    1    2    0    0  0.50333914539E+02 -0.47002975979E+01  0.10971598567E+03  0.15764295821E+03  0.10128232329E+03 0.  0.
         23    2    1    2    0    0 -0.73882786211E+02  0.18692621686E+02  0.73316572724E+02  0.14006573468E+03  0.91842310458E+02 0.  0.
        -13    1    4    4    0    0 -0.50204187500E+02  0.48585095511E+02  0.16747338070E+02  0.71843199266E+02  0.00000000000E+00 0.  1.
         13    1    4    4    0    0 -0.23678598711E+02 -0.29892473825E+02  0.56569234655E+02  0.68222535410E+02  0.00000000000E+00 0. -1.
        -13    1    3    3    0    0  0.23994246090E+02 -0.44723663715E+02  0.94681145359E+02  0.10742648290E+03  0.00000000000E+00 0. -1.
         13    1    3    3    0    0  0.26339668449E+02  0.40023366117E+02  0.15034840307E+02  0.50216475309E+02  0.00000000000E+00 0.  1.
          1    1    1    2  501    0  0.23548871672E+02 -0.13992324088E+02  0.13516232993E+02  0.30545425921E+02  0.00000000000E+00 0. -1.
<scales pt_clust_5="13000.00000" pt_clust_6="13000.00000" pt_clust_7="13000.00000" pt_clust_8="13000.00000" pt_clust_9="27.39223"></scales>
<clustering>
<clus scale="   27.392">  2  9  1 -1</clus>
<clus scale="   91.842">  5  6 -1 -1</clus>
<clus scale="  101.282">  7  8 -1 -1</clus>
<clus scale="  110.306">  2  5  1 -1</clus>
<clus scale="   27.392">  2  5  1 -1</clus>
</clustering>
</event>
<event>
 9    1  0.1426358E-005  0.1232803E+03  0.7546771E-02  0.1238830E+00
          2   -1    0    0  502    0 -0.00000000000E+00  0.00000000000E+00  0.38117328368E+02  0.38117328368E+02  0.00000000000E+00 0. -1.
         21   -1    0    0  501  502  0.00000000000E+00 -0.00000000000E+00 -0.58936063895E+03  0.58936063895E+03  0.00000000000E+00 0. -1.
         23    2    1    2    0    0  0.39726768526E+02 -0.66506484005E+02 -0.12566162537E+03  0.17318038035E+03  0.90549828795E+02 0.  0.
         23    2    1    2    0    0 -0.28102700735E+02  0.82972763112E+02 -0.40730159944E+03  0.42708694869E+03  0.93991635963E+02 0.  0.
        -11    1    4    4    0    0 -0.40584481735E+02 -0.26559422879E+01 -0.10358466757E+03  0.11128314132E+03  0.00000000000E+00 0.  1.
         11    1    4    4    0    0  0.12481780999E+02  0.85628705400E+02 -0.30371693187E+03  0.31580380737E+03  0.00000000000E+00 0. -1.
        -13    1    3    3    0    0  0.61799728046E+02 -0.15852254317E+02 -0.63601601811E+02  0.90086980782E+02  0.00000000000E+00 0. -1.
         13    1    3    3    0    0 -0.22072959520E+02 -0.50654229688E+02 -0.62060023562E+02  0.83093399568E+02  0.00000000000E+00 0.  1.
          2    1    1    2  501    0 -0.11624067791E+02 -0.16466279107E+02 -0.18280085774E+02  0.27210638279E+02  0.00000000000E+00 0. -1.
<scales pt_clust_5="13000.00000" pt_clust_6="13000.00000" pt_clust_7="13000.00000" pt_clust_8="13000.00000" pt_clust_9="20.15584"></scales>
<clustering>
<clus scale="   20.156">  2  9  1 -1</clus>
<clus scale="   90.550">  7  8 -1 -1</clus>
<clus scale="   93.992">  5  6 -1 -1</clus>
<clus scale="  120.677">  1  7  2 -1</clus>
<clus scale="   20.156">  2  5  1 -1</clus>
</clustering>
</event>
<event>
 9    1  0.1426358E-005  0.2464007E+03  0.7546771E-02  0.1115667E+00
          1   -1    0    0  502    0 -0.00000000000E+00  0.00000000000E+00  0.22668423803E+04  0.22668423803E+04  0.00000000000E+00 0. -1.
         21   -1    0    0  501  502  0.00000000000E+00 -0.00000000000E+00 -0.40776514384E+02  0.40776514384E+02  0.00000000000E+00 0. -1.
         23    2    1    2    0    0  0.22352221184E+03 -0.13215439486E+03  0.14788344591E+04  0.15042277404E+04  0.91229241803E+02 0.  0.
         23    2    1    2    0    0 -0.16814482005E+03  0.86427535378E+02  0.64725029660E+03  0.68029028661E+03  0.90108424877E+02 0.  0.
        -11    1    3    3    0    0  0.53834944378E+02 -0.78974071662E+02  0.43743319023E+03  0.44775316989E+03  0.00000000000E+00 0.  1.
         11    1    3    3    0    0  0.16968726747E+03 -0.53180323202E+02  0.10414012688E+04  0.10564745706E+04  0.00000000000E+00 0. -1.
        -13    1    4    4    0    0 -0.23163066534E+02  0.46447420448E+02  0.98923883874E+02  0.11171313852E+03  0.00000000000E+00 0.  1.
         13    1    4    4    0    0 -0.14498175352E+03  0.39980114930E+02  0.54832641272E+03  0.56857714809E+03  0.00000000000E+00 0. -1.
          1    1    1    2  501    0 -0.55377391791E+02  0.45726859486E+02  0.99981110245E+02  0.12310086761E+03  0.00000000000E+00 0. -1.
<scales pt_clust_5="13000.00000" pt_clust_6="13000.00000" pt_clust_7="13000.00000" pt_clust_8="13000.00000" pt_clust_9="71.81644"></scales>
<clustering>
<clus scale="   71.816">  2  9  1 -1</clus>
<clus scale="   90.108">  7  8 -1 -1</clus>
<clus scale="   91.229">  5  6 -1 -1</clus>
<clus scale="  245.988">  2  7  1 -1</clus>
<clus scale="   71.816">  2  5  1 -1</clus>
</clustering>
</event>
<event>
 9    1  0.1426358E-005  0.1732751E+03  0.7546771E-02  0.1175511E+00
         21   -1    0    0  501  502  0.00000000000E+00  0.00000000000E+00  0.42802564029E+03  0.42802564029E+03  0.00000000000E+00 0.  1.
          2   -1    0    0  502    0 -0.00000000000E+00 -0.00000000000E+00 -0.14374649810E+03  0.14374649810E+03  0.00000000000E+00 0. -1.
         23    2    1    2    0    0 -0.11050962739E+03  0.21014551080E+02  0.10183225412E+03  0.17681721445E+03  0.90777366373E+02 0.  0.
         23    2    1    2    0    0  0.19284860607E+03  0.60650428020E+02  0.16246134572E+03  0.27727613178E+03  0.98078056256E+02 0.  0.
        -11    1    3    3    0    0 -0.35853375231E+02 -0.34178639668E+02  0.50457146775E+02  0.70707620421E+02  0.00000000000E+00 0. -1.
         11    1    3    3    0    0 -0.74656252156E+02  0.55193190748E+02  0.51375107346E+02  0.10610959403E+03  0.00000000000E+00 0.  1.
        -13    1    4    4    0    0  0.66269940170E+02  0.18884585643E+02  0.11821594054E+03  0.13683326037E+03  0.00000000000E+00 0.  1.
         13    1    4    4    0    0  0.12657866590E+03  0.41765842377E+02  0.44245405180E+02  0.14044287141E+03  0.00000000000E+00 0. -1.
          2    1    1    2  501    0 -0.82338978681E+02 -0.81664979100E+02  0.19985542347E+02  0.11767879216E+03  0.00000000000E+00 0. -1.
<scales pt_clust_5="13000.00000" pt_clust_6="13000.00000" pt_clust_7="13000.00000" pt_clust_8="13000.00000" pt_clust_9="115.96935"></scales>
<clustering>
<clus scale="   90.777">  5  6 -1 -1</clus>
<clus scale="   98.078">  7  8 -1 -1</clus>
<clus scale="  115.969">  1  9  2 -1</clus>
<clus scale="  169.250">  2  5  1 -1</clus>
<clus scale="  115.969">  1  5  2 -1</clus>
</clustering>
</event>
<event>
 9    1  0.1426358E-005  0.8514420E+02  0.7546771E-02  0.1319030E+00
         -2   -1    0    0    0  501 -0.00000000000E+00  0.00000000000E+00  0.99683371235E+02  0.99683371235E+02  0.00000000000E+00 0.  1.
         21   -1    0    0  501  502  0.00000000000E+00 -0.00000000000E+00 -0.18985334638E+03  0.18985334638E+03  0.00000000000E+00 0.  1.
         23    2    1    2    0    0  0.49471405445E+01  0.29511247585E+01  0.49247747790E+02  0.93302919693E+02  0.79037401425E+02 0.  0.
         23    2    1    2    0    0  0.34798902775E+02 -0.20403158824E+02 -0.86109066857E+02  0.12748691242E+03  0.84916953079E+02 0.  0.
        -13    1    3    3    0    0  0.70148077411E+01  0.40045149784E+02  0.34538549041E+02  0.53345411412E+02  0.00000000000E+00 0.  1.
         13    1    3    3    0    0 -0.20676671965E+01 -0.37094025025E+02  0.14709198749E+02  0.39957508281E+02  0.00000000000E+00 0. -1.
        -13    1    4    4    0    0  0.56454353415E+02 -0.26111214441E+02 -0.84648715629E+02  0.10504425066E+03  0.00000000000E+00 0.  1.
         13    1    4    4    0    0 -0.21655450640E+02  0.57080556166E+01 -0.14603512279E+01  0.22442661764E+02  0.00000000000E+00 0. -1.
         -2    1    1    2    0  502 -0.39746043320E+02  0.17452034066E+02 -0.53308656075E+02  0.68746885494E+02  0.00000000000E+00 0.  1.
<scales pt_clust_5="13000.00000" pt_clust_6="13000.00000" pt_clust_7="13000.00000" pt_clust_8="13000.00000" pt_clust_9="43.40877"></scales>
<clustering>
<clus scale="   43.409">  2  9  1 -1</clus>
<clus scale="   79.037">  5  6 -1 -1</clus>
<clus scale="   79.281">  1  5  2 -1</clus>
<clus scale="   84.917">  7  8 -1 -1</clus>
<clus scale="   43.409">  2  5  1 -1</clus>
</clustering>
</event>
<event>
 9    1  0.1426358E-005  0.1104822E+03  0.7546771E-02  0.1259689E+00
          4   -1    0    0  502    0 -0.00000000000E+00  0.00000000000E+00  0.16477223264E+03  0.16477223264E+03  0.00000000000E+00 0. -1.
         21   -1    0    0  501  502  0.00000000000E+00 -0.00000000000E+00 -0.18827393219E+03  0.18827393219E+03  0.00000000000E+00 0.  1.
         23    2    1    2    0    0  0.66273198829E+01  0.61034422224E+02  0.10476735957E+03  0.15216268656E+03  0.91696027640E+02 0.  0.
         23    2    1    2    0    0 -0.30809736736E+02 -0.59271207463E+02 -0.13438021818E+03  0.17587858922E+03  0.91721966806E+02 0.  0.
        -13    1    4    4    0    0  0.27177550001E+02 -0.70711187285E+01 -0.11552822402E+02  0.30365896160E+02  0.00000000000E+00 0. -1.
         13    1    4    4    0    0 -0.57987286737E+02 -0.52200088735E+02 -0.12282739578E+03  0.14551269306E+03  0.00000000000E+00 0.  1.
        -13    1    3    3    0    0  0.27299020132E+02  0.74061141475E+02  0.99779073642E+02  0.12722481171E+03  0.00000000000E+00 0. -1.
         13    1    3    3    0    0 -0.20671700250E+02 -0.13026719251E+02  0.49882859234E+01  0.24937874851E+02  0.00000000000E+00 0.  1.
          4    1    1    2  501    0  0.24182416854E+02 -0.17632147604E+01  0.61111590741E+01  0.25004889050E+02  0.00000000000E+00 0. -1.
<scales pt_clust_5="13000.00000" pt_clust_6="13000.00000" pt_clust_7="13000.00000" pt_clust_8="13000.00000" pt_clust_9="24.24662"></scales>
<clustering>
<clus scale="   24.247">  2  9  1 -1</clus>
<clus scale="   91.696">  7  8 -1 -1</clus>
<clus scale="   91.722">  5  6 -1 -1</clus>
<clus scale="  110.461">  1  7  2 -1</clus>
<clus scale="   24.247">  2  5  1 -1</clus>
</clustering>
</event>
<event>
 9    1  0.1426358E-005  0.1195595E+03  0.7546771E-02  0.1244378E+00
         21   -1    0    0  501  502  0.00000000000E+00  0.00000000000E+00  0.39669584447E+03  0.39669584447E+03  0.00000000000E+00 0. -1.
         -4   -1    0    0    0  501 -0.00000000000E+00 -0.00000000000E+00 -0.10067965158E+03  0.10067965158E+03  0.00000000000E+00 0.  1.
         23    2    1    2    0    0 -0.95523866034E+01 -0.53840044655E+02  0.77646797786E+01  0.10768515558E+03  0.92443517798E+02 0.  0.
         23    2    1    2    0    0  0.17273012050E+02  0.13813361994E+03  0.13289200224E+03  0.21276777970E+03  0.90722598712E+02 0.  0.
        -11    1    4    4    0    0 -0.21579764949E+01  0.38048915676E+02 -0.79172035649E+01  0.38923758285E+02  0.00000000000E+00 0.  1.
         11    1    4    4    0    0  0.19430988545E+02  0.10008470426E+03  0.14080920580E+03  0.17384402141E+03  0.00000000000E+00 0. -1.
        -13    1    3    3    0    0  0.30872415349E+02 -0.56872548835E+02 -0.57172878660E+01  0.64963683862E+02  0.00000000000E+00 0.  1.
         13    1    3    3    0    0 -0.40424801953E+02  0.30325041797E+01  0.13481967645E+02  0.42721471722E+02  0.00000000000E+00 0. -1.
         -4    1    1    2    0  502 -0.77206254465E+01 -0.84293575280E+02  0.15535951087E+03  0.17692256077E+03  0.00000000000E+00 0.  1.
<scales pt_clust_5="13000.00000" pt_clust_6="13000.00000" pt_clust_7="13000.00000" pt_clust_8="13000.00000" pt_clust_9="84.64641"></scales>
<clustering>
<clus scale="   84.646">  1  9  2 -1</clus>
<clus scale="   90.723">  5  6 -1 -1</clus>
<clus scale="   92.444">  7  8 -1 -1</clus>
<clus scale="  118.234">  1  5  2 -1</clus>
<clus scale="   84.646">  1  5  2 -1</clus>
</clustering>
</event>
<event>
 9    1  0.1426358E-005  0.1013753E+03  0.7546771E-02  0.1278141E+00
          1   -1    0    0  502    0 -0.00000000000E+00  0.00000000000E+00  0.73646989345E+02  0.73646989345E+02  0.00000000000E+00 0. -1.
         21   -1    0    0  501  502  0.00000000000E+00 -0.00000000000E+00 -0.40523643014E+03  0.40523643014E+03  0.00000000000E+00 0. -1.
         23    2    1    2    0    0 -0.48089258678E+02 -0.11654102299E+02  0.18700051403E+02  0.10308177057E+03  0.88474655127E+02 0.  0.
         23    2    1    2    0    0  0.22671611089E+02  0.33527550401E+02 -0.21754368253E+03  0.23888578232E+03  0.90017023962E+02 0.  0.
        -11    1    4    4    0    0 -0.10731132106E+02  0.54202445755E+02 -0.15948815843E+03  0.16878843266E+03  0.00000000000E+00 0.  1.
         11    1    4    4    0    0  0.33402743196E+02 -0.20674895353E+02 -0.58055524100E+02  0.70097349660E+02  0.00000000000E+00 0. -1.
        -13    1    3    3    0    0  0.13831161523E+02  0.25238498980E+02  0.69079867297E+00  0.28788193112E+02  0.00000000000E+00 0.  1.
         13    1    3    3    0    0 -0.61920420201E+02 -0.36892601279E+02  0.18009252730E+02  0.74293577454E+02  0.00000000000E+00 0. -1.
          1    1    1    2  501    0  0.25417647589E+02 -0.21873448103E+02 -0.13274580967E+03  0.13691586660E+03  0.00000000000E+00 0. -1.
<scales pt_clust_5="13000.00000" pt_clust_6="13000.00000" pt_clust_7="13000.00000" pt_clust_8="13000.00000" pt_clust_9="33.53363"></scales>
<clustering>
<clus scale="   33.534">  2  9  1 -1</clus>
<clus scale="   88.475">  7  8 -1 -1</clus>
<clus scale="   90.017">  5  6 -1 -1</clus>
<clus scale="  100.008">  1  7  2 -1</clus>
<clus scale="   33.534">  2  5  1 -1</clus>
</clustering>
</event>
<event>
 9    1  0.1426358E-005  0.1001765E+03  0.7546771E-02  0.1280272E+00
         21   -1    0    0  501  502  0.00000000000E+00  0.00000000000E+00  0.14763558582E+03  0.14763558582E+03  0.00000000000E+00 0.  1.
          1   -1    0    0  502    0 -0.00000000000E+00 -0.00000000000E+00 -0.11395653194E+03  0.11395653194E+03  0.00000000000E+00 0. -1.
         23    2    1    2    0    0  0.47400262507E+02 -0.26284033488E+02 -0.42289408246E+02  0.11313226604E+03  0.89849208491E+02 0.  0.
         23    2    1    2    0    0 -0.12837281156E+02  0.19081911076E+02  0.58667157484E+02  0.10914312004E+03  0.89114926740E+02 0.  0.
        -13    1    4    4    0    0  0.20981958518E+01 -0.33888453905E+02  0.92840382875E+01  0.35199759954E+02  0.00000000000E+00 0.  1.
         13    1    4    4    0    0 -0.14935477008E+02  0.52970364982E+02  0.49383119197E+02  0.73943360090E+02  0.00000000000E+00 0. -1.
        -13    1    3    3    0    0  0.63942314016E+02 -0.81060230195E+01 -0.55652896744E+02  0.85156162706E+02  0.00000000000E+00 0. -1.
         13    1    3    3    0    0 -0.16542051509E+02 -0.18178010468E+02  0.13363488497E+02  0.27976103330E+02  0.00000000000E+00 0.  1.
          1    1    1    2  501    0 -0.34562981351E+02  0.72021224115E+01  0.17301304646E+02  0.39316731674E+02  0.00000000000E+00 0. -1.
<scales pt_clust_5="13000.00000" pt_clust_6="13000.00000" pt_clust_7="13000.00000" pt_clust_8="13000.00000" pt_clust_9="35.30539"></scales>
<clustering>
<clus scale="   35.305">  1  9  2 -1</clus>
<clus scale="   89.115">  5  6 -1 -1</clus>
<clus scale="   89.849">  7  8 -1 -1</clus>
<clus scale="   99.518">  1  5  2 -1</clus>
<clus scale="   35.305">  1  5  2 -1</clus>
</clustering>
</event>
<event>
 9    1  0.1426358E-005  0.9600804E+02  0.7546771E-02  0.1290802E+00
         21   -1    0    0  501  502  0.00000000000E+00  0.00000000000E+00  0.79971950929E+02  0.79971950929E+02  0.00000000000E+00 0. -1.
          1   -1    0    0  502    0 -0.00000000000E+00 -0.00000000000E+00 -0.23088571399E+03  0.23088571399E+03  0.00000000000E+00 0. -1.
         23    2    1    2    0    0 -0.14088550261E+02  0.42674643228E+02 -0.14634978744E+03  0.17557381043E+03  0.85955163907E+02 0.  0.
         23    2    1    2    0    0  0.17276776045E+02 -0.33716423252E-01 -0.11715133240E+02  0.91930048688E+02  0.89528774020E+02 0.  0.
        -11    1    4    4    0    0 -0.22051879017E+02 -0.18693004615E+02  0.22442727463E+02  0.36597674867E+02  0.00000000000E+00 0.  1.
         11    1    4    4    0    0  0.39328655062E+02  0.18659288192E+02 -0.34157860703E+02  0.55332373820E+02  0.00000000000E+00 0. -1.
        -13    1    3    3    0    0 -0.27441309647E+02 -0.57060232658E+01 -0.91529183030E+01  0.29484912924E+02  0.00000000000E+00 0.  1.
         13    1    3    3    0    0  0.13352759386E+02  0.48380666493E+02 -0.13719686914E+03  0.14608889751E+03  0.00000000000E+00 0. -1.
          1    1    1    2  501    0 -0.31882257841E+01 -0.42640926804E+02  0.71511576167E+01  0.43353805804E+02  0.00000000000E+00 0. -1.
<scales pt_clust_5="13000.00000" pt_clust_6="13000.00000" pt_clust_7="13000.00000" pt_clust_8="13000.00000" pt_clust_9="42.75995"></scales>
<clustering>
<clus scale="   42.760">  1  9  2 -1</clus>
<clus scale="   85.955">  7  8 -1 -1</clus>
<clus scale="   89.529">  5  6 -1 -1</clus>
<clus scale="   92.685">  2  7  1 -1</clus>
<clus scale="   42.760">  1  5  2 -1</clus>
</clustering>
</event>
<event>
 9    1  0.1426358E-005  0.9651559E+02  0.7546771E-02  0.1288503E+00
         21   -1    0    0  501  502  0.00000000000E+00  0.00000000000E+00  0.24377548369E+03  0.24377548369E+03  0.00000000000E+00 0. -1.
          2   -1    0    0  502    0 -0.00000000000E+00 -0.00000000000E+00 -0.92456446169E+02  0.92456446169E+02  0.00000000000E+00 0. -1.
         23    2    1    2    0    0 -0.22031491720E+02 -0.13416721075E+02  0.26188732943E+02  0.97874487091E+02  0.90709263355E+02 0.  0.
         23    2    1    2    0    0 -0.45856625223E+02  0.43057487579E+02  0.25767456642E+02  0.11442057573E+03  0.92039822989E+02 0.  0.
        -11    1    3    3    0    0 -0.31711869230E+02  0.32774938838E+02  0.41695152926E+01  0.45795459640E+02  0.00000000000E+00 0. -1.
         11    1    3    3    0    0  0.96803775104E+01 -0.46191659913E+02  0.22019217650E+02  0.52079027451E+02  0.00000000000E+00 0.  1.
        -13    1    4    4    0    0 -0.69882562335E+02  0.11212339759E+02  0.97992381978E+01  0.71451481095E+02  0.00000000000E+00 0. -1.
         13    1    4    4    0    0  0.24025937112E+02  0.31845147820E+02  0.15968218445E+02  0.42969094639E+02  0.00000000000E+00 0.  1.
          2    1    1    2  501    0  0.67888116942E+02 -0.29640766504E+02  0.99362847939E+02  0.12393686704E+03  0.00000000000E+00 0. -1.
<scales pt_clust_5="13000.00000" pt_clust_6="13000.00000" pt_clust_7="13000.00000" pt_clust_8="13000.00000" pt_clust_9="74.07679"></scales>
<clustering>
<clus scale="   74.077">  1  9  2 -1</clus>
<clus scale="   90.709">  5  6 -1 -1</clus>
<clus scale="   92.040">  7  8 -1 -1</clus>
<clus scale="   95.248">  2  5  1 -1</clus>
<clus scale="   74.077">  1  5  2 -1</clus>
</clustering>
</event>
<event>
 9    1  0.1426358E-005  0.9485085E+02  0.7546771E-02  0.1292703E+00
         -1   -1    0    0    0  501 -0.00000000000E+00  0.00000000000E+00  0.94705860261E+02  0.94705860261E+02  0.00000000000E+00 0.  1.
         21   -1    0    0  501  502  0.00000000000E+00 -0.00000000000E+00 -0.15238272974E+03  0.15238272974E+03  0.00000000000E+00 0.  1.
         23    2    1    2    0    0 -0.26541738882E+01 -0.26814316479E+02  0.64942000992E+01  0.96151308115E+02  0.92069795319E+02 0.  0.
         23    2    1    2    0    0 -0.21657564638E+02  0.14423357457E+02 -0.15141071912E+02  0.94825454552E+02  0.89919583106E+02 0.  0.
        -11    1    3    3    0    0  0.22724086085E+02 -0.29875778441E+02 -0.32415878318E+02  0.49595719502E+02  0.00000000000E+00 0. -1.
         11    1    3    3    0    0 -0.25378259973E+02  0.30614619616E+01  0.38910078417E+02  0.46555588612E+02  0.00000000000E+00 0.  1.
        -11    1    4    4    0    0 -0.48385295187E+02  0.12917061374E+02  0.17100460378E+02  0.52918928656E+02  0.00000000000E+00 0.  1.
         11    1    4    4    0    0  0.26727730550E+02  0.15062960826E+01 -0.32241532290E+02  0.41906525896E+02  0.00000000000E+00 0. -1.
         -1    1    1    2    0  502  0.24311738526E+02  0.12390959022E+02 -0.49029997663E+02  0.56111827332E+02  0.00000000000E+00 0.  1.
<scales pt_clust_5="13000.00000" pt_clust_6="13000.00000" pt_clust_7="13000.00000" pt_clust_8="13000.00000" pt_clust_9="27.28730"></scales>
<clustering>
<clus scale="   27.287">  2  9  1 -1</clus>
<clus scale="   89.920">  7  8 -1 -1</clus>
<clus scale="   92.070">  5  6 -1 -1</clus>
<clus scale="   92.765">  2  7  1 -1</clus>
<clus scale="   27.287">  2  5  1 -1</clus>
</clustering>
</event>
<event>
 9    1  0.1426358E-005  0.9588469E+02  0.7546771E-02  0.1289502E+00
          2   -1    0    0  502    0 -0.00000000000E+00  0.00000000000E+00  0.23039123948E+03  0.23039123948E+03  0.00000000000E+00 0. -1.
         21   -1    0    0  501  502  0.00000000000E+00 -0.00000000000E+00 -0.12209102171E+03  0.12209102171E+03  0.00000000000E+00 0.  1.
         23    2    1    2    0    0 -0.20579672034E+02 -0.83336836229E+01  0.17441861694E+03  0.19857729478E+03  0.92293634019E+02 0.  0.
         23    2    1    2    0    0  0.41138844953E+02  0.22314166118E+02 -0.25178799428E+02  0.10600732234E+03  0.91723791213E+02 0.  0.
        -11    1    4    4    0    0  0.63507994717E+02 -0.88432471495E+01 -0.10687272508E+02  0.65005278300E+02  0.00000000000E+00 0.  1.
         11    1    4    4    0    0 -0.22369149764E+02  0.31157413268E+02 -0.14491526920E+02  0.41002044036E+02  0.00000000000E+00 0. -1.
        -13    1    3    3    0    0 -0.55013350814E+02 -0.16694673852E+02  0.87317458618E+02  0.10454434218E+03  0.00000000000E+00 0. -1.
         13    1    3    3    0    0  0.34433678780E+02  0.83609902293E+01  0.87101158325E+02  0.94032952593E+02  0.00000000000E+00 0.  1.
          2    1    1    2  501    0 -0.20559172919E+02 -0.13980482495E+02 -0.40939599740E+02  0.47897644084E+02  0.00000000000E+00 0. -1.
<scales pt_clust_5="13000.00000" pt_clust_6="13000.00000" pt_clust_7="13000.00000" pt_clust_8="13000.00000" pt_clust_9="24.86229"></scales>
<clustering>
<clus scale="   24.862">  2  9  1 -1</clus>
<clus scale="   91.724">  5  6 -1 -1</clus>
<clus scale="   92.294">  7  8 -1 -1</clus>
<clus scale="   95.336">  2  5  1 -1</clus>
<clus scale="   24.862">  2  5  1 -1</clus>
</clustering>
</event>
<event>
 9    1  0.1426358E-005  0.1676836E+03  0.7546771E-02  0.1180690E+00
         -2   -1    0    0    0  501 -0.00000000000E+00  0.00000000000E+00  0.89554759583E+03  0.89554759583E+03  0.00000000000E+00 0.  1.
         21   -1    0    0  501  502  0.00000000000E+00 -0.00000000000E+00 -0.97128380876E+02  0.97128380876E+02  0.00000000000E+00 0. -1.
         23    2    1    2    0    0 -0.12613582995E+02 -0.13837423785E+03  0.73365425175E+03  0.75219188043E+03  0.90760848845E+02 0.  0.
         23    2    1    2    0    0 -0.20100304166E+02  0.15550780006E+03  0.84469286661E+02  0.19862698541E+03  0.87925655184E+02 0.  0.
        -11    1    4    4    0    0 -0.33345337633E+01  0.47870109245E+02  0.75320910205E+02  0.89307927916E+02  0.00000000000E+00 0.  1.
         11    1    4    4    0    0 -0.16765770403E+02  0.10763769081E+03  0.91483764565E+01  0.10931905750E+03  0.00000000000E+00 0. -1.
        -11    1    3    3    0    0 -0.35620182749E+02 -0.13833941222E+03  0.64083700941E+03  0.65656581012E+03  0.00000000000E+00 0.  1.
         11    1    3    3    0    0  0.23006599754E+02 -0.34825631167E-01  0.92817242342E+02  0.95626070300E+02  0.00000000000E+00 0. -1.
         -2    1    1    2    0  502  0.32713887161E+02 -0.17133562208E+02 -0.19704323462E+02  0.41857110868E+02  0.00000000000E+00 0.  1.
<scales pt_clust_5="13000.00000" pt_clust_6="13000.00000" pt_clust_7="13000.00000" pt_clust_8="13000.00000" pt_clust_9="36.92909"></scales>
<clustering>
<clus scale="   36.929">  2  9  1 -1</clus>
<clus scale="   87.926">  5  6 -1 -1</clus>
<clus scale="   90.761">  7  8 -1 -1</clus>
<clus scale="  166.166">  2  5  1 -1</clus>
<clus scale="   36.929">  2  5  1 -1</clus>
</clustering>
</event>
<event>
 9    1  0.1426358E-005  0.9750152E+02  0.7546771E-02  0.1285940E+00
          1   -1    0    0  502    0 -0.00000000000E+00  0.00000000000E+00  0.41515078234E+03  0.41515078234E+03  0.00000000000E+00 0. -1.
         21   -1    0    0  501  502  0.00000000000E+00 -0.00000000000E+00 -0.29259805210E+02  0.29259805210E+02  0.00000000000E+00 0.  1.
         23    2    1    2    0    0 -0.22086829141E+02 -0.35773935335E+01  0.17807267239E+03  0.20152255209E+03  0.91656077703E+02 0.  0.
         23    2    1    2    0    0  0.38304440539E+02  0.17998125347E+02  0.18727479418E+03  0.21300485874E+03  0.92239138264E+02 0.  0.
        -11    1    3    3    0    0 -0.37888190117E+02  0.35454521495E+02  0.89622317214E+02  0.10356011678E+03  0.00000000000E+00 0.  1.
         11    1    3    3    0    0  0.15801360977E+02 -0.39031915029E+02  0.88450355179E+02  0.97962435305E+02  0.00000000000E+00 0. -1.
        -11    1    4    4    0    0 -0.25261571410E+02 -0.77619552795E+01  0.23178991404E+02  0.35151964133E+02  0.00000000000E+00 0. -1.
         11    1    4    4    0    0  0.63566011949E+02  0.25760080627E+02  0.16409580278E+03  0.17785289460E+03  0.00000000000E+00 0.  1.
          1    1    1    2  501    0 -0.16217611398E+02 -0.14420731814E+02  0.20543510550E+02  0.29883176725E+02  0.00000000000E+00 0. -1.
<scales pt_clust_5="13000.00000" pt_clust_6="13000.00000" pt_clust_7="13000.00000" pt_clust_8="13000.00000" pt_clust_9="21.70181"></scales>
<clustering>
<clus scale="   21.702">  2  9  1 -1</clus>
<clus scale="   91.656">  5  6 -1 -1</clus>
<clus scale="   92.239">  7  8 -1 -1</clus>
<clus scale="   96.950">  1  5  2 -1</clus>
<clus scale="   21.702">  2  5  1 -1</clus>
</clustering>
</event>
<event>
 9    1  0.1426358E-005  0.1537075E+03  0.7546771E-02  0.1196897E+00
          2   -1    0    0  502    0 -0.00000000000E+00  0.00000000000E+00  0.51637068950E+03  0.51637068950E+03  0.00000000000E+00 0. -1.
         21   -1    0    0  501  502  0.00000000000E+00 -0.00000000000E+00 -0.11995607265E+03  0.11995607265E+03  0.00000000000E+00 0.  1.
         23    2    1    2    0    0 -0.13231252110E+02  0.10456075040E+03  0.18766720329E+03  0.23390411348E+03  0.91564941736E+02 0.  0.
         23    2    1    2    0    0  0.14550942307E+03 -0.11076032648E+03  0.15957302020E+03  0.26116377207E+03  0.96447524278E+02 0.  0.
        -11    1    3    3    0    0 -0.52839066032E+02  0.57093064490E+02  0.10483479717E+03  0.13054470349E+03  0.00000000000E+00 0. -1.
         11    1    3    3    0    0  0.39607813922E+02  0.47467685911E+02  0.82832406125E+02  0.10335940999E+03  0.00000000000E+00 0.  1.
        -13    1    4    4    0    0  0.64752016115E+02 -0.91687610680E+02  0.47909369915E+02  0.12204404643E+03  0.00000000000E+00 0.  1.
         13    1    4    4    0    0  0.80757406959E+02 -0.19072715804E+02  0.11166365029E+03  0.13911972564E+03  0.00000000000E+00 0. -1.
          2    1    1    2  501    0 -0.13227817096E+03  0.61995760837E+01  0.49174393355E+02  0.14125887660E+03  0.00000000000E+00 0. -1.
<scales pt_clust_5="13000.00000" pt_clust_6="13000.00000" pt_clust_7="13000.00000" pt_clust_8="13000.00000" pt_clust_9="132.42337"></scales>
<clustering>
<clus scale="   91.565">  5  6 -1 -1</clus>
<clus scale="   96.448">  7  8 -1 -1</clus>
<clus scale="  132.423">  2  9  1 -1</clus>
<clus scale="  150.692">  1  5  2 -1</clus>
<clus scale="  132.423">  2  5  1 -1</clus>
</clustering>
</event>
<event>
 9    1  0.1426358E-005  0.2489574E+03  0.7546771E-02  0.1114708E+00
          2   -1    0    0  502    0 -0.00000000000E+00  0.00000000000E+00  0.12865753810E+04  0.12865753810E+04  0.00000000000E+00 0. -1.
         21   -1    0    0  501  502  0.00000000000E+00 -0.00000000000E+00 -0.21376308026E+03  0.21376308026E+03  0.00000000000E+00 0. -1.
         23    2    1    2    0    0  0.50512865162E+02  0.20064933987E+03  0.86023957969E+03  0.89070825833E+03  0.10265164321E+03 0.  0.
         23    2    1    2    0    0 -0.27387576760E+02 -0.35379768329E+03  0.25820931459E+03  0.44816227196E+03  0.90854233833E+02 0.  0.
        -13    1    3    3    0    0  0.69983938493E+02  0.70453955244E+02  0.37648660296E+03  0.38936316424E+03  0.00000000000E+00 0.  1.
         13    1    3    3    0    0 -0.19471073331E+02  0.13019538463E+03  0.48375297674E+03  0.50134509410E+03  0.00000000000E+00 0. -1.
        -13    1    4    4    0    0 -0.16464385862E+01 -0.12998902071E+03  0.43861625797E+02  0.13719948426E+03  0.00000000000E+00 0. -1.
         13    1    4    4    0    0 -0.25741138174E+02 -0.22380866258E+03  0.21434768879E+03  0.31096278770E+03  0.00000000000E+00 0.  1.
          2    1    1    2  501    0 -0.23125288402E+02  0.15314834342E+03 -0.45636593554E+02  0.16146793095E+03  0.00000000000E+00 0. -1.
<scales pt_clust_5="13000.00000" pt_clust_6="13000.00000" pt_clust_7="13000.00000" pt_clust_8="13000.00000" pt_clust_9="154.88445"></scales>
<clustering>
<clus scale="   90.854">  7  8 -1 -1</clus>
<clus scale="  102.652">  5  6 -1 -1</clus>
<clus scale="  154.884">  2  9  1 -1</clus>
<clus scale="  244.330">  2  7  1 -1</clus>
<clus scale="  154.884">  2  5  1 -1</clus>
</clustering>
</event>
<event>
 9    1  0.1426358E-005  0.9884001E+02  0.7546771E-02  0.1283318E+00
         21   -1    0    0  501  502  0.00000000000E+00  0.00000000000E+00  0.16975847949E+03  0.16975847949E+03  0.00000000000E+00 0.  1.
          1   -1    0    0  502    0 -0.00000000000E+00 -0.00000000000E+00 -0.21153432620E+03  0.21153432620E+03  0.00000000000E+00 0. -1.
         23    2    1    2    0    0  0.37017253160E+02 -0.10457380838E+02 -0.16712853937E+03  0.19432776622E+03  0.91387626104E+02 0.  0.
         23    2    1    2    0    0 -0.10620815568E+02  0.13075263898E+02  0.48784861998E+02  0.10593258966E+03  0.92509386241E+02 0.  0.
        -11    1    3    3    0    0  0.59060415389E+02 -0.20310112304E+02 -0.68118671473E+02  0.92416376964E+02  0.00000000000E+00 0.  1.
         11    1    3    3    0    0 -0.22043162229E+02  0.98527314667E+01 -0.99009867897E+02  0.10191138925E+03  0.00000000000E+00 0. -1.
        -13    1    4    4    0    0  0.12809531094E+02 -0.34985395334E+02  0.66219886566E+01  0.37840622448E+02  0.00000000000E+00 0.  1.
         13    1    4    4    0    0 -0.23430346662E+02  0.48060659231E+02  0.42162873342E+02  0.68091967212E+02  0.00000000000E+00 0. -1.
          1    1    1    2  501    0 -0.26396437593E+02 -0.26178830600E+01  0.76567830665E+02  0.81032449809E+02  0.00000000000E+00 0. -1.
<scales pt_clust_5="13000.00000" pt_clust_6="13000.00000" pt_clust_7="13000.00000" pt_clust_8="13000.00000" pt_clust_9="26.52594"></scales>
<clustering>
<clus scale="   26.526">  1  9  2 -1</clus>
<clus scale="   91.388">  5  6 -1 -1</clus>
<clus scale="   92.509">  7  8 -1 -1</clus>
<clus scale="   97.791">  2  5  1 -1</clus>
<clus scale="   26.526">  1  5  2 -1</clus>
</clustering>
</event>
<event>
 9    1  0.1426358E-005  0.1087136E+03  0.7546771E-02  0.1263001E+00
          1   -1    0    0  502    0 -0.00000000000E+00  0.00000000000E+00  0.44751537385E+03  0.44751537385E+03  0.00000000000E+00 0. -1.
         21   -1    0    0  501  502  0.00000000000E+00 -0.00000000000E+00 -0.72460145628E+02  0.72460145628E+02  0.00000000000E+00 0. -1.
         23    2    1    2    0    0 -0.78583375753E+02  0.76895733483E+01  0.25930065333E+03  0.28588881168E+03  0.90890633973E+02 0.  0.
         23    2    1    2    0    0 -0.75860765687E+01 -0.18392251764E+02  0.48621197966E+01  0.93243325150E+02  0.90966224465E+02 0.  0.
        -11    1    4    4    0    0  0.20327587136E+02  0.29689277215E+02 -0.63223456608E+01  0.36532670790E+02  0.00000000000E+00 0.  1.
         11    1    4    4    0    0 -0.27913663705E+02 -0.48081528979E+02  0.11184465457E+02  0.56710654360E+02  0.00000000000E+00 0. -1.
        -13    1    3    3    0    0 -0.60126218348E+02  0.19836128246E+02  0.25579855968E+03  0.26351762228E+03  0.00000000000E+00 0. -1.
         13    1    3    3    0    0 -0.18457157405E+02 -0.12146554898E+02  0.35020936492E+01  0.22371189402E+02  0.00000000000E+00 0.  1.
          1    1    1    2  501    0  0.86169452322E+02  0.10702678415E+02  0.11089245510E+03  0.14084338265E+03  0.00000000000E+00 0. -1.
<scales pt_clust_5="13000.00000" pt_clust_6="13000.00000" pt_clust_7="13000.00000" pt_clust_8="13000.00000" pt_clust_9="86.83162"></scales>
<clustering>
<clus scale="   86.832">  2  9  1 -1</clus>
<clus scale="   90.891">  7  8 -1 -1</clus>
<clus scale="   90.966">  5  6 -1 -1</clus>
<clus scale="  108.650">  1  7  2 -1</clus>
<clus scale="   86.832">  2  5  1 -1</clus>
</clustering>
</event>
<event>
 9    1  0.1426358E-005  0.1243495E+03  0.7546771E-02  0.1236519E+00
         21   -1    0    0  501  502  0.00000000000E+00  0.00000000000E+00  0.66472135994E+03  0.66472135994E+03  0.00000000000E+00 0.  1.
         -4   -1    0    0    0  501 -0.00000000000E+00 -0.00000000000E+00 -0.13929337714E+03  0.13929337714E+03  0.00000000000E+00 0.  1.
         23    2    1    2    0    0 -0.78950163342E+02 -0.80808636076E+01 -0.84444399786E+02  0.14798969153E+03  0.92041640015E+02 0.  0.
         23    2    1    2    0    0  0.12037644262E+03 -0.12006160720E+02  0.24217841169E+03  0.28545996166E+03  0.90566940932E+02 0.  0.
        -11    1    3    3    0    0 -0.64472324317E+02 -0.45150269128E+02 -0.39859076004E+02  0.88226828941E+02  0.00000000000E+00 0.  1.
         11    1    3    3    0    0 -0.14477839025E+02  0.37069405520E+02 -0.44585323782E+02  0.59762862592E+02  0.00000000000E+00 0. -1.
        -13    1    4    4    0    0  0.77896144281E+02  0.28540210708E+02  0.18829518949E+03  0.20576061651E+03  0.00000000000E+00 0. -1.
         13    1    4    4    0    0  0.42480298339E+02 -0.40546371428E+02  0.53883222199E+02  0.79699345151E+02  0.00000000000E+00 0.  1.
         -4    1    1    2    0  502 -0.41426279278E+02  0.20087024328E+02  0.36769397090E+03  0.37056508389E+03  0.00000000000E+00 0.  1.
<scales pt_clust_5="13000.00000" pt_clust_6="13000.00000" pt_clust_7="13000.00000" pt_clust_8="13000.00000" pt_clust_9="46.03939"></scales>
<clustering>
<clus scale="   46.039">  1  9  2 -1</clus>
<clus scale="   90.567">  7  8 -1 -1</clus>
<clus scale="   92.042">  5  6 -1 -1</clus>
<clus scale="  123.262">  1  7  2 -1</clus>
<clus scale="   46.039">  1  5  2 -1</clus>
</clustering>
</event>
<event>
 9    1  0.1426358E-005  0.1007463E+03  0.7546771E-02  0.1279878E+00
         21   -1    0    0  501  502  0.00000000000E+00  0.00000000000E+00  0.12658736874E+03  0.12658736874E+03  0.00000000000E+00 0. -1.
         -1   -1    0    0    0  501 -0.00000000000E+00 -0.00000000000E+00 -0.12416142648E+03  0.12416142648E+03  0.00000000000E+00 0.  1.
         23    2    1    2    0    0 -0.68759180275E+01  0.45990926122E+02 -0.47952613737E+02  0.11341249940E+03  0.91654232422E+02 0.  0.
         23    2    1    2    0    0 -0.26825147339E+01 -0.14853134737E+02  0.37823143738E+02  0.10242835882E+03  0.93984929597E+02 0.  0.
        -13    1    4    4    0    0  0.36215902583E+02  0.52166576147E+01  0.45079631344E+02  0.58060126409E+02  0.00000000000E+00 0.  1.
         13    1    4    4    0    0 -0.38898417317E+02 -0.20069792352E+02 -0.72564876057E+01  0.44368232410E+02  0.00000000000E+00 0. -1.
        -13    1    3    3    0    0  0.37874572103E+02  0.16179729689E+01 -0.28600461389E+02  0.47487760952E+02  0.00000000000E+00 0.  1.
         13    1    3    3    0    0 -0.44750490131E+02  0.44372953153E+02 -0.19352152348E+02  0.65924738444E+02  0.00000000000E+00 0. -1.
         -1    1    1    2    0  502  0.95584327615E+01 -0.31137791384E+02  0.12555412259E+02  0.34907937008E+02  0.00000000000E+00 0.  1.
<scales pt_clust_5="13000.00000" pt_clust_6="13000.00000" pt_clust_7="13000.00000" pt_clust_8="13000.00000" pt_clust_9="32.57185"></scales>
<clustering>
<clus scale="   32.572">  1  9  2 -1</clus>
<clus scale="   91.654">  7  8 -1 -1</clus>
<clus scale="   93.985">  5  6 -1 -1</clus>
<clus scale="   98.576">  2  7  1 -1</clus>
<clus scale="   32.572">  1  5  2 -1</clus>
</clustering>
</event>
<event>
 9    1  0.1426358E-005  0.1330728E+03  0.7546771E-02  0.1223457E+00
          1   -1    0    0  502    0 -0.00000000000E+00  0.00000000000E+00  0.33422814434E+03  0.33422814434E+03  0.00000000000E+00 0. -1.
         21   -1    0    0  501  502  0.00000000000E+00 -0.00000000000E+00 -0.84642318402E+02  0.84642318402E+02  0.00000000000E+00 0.  1.
         23    2    1    2    0    0 -0.67356734039E+02 -0.38337320728E+02  0.12480219001E+03  0.17284000907E+03  0.91057137671E+02 0.  0.
         23    2    1    2    0    0  0.11942668679E+03  0.40406797514E+02  0.11136173762E+03  0.19221865137E+03  0.93011453720E+02 0.  0.
        -11    1    3    3    0    0 -0.52313301917E+02 -0.68172296259E+02  0.94573806711E+02  0.12778242622E+03  0.00000000000E+00 0. -1.
         11    1    3    3    0    0 -0.15043432122E+02  0.29834975531E+02  0.30228383302E+02  0.45057582847E+02  0.00000000000E+00 0.  1.
        -11    1    4    4    0    0  0.50994105306E+02  0.66114068181E+02  0.56380765613E+02  0.10074849636E+03  0.00000000000E+00 0.  1.
         11    1    4    4    0    0  0.68432581486E+02 -0.25707270667E+02  0.54980972009E+02  0.91470155007E+02  0.00000000000E+00 0. -1.
          1    1    1    2  501    0 -0.52069952753E+02 -0.20694767857E+01  0.13421898304E+02  0.53811802311E+02  0.00000000000E+00 0. -1.
<scales pt_clust_5="13000.00000" pt_clust_6="13000.00000" pt_clust_7="13000.00000" pt_clust_8="13000.00000" pt_clust_9="52.11106"></scales>
<clustering>
<clus scale="   52.111">  2  9  1 -1</clus>
<clus scale="   91.057">  5  6 -1 -1</clus>
<clus scale="   93.011">  7  8 -1 -1</clus>
<clus scale="  131.714">  1  5  2 -1</clus>
<clus scale="   52.111">  2  5  1 -1</clus>
</clustering>
</event>
<event>
 9    1  0.1426358E-005  0.4686657E+03  0.7546771E-02  0.1022336E+00
         21   -1    0    0  501  502  0.00000000000E+00  0.00000000000E+00  0.35015780510E+03  0.35015780510E+03  0.00000000000E+00 0.  1.
          2   -1    0    0  502    0 -0.00000000000E+00 -0.00000000000E+00 -0.10677811329E+04  0.10677811329E+04  0.00000000000E+00 0. -1.
         23    2    1    2    0    0  0.38397953704E+03 -0.24921688267E+03 -0.74198007561E+03  0.87680981987E+03  0.93336424632E+02 0.  0.
         23    2    1    2    0    0 -0.40854402286E+03  0.22270312911E+03 -0.30961981525E+02  0.47504920511E+03  0.90599120543E+02 0.  0.
        -11    1    4    4    0    0 -0.34668016772E+03  0.21330629196E+03 -0.43964836243E+01  0.40707007007E+03  0.00000000000E+00 0.  1.
         11    1    4    4    0    0 -0.61863855140E+02  0.93968371449E+01 -0.26565497901E+02  0.67979135034E+02  0.00000000000E+00 0. -1.
        -13    1    3    3    0    0  0.24108838091E+02 -0.35641719826E+02 -0.11703245861E+03  0.12469227977E+03  0.00000000000E+00 0.  1.
         13    1    3    3    0    0  0.35987069895E+03 -0.21357516284E+03 -0.62494761700E+03  0.75211754010E+03  0.00000000000E+00 0. -1.
          2    1    1    2  501    0  0.24564485827E+02  0.26513753561E+02  0.55318729320E+02  0.66079913025E+02  0.00000000000E+00 0. -1.
<scales pt_clust_5="13000.00000" pt_clust_6="13000.00000" pt_clust_7="13000.00000" pt_clust_8="13000.00000" pt_clust_9="36.14406"></scales>
<clustering>
<clus scale="   36.144">  1  9  2 -1</clus>
<clus scale="   90.599">  5  6 -1 -1</clus>
<clus scale="   93.336">  7  8 -1 -1</clus>
<clus scale="  468.128">  1  5  2 -1</clus>
<clus scale="   36.144">  1  5  2 -1</clus>
</clustering>
</event>
<event>
 9    1  0.1426358E-005  0.1402943E+03  0.7546771E-02  0.1223810E+00
         21   -1    0    0  501  502  0.00000000000E+00  0.00000000000E+00  0.11172478227E+03  0.11172478227E+03  0.00000000000E+00 0. -1.
          2   -1    0    0  502    0 -0.00000000000E+00 -0.00000000000E+00 -0.39388428433E+03  0.39388428433E+03  0.00000000000E+00 0. -1.
         23    2    1    2    0    0 -0.64288711618E+02 -0.73567015628E+01 -0.39684032126E+01  0.11165046826E+03  0.90900601425E+02 0.  0.
         23    2    1    2    0    0 -0.22359057608E+02 -0.69799990774E+02 -0.24646136739E+03  0.27367656750E+03  0.93721351964E+02 0.  0.
        -11    1    3    3    0    0 -0.39504870543E+01  0.30685914461E+02 -0.22137023194E+02  0.38043126714E+02  0.00000000000E+00 0.  1.
         11    1    3    3    0    0 -0.60338224564E+02 -0.38042616024E+02  0.18168619982E+02  0.73607341546E+02  0.00000000000E+00 0. -1.
        -11    1    4    4    0    0 -0.50539331772E+02 -0.65790800417E+02 -0.13344797839E+03  0.15713375326E+03  0.00000000000E+00 0. -1.
         11    1    4    4    0    0  0.28180274163E+02 -0.40091903566E+01 -0.11301338899E+03  0.11654281424E+03  0.00000000000E+00 0.  1.
          2    1    1    2  501    0  0.86647769227E+02  0.77156692337E+02 -0.31729731468E+02  0.12028203084E+03  0.00000000000E+00 0. -1.
<scales pt_clust_5="13000.00000" pt_clust_6="13000.00000" pt_clust_7="13000.00000" pt_clust_8="13000.00000" pt_clust_9="104.39732"></scales>
<clustering>
<clus scale="   90.901">  5  6 -1 -1</clus>
<clus scale="   93.721">  7  8 -1 -1</clus>
<clus scale="  111.580">  2  5  1 -1</clus>
<clus scale="  104.397">  1  9  2 -1</clus>
<clus scale="  104.397">  1  5  2 -1</clus>
</clustering>
</event>
<event>
 9    1  0.1426358E-005  0.1010812E+03  0.7546771E-02  0.1280037E+00
         21   -1    0    0  501  502  0.00000000000E+00  0.00000000000E+00  0.15534075402E+03  0.15534075402E+03  0.00000000000E+00 0.  1.
          2   -1    0    0  502    0 -0.00000000000E+00 -0.00000000000E+00 -0.18914173770E+03  0.18914173770E+03  0.00000000000E+00 0. -1.
         23    2    1    2    0    0 -0.32658615095E+02  0.14750018973E+02 -0.89680369442E+02  0.13319085038E+03  0.91722874808E+02 0.  0.
         23    2    1    2    0    0  0.85016590262E+02  0.66302871355E+01  0.83837147314E+02  0.14820351660E+03  0.87543324902E+02 0.  0.
        -11    1    4    4    0    0  0.28142347041E+02 -0.38339766852E+02  0.47048912988E+02  0.66899399344E+02  0.00000000000E+00 0.  1.
         11    1    4    4    0    0  0.56874243221E+02  0.44970053987E+02  0.36788234326E+02  0.81304117254E+02  0.00000000000E+00 0. -1.
        -13    1    3    3    0    0 -0.90818148769E+00  0.29715829265E+02  0.68226269347E+01  0.30502516958E+02  0.00000000000E+00 0.  1.
         13    1    3    3    0    0 -0.31750433607E+02 -0.14965810291E+02 -0.96502996377E+02  0.10268833342E+03  0.00000000000E+00 0. -1.
          2    1    1    2  501    0 -0.52357975167E+02 -0.21380306109E+02 -0.27957761547E+02  0.63088124743E+02  0.00000000000E+00 0. -1.
<scales pt_clust_5="13000.00000" pt_clust_6="13000.00000" pt_clust_7="13000.00000" pt_clust_8="13000.00000" pt_clust_9="56.55509"></scales>
<clustering>
<clus scale="   56.555">  1  9  2 -1</clus>
<clus scale="   87.543">  5  6 -1 -1</clus>
<clus scale="   91.723">  7  8 -1 -1</clus>
<clus scale="   97.304">  1  5  2 -1</clus>
<clus scale="   56.555">  1  5  2 -1</clus>
</clustering>
</event>
<event>
 9    1  0.1426358E-005  0.2258622E+03  0.7546771E-02  0.1129776E+00
         -1   -1    0    0    0  501 -0.00000000000E+00  0.00000000000E+00  0.41439908838E+03  0.41439908838E+03  0.00000000000E+00 0.  1.
         21   -1    0    0  501  502  0.00000000000E+00 -0.00000000000E+00 -0.42570996946E+03  0.42570996946E+03  0.00000000000E+00 0.  1.
         23    2    1    2    0    0 -0.32413621910E+02 -0.18150045896E+03  0.17425635371E+03  0.26912515396E+03  0.89833246614E+02 0.  0.
         23    2    1    2    0    0  0.10084055819E+03  0.23481267176E+03  0.86688728167E+02  0.28524320498E+03  0.92428033610E+02 0.  0.
        -11    1    4    4    0    0  0.40498368773E+02  0.25262951574E+02 -0.63643258275E+01  0.48154327310E+02  0.00000000000E+00 0. -1.
         11    1    4    4    0    0  0.60342189421E+02  0.20954972019E+03  0.93053053994E+02  0.23708887767E+03  0.00000000000E+00 0.  1.
        -13    1    3    3    0    0  0.28463431401E+02 -0.53851745659E+02  0.73619113533E+02  0.95550778726E+02  0.00000000000E+00 0. -1.
         13    1    3    3    0    0 -0.60877053311E+02 -0.12764871330E+03  0.10063724017E+03  0.17357437523E+03  0.00000000000E+00 0.  1.
         -1    1    1    2    0  502 -0.68426936284E+02 -0.53312212803E+02 -0.27225596296E+03  0.28574069890E+03  0.00000000000E+00 0.  1.
<scales pt_clust_5="13000.00000" pt_clust_6="13000.00000" pt_clust_7="13000.00000" pt_clust_8="13000.00000" pt_clust_9="86.74352"></scales>
<clustering>
<clus scale="   86.744">  2  9  1 -1</clus>
<clus scale="   89.833">  7  8 -1 -1</clus>
<clus scale="   92.428">  5  6 -1 -1</clus>
<clus scale="  224.813">  1  7  2 -1</clus>
<clus scale="   86.744">  2  5  1 -1</clus>
</clustering>
</event>
<event>
 9    1  0.1426358E-005  0.9406802E+02  0.7546771E-02  0.1293528E+00
          2   -1    0    0  502    0 -0.00000000000E+00  0.00000000000E+00  0.33509985182E+03  0.33509985182E+03  0.00000000000E+00 0. -1.
         21   -1    0    0  501  502  0.00000000000E+00 -0.00000000000E+00 -0.54646132003E+02  0.54646132003E+02  0.00000000000E+00 0.  1.
         23    2    1    2    0    0  0.27718182648E+02 -0.10010918726E+02  0.20756193878E+03  0.22881996730E+03  0.91695707985E+02 0.  0.
         23    2    1    2    0    0 -0.81077246968E+01 -0.11532955170E+02  0.88471025122E+02  0.12788934887E+03  0.91267842167E+02 0.  0.
        -11    1    3    3    0    0 -0.14998002014E+02 -0.15797775815E+02  0.58522557375E+01  0.22555679602E+02  0.00000000000E+00 0.  1.
         11    1    3    3    0    0  0.42716184662E+02  0.57868570896E+01  0.20170968304E+03  0.20626428770E+03  0.00000000000E+00 0. -1.
        -13    1    4    4    0    0 -0.29133958597E+02 -0.22984990674E+02  0.95892766424E+02  0.10282276009E+03  0.00000000000E+00 0.  1.
         13    1    4    4    0    0  0.21026233901E+02  0.11452035504E+02 -0.74217413020E+01  0.25066588782E+02  0.00000000000E+00 0. -1.
          2    1    1    2  501    0 -0.19610457951E+02  0.21543873895E+02 -0.15579244081E+02  0.33036667653E+02  0.00000000000E+00 0. -1.
<scales pt_clust_5="13000.00000" pt_clust_6="13000.00000" pt_clust_7="13000.00000" pt_clust_8="13000.00000" pt_clust_9="29.13260"></scales>
<clustering>
<clus scale="   29.133">  2  9  1 -1</clus>
<clus scale="   91.268">  7  8 -1 -1</clus>
<clus scale="   91.696">  5  6 -1 -1</clus>
<clus scale="   93.651">  2  7  1 -1</clus>
<clus scale="   29.133">  2  5  1 -1</clus>
</clustering>
</event>
<event>
 9    1  0.1426358E-005  0.1338269E+03  0.7546771E-02  0.1221893E+00
          1   -1    0    0  502    0 -0.00000000000E+00  0.00000000000E+00  0.25590171420E+03  0.25590171420E+03  0.00000000000E+00 0. -1.
         21   -1    0    0  501  502  0.00000000000E+00 -0.00000000000E+00 -0.25728133339E+03  0.25728133339E+03  0.00000000000E+00 0. -1.
         23    2    1    2    0    0  0.36362083437E+02  0.93529463715E+02  0.17284882710E+03  0.21999338135E+03  0.91926106819E+02 0.  0.
         23    2    1    2    0    0 -0.14541917234E+02 -0.88242239902E+02 -0.11354999476E+02  0.12877605955E+03  0.91957475176E+02 0.  0.
        -13    1    3    3    0    0  0.62677271230E+02  0.36952184762E+02  0.80141308795E+02  0.10824293817E+03  0.00000000000E+00 0.  1.
         13    1    3    3    0    0 -0.26315187793E+02  0.56577278953E+02  0.92707518300E+02  0.11175044318E+03  0.00000000000E+00 0. -1.
        -13    1    4    4    0    0 -0.53622440185E+02 -0.46631427520E+02 -0.34516180943E+01  0.71146115786E+02  0.00000000000E+00 0.  1.
         13    1    4    4    0    0  0.39080522950E+02 -0.41610812381E+02 -0.79033813819E+01  0.57629943765E+02  0.00000000000E+00 0. -1.
          1    1    1    2  501    0 -0.21820166202E+02 -0.52872238133E+01 -0.16287344681E+03  0.16441360669E+03  0.00000000000E+00 0. -1.
<scales pt_clust_5="13000.00000" pt_clust_6="13000.00000" pt_clust_7="13000.00000" pt_clust_8="13000.00000" pt_clust_9="22.45160"></scales>
<clustering>
<clus scale="   22.452">  2  9  1 -1</clus>
<clus scale="   91.926">  5  6 -1 -1</clus>
<clus scale="   91.957">  7  8 -1 -1</clus>
<clus scale="  133.805">  1  5  2 -1</clus>
<clus scale="   22.452">  2  5  1 -1</clus>
</clustering>
</event>
<event>
 9    1  0.1588031E-005  0.9136266E+02  0.7546771E-02  0.1303829E+00
         21   -1    0    0  501  502  0.00000000000E+00  0.00000000000E+00  0.93747217866E+02  0.93747217866E+02  0.00000000000E+00 0.  1.
          3   -1    0    0  502    0 -0.00000000000E+00 -0.00000000000E+00 -0.26450799483E+03  0.26450799483E+03  0.00000000000E+00 0. -1.
         23    2    1    2    0    0 -0.10021112258E+02  0.81504992855E+01 -0.21054978110E+03  0.22672070477E+03  0.83091601978E+02 0.  0.
         23    2    1    2    0    0  0.14957671681E+02 -0.33080978700E+02  0.19556736042E+02  0.99050002465E+02  0.90057503685E+02 0.  0.
        -11    1    3    3    0    0 -0.40142895376E+02  0.27086911262E+02 -0.11635927255E+03  0.12603425376E+03  0.00000000000E+00 0.  1.
         11    1    3    3    0    0  0.30121783118E+02 -0.18936411976E+02 -0.94190508550E+02  0.10068645101E+03  0.00000000000E+00 0. -1.
        -13    1    4    4    0    0  0.48910737969E+02 -0.33052188261E+02 -0.15850185416E+01  0.59052685979E+02  0.00000000000E+00 0. -1.
         13    1    4    4    0    0 -0.33953066288E+02 -0.28790438410E-01  0.21141754584E+02  0.39997316486E+02  0.00000000000E+00 0.  1.
          3    1    1    2  501    0 -0.49365594229E+01  0.24930479414E+02  0.20232268097E+02  0.32484505462E+02  0.00000000000E+00 0. -1.
<scales pt_clust_5="13000.00000" pt_clust_6="13000.00000" pt_clust_7="13000.00000" pt_clust_8="13000.00000" pt_clust_9="25.41453"></scales>
<clustering>
<clus scale="   25.415">  1  9  2 -1</clus>
<clus scale="   83.092">  5  6 -1 -1</clus>
<clus scale="   84.504">  2  5  1 -1</clus>
<clus scale="   90.058">  7  8 -1 -1</clus>
<clus scale="   25.415">  1  5  2 -1</clus>
</clustering>
</event>
<event>
 9    1  0.1426358E-005  0.1223555E+03  0.7546771E-02  0.1239818E+00
         21   -1    0    0  501  502  0.00000000000E+00  0.00000000000E+00  0.20660127680E+03  0.20660127680E+03  0.00000000000E+00 0. -1.
          1   -1    0    0  502    0 -0.00000000000E+00 -0.00000000000E+00 -0.49557284271E+03  0.49557284271E+03  0.00000000000E+00 0. -1.
         23    2    1    2    0    0 -0.74489963356E+02  0.27061081405E+02 -0.33418328655E+03  0.35569226549E+03  0.92506550857E+02 0.  0.
         23    2    1    2    0    0  0.74394641188E+02 -0.71478645477E+02  0.16736028102E+03  0.21650801093E+03  0.90677978225E+02 0.  0.
        -11    1    4    4    0    0  0.25360145305E+02  0.20831909029E+02  0.38911086663E+02  0.50903615480E+02  0.00000000000E+00 0.  1.
         11    1    4    4    0    0  0.49034495883E+02 -0.92310554506E+02  0.12844919436E+03  0.16560439544E+03  0.00000000000E+00 0. -1.
        -13    1    3    3    0    0 -0.42452243910E+02 -0.21929440193E+02 -0.67750195354E+02  0.82904658076E+02  0.00000000000E+00 0.  1.
         13    1    3    3    0    0 -0.32037719446E+02  0.48990521597E+02 -0.26643309120E+03  0.27278760742E+03  0.00000000000E+00 0. -1.
          1    1    1    2  501    0  0.95322167642E-01  0.44417564072E+02 -0.12214856038E+03  0.12997384309E+03  0.00000000000E+00 0. -1.
<scales pt_clust_5="13000.00000" pt_clust_6="13000.00000" pt_clust_7="13000.00000" pt_clust_8="13000.00000" pt_clust_9="44.41769"></scales>
<clustering>
<clus scale="   44.418">  1  9  2 -1</clus>
<clus scale="   90.678">  5  6 -1 -1</clus>
<clus scale="   92.507">  7  8 -1 -1</clus>
<clus scale="  120.979">  1  5  2 -1</clus>
<clus scale="   44.418">  1  5  2 -1</clus>
</clustering>
</event>
<event>
 9    1  0.1426358E-005  0.1269150E+03  0.7546771E-02  0.1232159E+00
         21   -1    0    0  501  502  0.00000000000E+00  0.00000000000E+00  0.63378102189E+02  0.63378102189E+02  0.00000000000E+00 0.  1.
          2   -1    0    0  502    0 -0.00000000000E+00 -0.00000000000E+00 -0.52533814905E+03  0.52533814905E+03  0.00000000000E+00 0. -1.
         23    2    1    2    0    0  0.83101439155E+02 -0.23214476461E+02 -0.40172404017E+03  0.42100067407E+03  0.91731139802E+02 0.  0.
         23    2    1    2    0    0 -0.84883203119E+02  0.43407107527E+02 -0.64392691946E+02  0.14702270245E+03  0.91541908998E+02 0.  0.
        -11    1    4    4    0    0 -0.99157662327E+02  0.24723856078E+02 -0.68673232469E+02  0.12312401843E+03  0.00000000000E+00 0. -1.
         11    1    4    4    0    0  0.14274459208E+02  0.18683251450E+02  0.42805405226E+01  0.23898684013E+02  0.00000000000E+00 0.  1.
        -13    1    3    3    0    0  0.31310507945E+02  0.34576667766E+02 -0.11888066793E+03  0.12770476526E+03  0.00000000000E+00 0.  1.
         13    1    3    3    0    0  0.51790931209E+02 -0.57791144227E+02 -0.28284337224E+03  0.29329590881E+03  0.00000000000E+00 0. -1.
          2    1    1    2  501    0  0.17817639646E+01 -0.20192631066E+02  0.41566852499E+01  0.20692874727E+02  0.00000000000E+00 0. -1.
<scales pt_clust_5="13000.00000" pt_clust_6="13000.00000" pt_clust_7="13000.00000" pt_clust_8="13000.00000" pt_clust_9="20.27109"></scales>
<clustering>
<clus scale="   20.271">  1  9  2 -1</clus>
<clus scale="   91.542">  5  6 -1 -1</clus>
<clus scale="   91.731">  7  8 -1 -1</clus>
<clus scale="  126.778">  1  5  2 -1</clus>
<clus scale="   20.271">  1  5  2 -1</clus>
</clustering>
</event>
<event>
 9    1  0.1426358E-005  0.1030356E+03  0.7546771E-02  0.1274627E+00
         21   -1    0    0  501  502  0.00000000000E+00  0.00000000000E+00  0.10228643667E+03  0.10228643667E+03  0.00000000000E+00 0. -1.
          2   -1    0    0  502    0 -0.00000000000E+00 -0.00000000000E+00 -0.43552586085E+03  0.43552586085E+03  0.00000000000E+00 0. -1.
         23    2    1    2    0    0  0.60592455563E+01 -0.41809575507E+02 -0.27006000441E+03  0.28737212771E+03  0.88688098080E+02 0.  0.
         23    2    1    2    0    0 -0.90885816253E+02  0.69920663608E+02 -0.68183428189E+02  0.16093698288E+03  0.90014453189E+02 0.  0.
        -13    1    4    4    0    0 -0.45260061127E+02  0.76526394772E+02 -0.72378959312E+02  0.11464499981E+03  0.00000000000E+00 0. -1.
         13    1    4    4    0    0 -0.45625755127E+02 -0.66057311644E+01  0.41955311230E+01  0.46291983069E+02  0.00000000000E+00 0.  1.
        -13    1    3    3    0    0 -0.35495635207E+02  0.12640607108E+01 -0.69173592180E+02  0.77759397010E+02  0.00000000000E+00 0. -1.
         13    1    3    3    0    0  0.41554880764E+02 -0.43073636218E+02 -0.20088641223E+03  0.20961273070E+03  0.00000000000E+00 0.  1.
          2    1    1    2  501    0  0.84826570697E+02 -0.28111088101E+02  0.50040084210E+01  0.89503186931E+02  0.00000000000E+00 0. -1.
<scales pt_clust_5="13000.00000" pt_clust_6="13000.00000" pt_clust_7="13000.00000" pt_clust_8="13000.00000" pt_clust_9="89.36319"></scales>
<clustering>
<clus scale="   88.688">  7  8 -1 -1</clus>
<clus scale="   89.363">  1  9  2 -1</clus>
<clus scale="   90.014">  5  6 -1 -1</clus>
<clus scale="  101.879">  2  7  1 -1</clus>
<clus scale="   89.363">  1  5  2 -1</clus>
</clustering>
</event>
<event>
 9    1  0.1426358E-005  0.1186283E+03  0.7546771E-02  0.1246001E+00
         21   -1    0    0  501  502  0.00000000000E+00  0.00000000000E+00  0.29884286839E+03  0.29884286839E+03  0.00000000000E+00 0.  1.
          3   -1    0    0  502    0 -0.00000000000E+00 -0.00000000000E+00 -0.13381175146E+03  0.13381175146E+03  0.00000000000E+00 0. -1.
         23    2    1    2    0    0 -0.74856905969E+02  0.21909590858E+02 -0.83036019725E+02  0.14581622444E+03  0.91015406361E+02 0.  0.
         23    2    1    2    0    0  0.52458098981E+02 -0.38716870906E+02  0.22475586005E+03  0.25040205593E+03  0.89079429419E+02 0.  0.
        -11    1    4    4    0    0  0.60600573213E+02 -0.97549248249E+00  0.78722877930E+02  0.99351258517E+02  0.00000000000E+00 0. -1.
         11    1    4    4    0    0 -0.81424742327E+01 -0.37741378424E+02  0.14603298212E+03  0.15105079742E+03  0.00000000000E+00 0.  1.
        -13    1    3    3    0    0 -0.46735357400E+01 -0.24470854386E+02  0.34666887425E+01  0.25153182334E+02  0.00000000000E+00 0.  1.
         13    1    3    3    0    0 -0.70183370229E+02  0.46380445245E+02 -0.86502708467E+02  0.12066304210E+03  0.00000000000E+00 0. -1.
          3    1    1    2  501    0  0.22398806989E+02  0.16807280048E+02  0.23311276600E+02  0.36436339468E+02  0.00000000000E+00 0. -1.
<scales pt_clust_5="13000.00000" pt_clust_6="13000.00000" pt_clust_7="13000.00000" pt_clust_8="13000.00000" pt_clust_9="28.00341"></scales>
<clustering>
<clus scale="   28.003">  1  9  2 -1</clus>
<clus scale="   89.079">  5  6 -1 -1</clus>
<clus scale="   91.015">  7  8 -1 -1</clus>
<clus scale="  117.149">  1  5  2 -1</clus>
<clus scale="   28.003">  1  5  2 -1</clus>
</clustering>
</event>
<event>
 9    1  0.1426358E-005  0.1216583E+03  0.7546771E-02  0.1241053E+00
         -3   -1    0    0    0  501 -0.00000000000E+00  0.00000000000E+00  0.42846134897E+03  0.42846134897E+03  0.00000000000E+00 0.  1.
         21   -1    0    0  501  502  0.00000000000E+00 -0.00000000000E+00 -0.51540586187E+02  0.51540586187E+02  0.00000000000E+00 0. -1.
         23    2    1    2    0    0 -0.69780358066E+02  0.40292029991E+02  0.26792299129E+03  0.29465603671E+03  0.92448389147E+02 0.  0.
         23    2    1    2    0    0  0.77791094211E+02 -0.14303928660E+02  0.10134606683E+03  0.15709520131E+03  0.90287431572E+02 0.  0.
        -11    1    3    3    0    0 -0.10170854074E+02 -0.29282257277E+02  0.65498424274E+02  0.72463373136E+02  0.00000000000E+00 0.  1.
         11    1    3    3    0    0 -0.59609503992E+02  0.69574287268E+02  0.20242456701E+03  0.22219266357E+03  0.00000000000E+00 0. -1.
        -13    1    4    4    0    0  0.92983173633E+01 -0.39653010396E+02  0.61879930304E+02  0.74080670310E+02  0.00000000000E+00 0.  1.
         13    1    4    4    0    0  0.68492776848E+02  0.25349081736E+02  0.39466136525E+02  0.83014531001E+02  0.00000000000E+00 0. -1.
         -3    1    1    2    0  502 -0.80107361452E+01 -0.25988101331E+02  0.76517046664E+01  0.28250697136E+02  0.00000000000E+00 0.  1.
<scales pt_clust_5="13000.00000" pt_clust_6="13000.00000" pt_clust_7="13000.00000" pt_clust_8="13000.00000" pt_clust_9="27.19473"></scales>
<clustering>
<clus scale="   27.195">  2  9  1 -1</clus>
<clus scale="   90.287">  7  8 -1 -1</clus>
<clus scale="   92.448">  5  6 -1 -1</clus>
<clus scale="  120.024">  2  7  1 -1</clus>
<clus scale="   27.195">  2  5  1 -1</clus>
</clustering>
</event>
<event>
 9    1  0.1426358E-005  0.1188042E+03  0.7546771E-02  0.1245509E+00
          1   -1    0    0  502    0 -0.00000000000E+00  0.00000000000E+00  0.10421335940E+03  0.10421335940E+03  0.00000000000E+00 0. -1.
         21   -1    0    0  501  502  0.00000000000E+00 -0.00000000000E+00 -0.21095785523E+03  0.21095785523E+03  0.00000000000E+00 0.  1.
         23    2    1    2    0    0 -0.52081469168E+02 -0.41308301323E+02 -0.35462561714E+02  0.11833450128E+03  0.91250236821E+02 0.  0.
         23    2    1    2    0    0  0.68012388471E+02  0.55951896743E+02 -0.99031464714E+02  0.16164771614E+03  0.92555137050E+02 0.  0.
        -11    1    4    4    0    0  0.76057501634E+02  0.35102215122E+02 -0.29818081959E+02  0.88915842644E+02  0.00000000000E+00 0.  1.
         11    1    4    4    0    0 -0.80451131631E+01  0.20849681621E+02 -0.69213382755E+02  0.72731873494E+02  0.00000000000E+00 0. -1.
        -13    1    3    3    0    0 -0.54649098097E+02 -0.20817566381E+02 -0.61656585547E+02  0.84978994664E+02  0.00000000000E+00 0.  1.
         13    1    3    3    0    0  0.25676289283E+01 -0.20490734942E+02  0.26194023833E+02  0.33355506612E+02  0.00000000000E+00 0. -1.
          1    1    1    2  501    0 -0.15930919303E+02 -0.14643595420E+02  0.27749530596E+02  0.35188997215E+02  0.00000000000E+00 0. -1.
<scales pt_clust_5="13000.00000" pt_clust_6="13000.00000" pt_clust_7="13000.00000" pt_clust_8="13000.00000" pt_clust_9="21.63861"></scales>
<clustering>
<clus scale="   21.639">  2  9  1 -1</clus>
<clus scale="   91.250">  7  8 -1 -1</clus>
<clus scale="   92.555">  5  6 -1 -1</clus>
<clus scale="  117.790">  1  7  2 -1</clus>
<clus scale="   21.639">  2  5  1 -1</clus>
</clustering>
</event>
<event>
 9    1  0.1426358E-005  0.9649755E+02  0.7546771E-02  0.1289059E+00
         21   -1    0    0  501  502  0.00000000000E+00  0.00000000000E+00  0.63777769310E+02  0.63777769310E+02  0.00000000000E+00 0.  1.
          1   -1    0    0  502    0 -0.00000000000E+00 -0.00000000000E+00 -0.31321199509E+03  0.31321199509E+03  0.00000000000E+00 0. -1.
         23    2    1    2    0    0  0.30035983652E+02 -0.28960756332E+01 -0.19051436890E+03  0.21320563678E+03  0.90831554146E+02 0.  0.
         23    2    1    2    0    0 -0.13665351074E+02 -0.24450941603E+02 -0.79717798427E+02  0.12572612799E+03  0.93099632162E+02 0.  0.
        -13    1    4    4    0    0 -0.33588198474E+02  0.14540212730E+02 -0.21626500123E+01  0.36664177585E+02  0.00000000000E+00 0.  1.
         13    1    4    4    0    0  0.19922847400E+02 -0.38991154333E+02 -0.77555148415E+02  0.89061950408E+02  0.00000000000E+00 0. -1.
        -13    1    3    3    0    0 -0.17418100531E+02 -0.29734151485E+02 -0.38290985131E+02  0.51514168273E+02  0.00000000000E+00 0.  1.
         13    1    3    3    0    0  0.47454084183E+02  0.26838075851E+02 -0.15222338377E+03  0.16169146851E+03  0.00000000000E+00 0. -1.
          1    1    1    2  501    0 -0.16370632579E+02  0.27347017236E+02  0.20797941551E+02  0.38057999625E+02  0.00000000000E+00 0. -1.
<scales pt_clust_5="13000.00000" pt_clust_6="13000.00000" pt_clust_7="13000.00000" pt_clust_8="13000.00000" pt_clust_9="31.87251"></scales>
<clustering>
<clus scale="   31.873">  1  9  2 -1</clus>
<clus scale="   90.832">  7  8 -1 -1</clus>
<clus scale="   93.100">  5  6 -1 -1</clus>
<clus scale="   94.311">  2  7  1 -1</clus>
<clus scale="   31.873">  1  5  2 -1</clus>
</clustering>
</event>
<event>
 9    1  0.1426358E-005  0.9297817E+02  0.7546771E-02  0.1296145E+00
          1   -1    0    0  502    0 -0.00000000000E+00  0.00000000000E+00  0.40666613791E+03  0.40666613791E+03  0.00000000000E+00 0. -1.
         21   -1    0    0  501  502  0.00000000000E+00 -0.00000000000E+00 -0.75168452374E+02  0.75168452374E+02  0.00000000000E+00 0. -1.
         23    2    1    2    0    0 -0.43574700163E+01 -0.10564475331E+02  0.29935829902E+03  0.31347280860E+03  0.92299592942E+02 0.  0.
         23    2    1    2    0    0  0.34748214287E+00 -0.39999125287E+02  0.52193121463E+02  0.11381904618E+03  0.92901036477E+02 0.  0.
        -11    1    4    4    0    0 -0.18377207603E+02 -0.47301694653E+02 -0.70739969708E+01  0.51236837426E+02  0.00000000000E+00 0. -1.
         11    1    4    4    0    0  0.18724689746E+02  0.73025693662E+01  0.59267118434E+02  0.62582208757E+02  0.00000000000E+00 0.  1.
        -11    1    3    3    0    0 -0.29801844096E+02  0.30582979894E+02  0.10908103782E+03  0.11714154422E+03  0.00000000000E+00 0.  1.
         11    1    3    3    0    0  0.25444374080E+02 -0.41147455225E+02  0.19027726120E+03  0.19633126438E+03  0.00000000000E+00 0. -1.
          1    1    1    2  501    0  0.40099878734E+01  0.50563600618E+02 -0.20053734948E+02  0.54542735497E+02  0.00000000000E+00 0. -1.
<scales pt_clust_5="13000.00000" pt_clust_6="13000.00000" pt_clust_7="13000.00000" pt_clust_8="13000.00000" pt_clust_9="50.72236"></scales>
<clustering>
<clus scale="   50.722">  2  9  1 -1</clus>
<clus scale="   92.300">  7  8 -1 -1</clus>
<clus scale="   92.377">  1  7  2 -1</clus>
<clus scale="   92.901">  5  6 -1 -1</clus>
<clus scale="   50.722">  2  5  1 -1</clus>
</clustering>
</event>
<event>
 9    1  0.1426358E-005  0.9466817E+02  0.7546771E-02  0.1293986E+00
         21   -1    0    0  501  502  0.00000000000E+00  0.00000000000E+00  0.90941066954E+02  0.90941066954E+02  0.00000000000E+00 0. -1.
          1   -1    0    0  502    0 -0.00000000000E+00 -0.00000000000E+00 -0.23537847682E+03  0.23537847682E+03  0.00000000000E+00 0. -1.
         23    2    1    2    0    0 -0.20483643589E+02 -0.23717234753E+02 -0.93413971227E+02  0.13578103994E+03  0.93425017570E+02 0.  0.
         23    2    1    2    0    0  0.77043990745E+01 -0.37196882768E+02 -0.75841480249E+02  0.12353272801E+03  0.89807788696E+02 0.  0.
        -11    1    4    4    0    0  0.20171487147E+02 -0.28213633121E+01  0.15205213052E+02  0.25417464244E+02  0.00000000000E+00 0.  1.
         11    1    4    4    0    0 -0.12467088072E+02 -0.34375519456E+02 -0.91046693301E+02  0.98115263766E+02  0.00000000000E+00 0. -1.
        -11    1    3    3    0    0  0.19555816360E+02  0.24038868368E+02 -0.11949641293E+02  0.33212814890E+02  0.00000000000E+00 0.  1.
         11    1    3    3    0    0 -0.40039459948E+02 -0.47756103122E+02 -0.81464329935E+02  0.10256822505E+03  0.00000000000E+00 0. -1.
          1    1    1    2  501    0  0.12779244514E+02  0.60914117521E+02  0.24818041614E+02  0.67005775820E+02  0.00000000000E+00 0. -1.
<scales pt_clust_5="13000.00000" pt_clust_6="13000.00000" pt_clust_7="13000.00000" pt_clust_8="13000.00000" pt_clust_9="62.24017"></scales>
<clustering>
<clus scale="   62.240">  1  9  2 -1</clus>
<clus scale="   89.808">  5  6 -1 -1</clus>
<clus scale="   91.100">  1  5  2 -1</clus>
<clus scale="   93.425">  7  8 -1 -1</clus>
<clus scale="   62.240">  1  5  2 -1</clus>
</clustering>
</event>
<event>
 9    1  0.1426358E-005  0.1228532E+03  0.7546771E-02  0.1240714E+00
          1   -1    0    0  502    0 -0.00000000000E+00  0.00000000000E+00  0.27448181238E+03  0.27448181238E+03  0.00000000000E+00 0. -1.
         21   -1    0    0  501  502  0.00000000000E+00 -0.00000000000E+00 -0.19867205042E+03  0.19867205042E+03  0.00000000000E+00 0.  1.
         23    2    1    2    0    0 -0.57527951431E+02  0.39676160978E+02  0.16203189165E+03  0.20155100872E+03  0.97390000818E+02 0.  0.
         23    2    1    2    0    0  0.13062291318E+03  0.23955033545E+02 -0.52440914161E+02  0.16897258140E+03  0.90363126919E+02 0.  0.
        -11    1    3    3    0    0 -0.71239567693E+02 -0.63721766283E+01  0.89878251307E+02  0.11486418370E+03  0.00000000000E+00 0.  1.
         11    1    3    3    0    0  0.13711616262E+02  0.46048337606E+02  0.72153640343E+02  0.86686825017E+02  0.00000000000E+00 0. -1.
        -11    1    4    4    0    0  0.28382500370E+02  0.44361144478E+02 -0.90037229823E+00  0.52671511625E+02  0.00000000000E+00 0. -1.
         11    1    4    4    0    0  0.10224041281E+03 -0.20406110933E+02 -0.51540541863E+02  0.11630106977E+03  0.00000000000E+00 0.  1.
          1    1    1    2  501    0 -0.73094961745E+02 -0.63631194523E+02 -0.33781215532E+02  0.10263027269E+03  0.00000000000E+00 0. -1.
<scales pt_clust_5="13000.00000" pt_clust_6="13000.00000" pt_clust_7="13000.00000" pt_clust_8="13000.00000" pt_clust_9="96.91131"></scales>
<clustering>
<clus scale="   90.363">  7  8 -1 -1</clus>
<clus scale="   96.911">  2  9  1 -1</clus>
<clus scale="   97.390">  5  6 -1 -1</clus>
<clus scale="  117.361">  2  7  1 -1</clus>
<clus scale="   96.911">  2  5  1 -1</clus>
</clustering>
</event>
<event>
 9    1  0.1426358E-005  0.1308024E+03  0.7546771E-02  0.1227743E+00
         21   -1    0    0  501  502  0.00000000000E+00  0.00000000000E+00  0.56642618903E+02  0.56642618903E+02  0.00000000000E+00 0. -1.
          1   -1    0    0  502    0 -0.00000000000E+00 -0.00000000000E+00 -0.39578652050E+03  0.39578652050E+03  0.00000000000E+00 0. -1.
         23    2    1    2    0    0 -0.72906416415E+01  0.10957960182E+03 -0.18837585067E+03  0.23655349786E+03  0.91712887004E+02 0.  0.
         23    2    1    2    0    0 -0.12564827169E+02 -0.77139492385E+02 -0.11884245515E+03  0.16621837614E+03  0.86003739769E+02 0.  0.
        -13    1    3    3    0    0  0.29090284682E+02  0.32757880309E+01 -0.26377128287E+02  0.39404674174E+02  0.00000000000E+00 0.  1.
         13    1    3    3    0    0 -0.36380926323E+02  0.10630381379E+03 -0.16199872238E+03  0.19714882368E+03  0.00000000000E+00 0. -1.
        -13    1    4    4    0    0 -0.49344793375E+02 -0.51299717774E+02 -0.69787885096E+02  0.99684093933E+02  0.00000000000E+00 0. -1.
         13    1    4    4    0    0  0.36779966206E+02 -0.25839774611E+02 -0.49054570052E+02  0.66534282209E+02  0.00000000000E+00 0.  1.
          1    1    1    2  501    0  0.19855468811E+02 -0.32440109431E+02 -0.31925595778E+02  0.49657265403E+02  0.00000000000E+00 0. -1.
<scales pt_clust_5="13000.00000" pt_clust_6="13000.00000" pt_clust_7="13000.00000" pt_clust_8="13000.00000" pt_clust_9="38.03420"></scales>
<clustering>
<clus scale="   38.034">  1  9  2 -1</clus>
<clus scale="   86.004">  7  8 -1 -1</clus>
<clus scale="   91.713">  5  6 -1 -1</clus>
<clus scale="  126.865">  1  7  2 -1</clus>
<clus scale="   38.034">  1  5  2 -1</clus>
</clustering>
</event>
<event>
 9    1  0.1426358E-005  0.1155169E+03  0.7546771E-02  0.1251378E+00
          3   -1    0    0  502    0 -0.00000000000E+00  0.00000000000E+00  0.34860703898E+03  0.34860703898E+03  0.00000000000E+00 0. -1.
         21   -1    0    0  501  502  0.00000000000E+00 -0.00000000000E+00 -0.55463748769E+02  0.55463748769E+02  0.00000000000E+00 0.  1.
         23    2    1    2    0    0 -0.34382603537E+02 -0.60857047764E+02  0.20008285625E+03  0.23054373344E+03  0.90727724399E+02 0.  0.
         23    2    1    2    0    0  0.57114123889E+02  0.42208657491E+02  0.78443560660E+02  0.14069205069E+03  0.92721448462E+02 0.  0.
        -11    1    4    4    0    0  0.25611443127E+02  0.64987073239E+02  0.73676363677E+02  0.10152572222E+03  0.00000000000E+00 0. -1.
         11    1    4    4    0    0  0.31502680762E+02 -0.22778415749E+02  0.47671969824E+01  0.39166328476E+02  0.00000000000E+00 0.  1.
        -13    1    3    3    0    0  0.31026741963E+02 -0.25434591002E+02  0.72463739347E+02  0.82828561840E+02  0.00000000000E+00 0.  1.
         13    1    3    3    0    0 -0.65409345500E+02 -0.35422456761E+02  0.12761911690E+03  0.14771517160E+03  0.00000000000E+00 0. -1.
          3    1    1    2  501    0 -0.22731520352E+02  0.18648390273E+02  0.14616873301E+02  0.32835003615E+02  0.00000000000E+00 0. -1.
<scales pt_clust_5="13000.00000" pt_clust_6="13000.00000" pt_clust_7="13000.00000" pt_clust_8="13000.00000" pt_clust_9="29.40212"></scales>
<clustering>
<clus scale="   29.402">  2  9  1 -1</clus>
<clus scale="   90.728">  7  8 -1 -1</clus>
<clus scale="   92.721">  5  6 -1 -1</clus>
<clus scale="  113.923">  1  7  2 -1</clus>
<clus scale="   29.402">  2  5  1 -1</clus>
</clustering>
</event>
<event>
 9    1  0.1426358E-005  0.1812584E+03  0.7546771E-02  0.1191527E+00
         21   -1    0    0  501  502  0.00000000000E+00  0.00000000000E+00  0.21164845751E+03  0.21164845751E+03  0.00000000000E+00 0. -1.
          1   -1    0    0  502    0 -0.00000000000E+00 -0.00000000000E+00 -0.46744198033E+03  0.46744198033E+03  0.00000000000E+00 0. -1.
         23    2    1    2    0    0  0.43357082826E+02 -0.19116122608E+02  0.11947727625E+02  0.10406636436E+03  0.91879253485E+02 0.  0.
         23    2    1    2    0    0 -0.12162761329E+03 -0.11691976946E+03 -0.34933395955E+03  0.39813594485E+03  0.89523776066E+02 0.  0.
        -11    1    4    4    0    0 -0.99433543575E+02 -0.33907326771E+02 -0.19032472860E+03  0.21739420120E+03  0.00000000000E+00 0.  1.
         11    1    4    4    0    0 -0.22194069714E+02 -0.83012442692E+02 -0.15900923095E+03  0.18074174365E+03  0.00000000000E+00 0. -1.
        -13    1    3    3    0    0  0.32160617659E+02 -0.54663608379E+02  0.18847942984E+02  0.66163890181E+02  0.00000000000E+00 0. -1.
         13    1    3    3    0    0  0.11196465167E+02  0.35547485770E+02 -0.69002153590E+01  0.37902474178E+02  0.00000000000E+00 0.  1.
          1    1    1    2  501    0  0.78270530463E+02  0.13603589207E+03  0.81592709112E+02  0.17688812863E+03  0.00000000000E+00 0. -1.
<scales pt_clust_5="13000.00000" pt_clust_6="13000.00000" pt_clust_7="13000.00000" pt_clust_8="13000.00000" pt_clust_9="157.60745"></scales>
<clustering>
<clus scale="   89.524">  5  6 -1 -1</clus>
<clus scale="   91.879">  7  8 -1 -1</clus>
<clus scale="  103.378">  2  7  1 -1</clus>
<clus scale="  157.607">  1  9  2 -1</clus>
<clus scale="  157.607">  1  5  2 -1</clus>
</clustering>
</event>
<event>
 9    1  0.1426358E-005  0.1109521E+03  0.7546771E-02  0.1264132E+00
         -1   -1    0    0    0  501 -0.00000000000E+00  0.00000000000E+00  0.20444626184E+03  0.20444626184E+03  0.00000000000E+00 0.  1.
         21   -1    0    0  501  502  0.00000000000E+00 -0.00000000000E+00 -0.13827306835E+03  0.13827306835E+03  0.00000000000E+00 0. -1.
         23    2    1    2    0    0 -0.53808431856E+02 -0.18128984026E+01  0.12823651492E+03  0.16048307633E+03  0.80072342841E+02 0.  0.
         23    2    1    2    0    0  0.89615344757E+02  0.18788786854E+01 -0.27270584810E+02  0.13230956875E+03  0.93422143985E+02 0.  0.
        -11    1    4    4    0    0  0.27362894017E+02  0.45554409606E+02 -0.69295015593E+01  0.53590579353E+02  0.00000000000E+00 0.  1.
         11    1    4    4    0    0  0.62252450740E+02 -0.43675530921E+02 -0.20341083250E+02  0.78718989400E+02  0.00000000000E+00 0. -1.
        -11    1    3    3    0    0 -0.38500768937E+02  0.12607566193E+02  0.13290362169E+03  0.13894111196E+03  0.00000000000E+00 0.  1.
         11    1    3    3    0    0 -0.15307662918E+02 -0.14420464595E+02 -0.46671067680E+01  0.21541964366E+02  0.00000000000E+00 0. -1.
         -1    1    1    2    0  502 -0.35806912901E+02 -0.65980282833E-01 -0.34792736616E+02  0.49926685111E+02  0.00000000000E+00 0.  1.
<scales pt_clust_5="13000.00000" pt_clust_6="13000.00000" pt_clust_7="13000.00000" pt_clust_8="13000.00000" pt_clust_9="35.80697"></scales>
<clustering>
<clus scale="   35.807">  2  9  1 -1</clus>
<clus scale="   80.072">  7  8 -1 -1</clus>
<clus scale="   93.422">  5  6 -1 -1</clus>
<clus scale="   99.971">  1  7  2 -1</clus>
<clus scale="   35.807">  2  5  1 -1</clus>
</clustering>
</event>
<event>
 9    1  0.1426358E-005  0.1411876E+03  0.7546771E-02  0.1213292E+00
         -1   -1    0    0    0  501 -0.00000000000E+00  0.00000000000E+00  0.14082294772E+03  0.14082294772E+03  0.00000000000E+00 0.  1.
         21   -1    0    0  501  502  0.00000000000E+00 -0.00000000000E+00 -0.16456008458E+03  0.16456008458E+03  0.00000000000E+00 0. -1.
         23    2    1    2    0    0 -0.95882707512E+02 -0.43692526666E+02  0.78557371460E+01  0.13543114638E+03  0.84719255888E+02 0.  0.
         23    2    1    2    0    0  0.89934832985E+02  0.64971160673E+02 -0.32995394916E+02  0.14781312937E+03  0.91926596944E+02 0.  0.
        -13    1    3    3    0    0 -0.22329889928E+02 -0.37097576076E+02  0.36091965965E+02  0.56369177235E+02  0.00000000000E+00 0. -1.
         13    1    3    3    0    0 -0.73552817584E+02 -0.65949505907E+01 -0.28236228819E+02  0.79061969149E+02  0.00000000000E+00 0.  1.
        -13    1    4    4    0    0  0.78123046575E+02  0.16241108360E+02  0.11695665679E+02  0.80645970777E+02  0.00000000000E+00 0.  1.
         13    1    4    4    0    0  0.11811786410E+02  0.48730052313E+02 -0.44691060594E+02  0.67167158594E+02  0.00000000000E+00 0. -1.
         -1    1    1    2    0  502  0.59478745267E+01 -0.21278634006E+02  0.14025209093E+01  0.22138756547E+02  0.00000000000E+00 0.  1.
<scales pt_clust_5="13000.00000" pt_clust_6="13000.00000" pt_clust_7="13000.00000" pt_clust_8="13000.00000" pt_clust_9="22.09430"></scales>
<clustering>
<clus scale="   22.094">  2  9  1 -1</clus>
<clus scale="   84.719">  5  6 -1 -1</clus>
<clus scale="   91.927">  7  8 -1 -1</clus>
<clus scale="  136.605">  1  5  2 -1</clus>
<clus scale="   22.094">  2  5  1 -1</clus>
</clustering>
</event>
<event>
 9    1  0.1426358E-005  0.1209725E+03  0.7546771E-02  0.1241950E+00
         21   -1    0    0  501  502  0.00000000000E+00  0.00000000000E+00  0.59290498579E+03  0.59290498579E+03  0.00000000000E+00 0. -1.
          1   -1    0    0  502    0 -0.00000000000E+00 -0.00000000000E+00 -0.44521922299E+03  0.44521922299E+03  0.00000000000E+00 0. -1.
         23    2    1    2    0    0 -0.91269524338E+02  0.36169956687E+02 -0.29438687921E+03  0.32371185217E+03  0.92126742826E+02 0.  0.
         23    2    1    2    0    0  0.47862619006E+02  0.77336703465E+02 -0.97674894598E+02  0.16115353417E+03  0.90323200460E+02 0.  0.
        -11    1    3    3    0    0 -0.64964893835E+02  0.17391963575E+01 -0.26111797032E+03  0.26908373540E+03  0.00000000000E+00 0. -1.
         11    1    3    3    0    0 -0.26304630503E+02  0.34430760329E+02 -0.33268908897E+02  0.54628116771E+02  0.00000000000E+00 0.  1.
        -13    1    4    4    0    0  0.11207266684E+02  0.75755719290E+02 -0.98112845527E+02  0.12446148918E+03  0.00000000000E+00 0.  1.
         13    1    4    4    0    0  0.36655352321E+02  0.15809841749E+01  0.43795092954E+00  0.36692044993E+02  0.00000000000E+00 0. -1.
          1    1    1    2  501    0  0.43406905333E+02 -0.11350666015E+03  0.53974753660E+03  0.55325882243E+03  0.00000000000E+00 0. -1.
<scales pt_clust_5="13000.00000" pt_clust_6="13000.00000" pt_clust_7="13000.00000" pt_clust_8="13000.00000" pt_clust_9="121.52334"></scales>
<clustering>
<clus scale="   90.323">  7  8 -1 -1</clus>
<clus scale="   92.127">  5  6 -1 -1</clus>
<clus scale="  121.523">  1  9  2 -1</clus>
<clus scale="  121.523">  1  7  2 -1</clus>
<clus scale="  120.972">  1  5  2 -1</clus>
</clustering>
</event>
<event>
 9    1  0.1426358E-005  0.1308266E+03  0.7546771E-02  0.1229407E+00
          2   -1    0    0  502    0 -0.00000000000E+00  0.00000000000E+00  0.26913544537E+03  0.26913544537E+03  0.00000000000E+00 0. -1.
         21   -1    0    0  501  502  0.00000000000E+00 -0.00000000000E+00 -0.74399363472E+02  0.74399363472E+02  0.00000000000E+00 0.  1.
         23    2    1    2    0    0 -0.54998709965E+02  0.48957681904E+02  0.10820497526E+03  0.16655922132E+03  0.10301429426E+03 0.  0.
         23    2    1    2    0    0  0.53148479693E+02 -0.73766278854E+02  0.72001836585E+02  0.14816604877E+03  0.92210025195E+02 0.  0.
        -13    1    4    4    0    0  0.23188029230E+02 -0.84188828880E+02  0.23881003578E+02  0.90530359215E+02  0.00000000000E+00 0.  1.
         13    1    4    4    0    0  0.29960450464E+02  0.10422550026E+02  0.48120833008E+02  0.57635689554E+02  0.00000000000E+00 0. -1.
        -13    1    3    3    0    0  0.15794251744E+02 -0.21506742397E+02  0.24868913535E+02  0.36475487894E+02  0.00000000000E+00 0.  1.
         13    1    3    3    0    0 -0.70792961709E+02  0.70464424301E+02  0.83336061722E+02  0.13008373343E+03  0.00000000000E+00 0. -1.
          2    1    1    2  501    0  0.18502302721E+01  0.24808596950E+02  0.14529270059E+02  0.28809538753E+02  0.00000000000E+00 0. -1.
<scales pt_clust_5="13000.00000" pt_clust_6="13000.00000" pt_clust_7="13000.00000" pt_clust_8="13000.00000" pt_clust_9="24.87750"></scales>
<clustering>
<clus scale="   24.877">  2  9  1 -1</clus>
<clus scale="   92.210">  5  6 -1 -1</clus>
<clus scale="  103.014">  7  8 -1 -1</clus>
<clus scale="  122.500">  2  5  1 -1</clus>
<clus scale="   24.877">  2  5  1 -1</clus>
</clustering>
</event>
<event>
 9    1  0.1426358E-005  0.9405514E+02  0.7546771E-02  0.1294230E+00
          1   -1    0    0  502    0 -0.00000000000E+00  0.00000000000E+00  0.25527172251E+03  0.25527172251E+03  0.00000000000E+00 0. -1.
         21   -1    0    0  501  502  0.00000000000E+00 -0.00000000000E+00 -0.10906787850E+03  0.10906787850E+03  0.00000000000E+00 0. -1.
         23    2    1    2    0    0 -0.11354364064E+01  0.13312285419E+02  0.16279375924E+03  0.18693953763E+03  0.90917965905E+02 0.  0.
         23    2    1    2    0    0  0.24793143336E+02 -0.19110305577E+02  0.47661689575E+02  0.10868636129E+03  0.92526670440E+02 0.  0.
        -11    1    4    4    0    0  0.50761485430E+02 -0.23239947587E+02  0.18432688357E+01  0.55858940259E+02  0.00000000000E+00 0.  1.
         11    1    4    4    0    0 -0.25968342094E+02  0.41296420103E+01  0.45818420739E+02  0.52827421036E+02  0.00000000000E+00 0. -1.
        -11    1    3    3    0    0  0.30677926612E+02  0.39936365685E+02  0.92355908955E+02  0.10519345229E+03  0.00000000000E+00 0.  1.
         11    1    3    3    0    0 -0.31813363018E+02 -0.26624080266E+02  0.70437850282E+02  0.81746085343E+02  0.00000000000E+00 0. -1.
          1    1    1    2  501    0 -0.23657706930E+02  0.57980201581E+01 -0.64251604796E+02  0.68713702082E+02  0.00000000000E+00 0. -1.
<scales pt_clust_5="13000.00000" pt_clust_6="13000.00000" pt_clust_7="13000.00000" pt_clust_8="13000.00000" pt_clust_9="24.35784"></scales>
<clustering>
<clus scale="   24.358">  2  9  1 -1</clus>
<clus scale="   90.918">  7  8 -1 -1</clus>
<clus scale="   92.473">  1  7  2 -1</clus>
<clus scale="   92.527">  5  6 -1 -1</clus>
<clus scale="   24.358">  2  5  1 -1</clus>
</clustering>
</event>
<event>
 9    1  0.1426358E-005  0.1083066E+03  0.7546771E-02  0.1275732E+00
         21   -1    0    0  501  502  0.00000000000E+00  0.00000000000E+00  0.68566450937E+02  0.68566450937E+02  0.00000000000E+00 0. -1.
          2   -1    0    0  502    0 -0.00000000000E+00 -0.00000000000E+00 -0.26348968781E+03  0.26348968781E+03  0.00000000000E+00 0. -1.
         23    2    1    2    0    0  0.57458254721E+02 -0.31370116274E+02 -0.12910486456E+03  0.17146887391E+03  0.91912857847E+02 0.  0.
         23    2    1    2    0    0 -0.56191208528E+02 -0.25950791735E+02 -0.43341136883E+02  0.99003841630E+02  0.63971954821E+02 0.  0.
        -13    1    3    3    0    0 -0.14139463548E+02 -0.32553899461E+02 -0.19360820663E+02  0.40429224285E+02  0.00000000000E+00 0. -1.
         13    1    3    3    0    0  0.71597718269E+02  0.11837831867E+01 -0.10974404389E+03  0.13103964963E+03  0.00000000000E+00 0.  1.
        -13    1    4    4    0    0 -0.26594863638E+02 -0.38138523356E+02 -0.47804453234E+02  0.66686576496E+02  0.00000000000E+00 0. -1.
         13    1    4    4    0    0 -0.29596344890E+02  0.12187731621E+02  0.44633163505E+01  0.32317265135E+02  0.00000000000E+00 0.  1.
          2    1    1    2  501    0 -0.12670461929E+01  0.57320908010E+02 -0.22477235433E+02  0.61583423206E+02  0.00000000000E+00 0. -1.
<scales pt_clust_5="13000.00000" pt_clust_6="13000.00000" pt_clust_7="13000.00000" pt_clust_8="13000.00000" pt_clust_9="57.33491"></scales>
<clustering>
<clus scale="   57.335">  1  9  2 -1</clus>
<clus scale="   63.972">  7  8 -1 -1</clus>
<clus scale="   85.876">  1  7  2 -1</clus>
<clus scale="   91.913">  5  6 -1 -1</clus>
<clus scale="   57.335">  1  5  2 -1</clus>
</clustering>
</event>
<event>
 9    1  0.1426358E-005  0.1464117E+03  0.7546771E-02  0.1205876E+00
         21   -1    0    0  501  502  0.00000000000E+00  0.00000000000E+00  0.18803184950E+03  0.18803184950E+03  0.00000000000E+00 0. -1.
          2   -1    0    0  502    0 -0.00000000000E+00 -0.00000000000E+00 -0.23608220114E+03  0.23608220114E+03  0.00000000000E+00 0. -1.
         23    2    1    2    0    0 -0.32907549310E+01 -0.11817504832E+03 -0.11834510233E+03  0.19218368160E+03  0.94619411944E+02 0.  0.
         23    2    1    2    0    0  0.55032288831E+02  0.93595055144E+02 -0.20728200450E+00  0.14109040532E+03  0.90099236098E+02 0.  0.
        -13    1    4    4    0    0  0.16009057202E+02  0.99183372656E+02 -0.84317702290E+01  0.10082026618E+03  0.00000000000E+00 0. -1.
         13    1    4    4    0    0  0.39023231629E+02 -0.55883175123E+01  0.82244882245E+01  0.40270139135E+02  0.00000000000E+00 0.  1.
        -13    1    3    3    0    0 -0.38697065333E+02 -0.25341515309E+02 -0.63908286768E+02  0.78891852438E+02  0.00000000000E+00 0. -1.
         13    1    3    3    0    0  0.35406310402E+02 -0.92833533010E+02 -0.54436815562E+02  0.11329182917E+03  0.00000000000E+00 0.  1.
          2    1    1    2  501    0 -0.51741533900E+02  0.24579993175E+02  0.70502032687E+02  0.90839963715E+02  0.00000000000E+00 0. -1.
<scales pt_clust_5="13000.00000" pt_clust_6="13000.00000" pt_clust_7="13000.00000" pt_clust_8="13000.00000" pt_clust_9="57.28318"></scales>
<clustering>
<clus scale="   57.283">  1  9  2 -1</clus>
<clus scale="   90.099">  5  6 -1 -1</clus>
<clus scale="   94.619">  7  8 -1 -1</clus>
<clus scale="  143.532">  1  5  2 -1</clus>
<clus scale="   57.283">  1  5  2 -1</clus>
</clustering>
</event>
<event>
 9    1  0.1426358E-005  0.1285002E+03  0.7546771E-02  0.1231994E+00
          1   -1    0    0  502    0 -0.00000000000E+00  0.00000000000E+00  0.35731037677E+03  0.35731037677E+03  0.00000000000E+00 0. -1.
         21   -1    0    0  501  502  0.00000000000E+00 -0.00000000000E+00 -0.18541581046E+03  0.18541581046E+03  0.00000000000E+00 0.  1.
         23    2    1    2    0    0 -0.10502650824E+02 -0.74919091954E+02  0.15338807215E+03  0.19228963657E+03  0.87887585248E+02 0.  0.
         23    2    1    2    0    0 -0.37255131415E+01  0.16250738058E+03 -0.90935215639E+02  0.20954071397E+03  0.95997756086E+02 0.  0.
        -11    1    3    3    0    0  0.23058535799E+02 -0.59741300127E+02  0.46237697976E+02  0.78985085479E+02  0.00000000000E+00 0. -1.
         11    1    3    3    0    0 -0.33561186624E+02 -0.15177791828E+02  0.10715037417E+03  0.11330455109E+03  0.00000000000E+00 0.  1.
        -13    1    4    4    0    0 -0.22523652616E+02  0.10569660067E+03 -0.95040610190E+01  0.10848692777E+03  0.00000000000E+00 0. -1.
         13    1    4    4    0    0  0.18798139475E+02  0.56810779910E+02 -0.81431154620E+02  0.10105378620E+03  0.00000000000E+00 0.  1.
          1    1    1    2  501    0  0.14228163966E+02 -0.87588288629E+02  0.10944170980E+03  0.14089583670E+03  0.00000000000E+00 0. -1.
<scales pt_clust_5="13000.00000" pt_clust_6="13000.00000" pt_clust_7="13000.00000" pt_clust_8="13000.00000" pt_clust_9="88.73645"></scales>
<clustering>
<clus scale="   87.888">  5  6 -1 -1</clus>
<clus scale="   88.736">  2  9  1 -1</clus>
<clus scale="   95.998">  7  8 -1 -1</clus>
<clus scale="  122.560">  1  5  2 -1</clus>
<clus scale="   88.736">  2  5  1 -1</clus>
</clustering>
</event>
<event>
 9    1  0.1426358E-005  0.1502391E+03  0.7546771E-02  0.1201370E+00
          2   -1    0    0  502    0 -0.00000000000E+00  0.00000000000E+00  0.63310966758E+03  0.63310966758E+03  0.00000000000E+00 0. -1.
         21   -1    0    0  501  502  0.00000000000E+00 -0.00000000000E+00 -0.69076330944E+02  0.69076330944E+02  0.00000000000E+00 0.  1.
         23    2    1    2    0    0 -0.10985803601E+03 -0.23030093226E+02  0.40347708896E+03  0.43010155504E+03  0.97951074837E+02 0.  0.
         23    2    1    2    0    0  0.12436469404E+03 -0.34994977583E+02  0.12919528706E+03  0.20455029049E+03  0.91968329132E+02 0.  0.
        -13    1    3    3    0    0  0.13579446450E+02 -0.19525289236E+02  0.44162963044E+02  0.50159800543E+02  0.00000000000E+00 0.  1.
         13    1    3    3    0    0 -0.12343748246E+03 -0.35048039895E+01  0.35931412592E+03  0.37994175450E+03  0.00000000000E+00 0. -1.
        -13    1    4    4    0    0  0.11094249824E+03 -0.59794606569E+02  0.84615574816E+02  0.15180062052E+03  0.00000000000E+00 0.  1.
         13    1    4    4    0    0  0.13422195796E+02  0.24799628987E+02  0.44579712245E+02  0.52749669967E+02  0.00000000000E+00 0. -1.
          2    1    1    2  501    0 -0.14506658021E+02  0.58025070808E+02  0.31360960612E+02  0.67534152987E+02  0.00000000000E+00 0. -1.
<scales pt_clust_5="13000.00000" pt_clust_6="13000.00000" pt_clust_7="13000.00000" pt_clust_8="13000.00000" pt_clust_9="59.81097"></scales>
<clustering>
<clus scale="   59.811">  2  9  1 -1</clus>
<clus scale="   91.968">  7  8 -1 -1</clus>
<clus scale="   97.951">  5  6 -1 -1</clus>
<clus scale="  146.409">  2  7  1 -1</clus>
<clus scale="   59.811">  2  5  1 -1</clus>
</clustering>
</event>
<event>
 9    1  0.1426358E-005  0.1111754E+03  0.7546771E-02  0.1261631E+00
          1   -1    0    0  502    0 -0.00000000000E+00  0.00000000000E+00  0.75150707737E+03  0.75150707737E+03  0.00000000000E+00 0. -1.
         21   -1    0    0  501  502  0.00000000000E+00 -0.00000000000E+00 -0.24307611033E+02  0.24307611033E+02  0.00000000000E+00 0.  1.
         23    2    1    2    0    0 -0.50221156749E+02 -0.42598308068E+02  0.49534563845E+03  0.50658835216E+03  0.83232665324E+02 0.  0.
         23    2    1    2    0    0  0.57165338876E+02  0.16368833790E+02  0.19415859369E+03  0.22278134010E+03  0.91641427864E+02 0.  0.
        -13    1    4    4    0    0  0.67119233996E+02 -0.79219809606E+01  0.18142528040E+03  0.19360496306E+03  0.00000000000E+00 0.  1.
         13    1    4    4    0    0 -0.99538951204E+01  0.24290814751E+02  0.12733313296E+02  0.29176377034E+02  0.00000000000E+00 0. -1.
        -13    1    3    3    0    0  0.22350643941E+02 -0.89778699091E+00  0.97351194638E+02  0.99887999296E+02  0.00000000000E+00 0.  1.
         13    1    3    3    0    0 -0.72571800691E+02 -0.41700521077E+02  0.39799444382E+03  0.40670035287E+03  0.00000000000E+00 0. -1.
          1    1    1    2  501    0 -0.69441821268E+01  0.26229474278E+02  0.37695234194E+02  0.46444996148E+02  0.00000000000E+00 0. -1.
<scales pt_clust_5="13000.00000" pt_clust_6="13000.00000" pt_clust_7="13000.00000" pt_clust_8="13000.00000" pt_clust_9="27.13313"></scales>
<clustering>
<clus scale="   27.133">  2  9  1 -1</clus>
<clus scale="   83.233">  7  8 -1 -1</clus>
<clus scale="   91.641">  5  6 -1 -1</clus>
<clus scale="  104.353">  1  7  2 -1</clus>
<clus scale="   27.133">  2  5  1 -1</clus>
</clustering>
</event>
<event>
 9    1  0.1426358E-005  0.1005735E+03  0.7546771E-02  0.1279502E+00
         21   -1    0    0  501  502  0.00000000000E+00  0.00000000000E+00  0.25021414507E+03  0.25021414507E+03  0.00000000000E+00 0. -1.
          1   -1    0    0  502    0 -0.00000000000E+00 -0.00000000000E+00 -0.10436226681E+03  0.10436226681E+03  0.00000000000E+00 0. -1.
         23    2    1    2    0    0 -0.48239071681E+02 -0.29489881562E+02 -0.17533055224E+02  0.10768612463E+03  0.89956835544E+02 0.  0.
         23    2    1    2    0    0  0.11349728846E+02  0.28129472043E+02  0.18685395551E+02  0.97556330598E+02  0.90818555871E+02 0.  0.
        -13    1    3    3    0    0 -0.54412286292E+00 -0.46729946841E+02  0.12976344879E+02  0.48501232231E+02  0.00000000000E+00 0.  1.
         13    1    3    3    0    0 -0.47694948818E+02  0.17240065280E+02 -0.30509400103E+02  0.59184892399E+02  0.00000000000E+00 0. -1.
        -13    1    4    4    0    0  0.41281040700E+02  0.41672788917E+02 -0.20736081864E+01  0.58694510035E+02  0.00000000000E+00 0. -1.
         13    1    4    4    0    0 -0.29931311854E+02 -0.13543316874E+02  0.20759003738E+02  0.38861820562E+02  0.00000000000E+00 0.  1.
          1    1    1    2  501    0  0.36889342835E+02  0.13604095190E+01  0.14469953794E+03  0.14933395665E+03  0.00000000000E+00 0. -1.
<scales pt_clust_5="13000.00000" pt_clust_6="13000.00000" pt_clust_7="13000.00000" pt_clust_8="13000.00000" pt_clust_9="36.91442"></scales>
<clustering>
<clus scale="   36.914">  1  9  2 -1</clus>
<clus scale="   89.957">  5  6 -1 -1</clus>
<clus scale="   90.819">  7  8 -1 -1</clus>
<clus scale="   99.796">  2  5  1 -1</clus>
<clus scale="   36.914">  1  5  2 -1</clus>
</clustering>
</event>
<event>
 9    1  0.1426358E-005  0.1799713E+03  0.7546771E-02  0.1196791E+00
         21   -1    0    0  501  502  0.00000000000E+00  0.00000000000E+00  0.65662706244E+03  0.65662706244E+03  0.00000000000E+00 0. -1.
          4   -1    0    0  502    0 -0.00000000000E+00 -0.00000000000E+00 -0.12651664385E+03  0.12651664385E+03  0.00000000000E+00 0. -1.
         23    2    1    2    0    0  0.13438670207E+02 -0.28585338666E+02 -0.54013514791E+02  0.10849579043E+03  0.88634966669E+02 0.  0.
         23    2    1    2    0    0 -0.79451635444E+02  0.15368314591E+03  0.33551713351E+03  0.38861904687E+03  0.92314381312E+02 0.  0.
        -11    1    3    3    0    0  0.29504105057E+02  0.13354356475E+02 -0.54712419097E+02  0.63578926191E+02  0.00000000000E+00 0.  1.
         11    1    3    3    0    0 -0.16065434851E+02 -0.41939695141E+02  0.69890430647E+00  0.44916864235E+02  0.00000000000E+00 0. -1.
        -11    1    4    4    0    0 -0.61246584228E+02  0.14206805130E+03  0.33260994954E+03  0.36682946148E+03  0.00000000000E+00 0. -1.
         11    1    4    4    0    0 -0.18205051216E+02  0.11615094615E+02  0.29071839735E+01  0.21789585387E+02  0.00000000000E+00 0.  1.
          4    1    1    2  501    0  0.66012965237E+02 -0.12509780724E+03  0.24860679987E+03  0.28602886899E+03  0.00000000000E+00 0. -1.
<scales pt_clust_5="13000.00000" pt_clust_6="13000.00000" pt_clust_7="13000.00000" pt_clust_8="13000.00000" pt_clust_9="154.49177"></scales>
<clustering>
<clus scale="   88.635">  5  6 -1 -1</clus>
<clus scale="   92.314">  7  8 -1 -1</clus>
<clus scale="   94.095">  2  5  1 -1</clus>
<clus scale="  154.492">  1  9  2 -1</clus>
<clus scale="  154.492">  1  5  2 -1</clus>
</clustering>
</event>
<event>
 9    1  0.1426358E-005  0.9829913E+02  0.7546771E-02  0.1285069E+00
         21   -1    0    0  501  502  0.00000000000E+00  0.00000000000E+00  0.10369300155E+03  0.10369300155E+03  0.00000000000E+00 0. -1.
         -4   -1    0    0    0  501 -0.00000000000E+00 -0.00000000000E+00 -0.20249113236E+03  0.20249113236E+03  0.00000000000E+00 0.  1.
         23    2    1    2    0    0  0.26856475009E+02  0.12550650115E+02 -0.11308476715E+03  0.14838921791E+03  0.91391500500E+02 0.  0.
         23    2    1    2    0    0 -0.47358475963E+02 -0.16970908061E+02 -0.31805555660E+02  0.10715539698E+03  0.89105829018E+02 0.  0.
        -11    1    4    4    0    0 -0.42539210331E+02  0.27575619756E+02  0.24502586228E+01  0.50754339596E+02  0.00000000000E+00 0. -1.
         11    1    4    4    0    0 -0.48192656327E+01 -0.44546527817E+02 -0.34255814283E+02  0.56401057383E+02  0.00000000000E+00 0.  1.
        -13    1    3    3    0    0 -0.26737010594E+02 -0.13777471403E+02 -0.65361543492E+02  0.71950106473E+02  0.00000000000E+00 0. -1.
         13    1    3    3    0    0  0.53593485602E+02  0.26328121518E+02 -0.47723223657E+02  0.76439111441E+02  0.00000000000E+00 0.  1.
         -4    1    1    2    0  502  0.20502000954E+02  0.44202579465E+01  0.46092192002E+02  0.50639519024E+02  0.00000000000E+00 0.  1.
<scales pt_clust_5="13000.00000" pt_clust_6="13000.00000" pt_clust_7="13000.00000" pt_clust_8="13000.00000" pt_clust_9="20.97310"></scales>
<clustering>
<clus scale="   20.973">  1  9  2 -1</clus>
<clus scale="   89.106">  5  6 -1 -1</clus>
<clus scale="   91.392">  7  8 -1 -1</clus>
<clus scale="   96.178">  1  5  2 -1</clus>
<clus scale="   20.973">  1  5  2 -1</clus>
</clustering>
</event>
<event>
 9    1  0.1426358E-005  0.9420517E+02  0.7546771E-02  0.1293683E+00
         21   -1    0    0  501  502  0.00000000000E+00  0.00000000000E+00  0.23025430305E+02  0.23025430305E+02  0.00000000000E+00 0. -1.
          1   -1    0    0  502    0 -0.00000000000E+00 -0.00000000000E+00 -0.57229988856E+03  0.57229988856E+03  0.00000000000E+00 0. -1.
         23    2    1    2    0    0  0.71998733591E+01 -0.14714848464E+02 -0.25741647881E+03  0.27367334950E+03  0.91463072996E+02 0.  0.
         23    2    1    2    0    0  0.28070696720E+02  0.13403422693E+02 -0.23743429759E+03  0.25678541328E+03  0.92715085334E+02 0.  0.
        -13    1    4    4    0    0 -0.84975842197E+01 -0.23376547383E+02 -0.16507975106E+02  0.29852724285E+02  0.00000000000E+00 0.  1.
         13    1    4    4    0    0  0.36568280940E+02  0.36779970076E+02 -0.22092632248E+03  0.22693268899E+03  0.00000000000E+00 0. -1.
        -13    1    3    3    0    0 -0.29602471405E+02 -0.25657261079E+02 -0.20494216489E+03  0.20865256363E+03  0.00000000000E+00 0.  1.
         13    1    3    3    0    0  0.36802344764E+02  0.10942412615E+02 -0.52474313927E+02  0.65020785877E+02  0.00000000000E+00 0. -1.
          1    1    1    2  501    0 -0.35270570079E+02  0.13114257710E+01 -0.54423681852E+02  0.64866556080E+02  0.00000000000E+00 0. -1.
<scales pt_clust_5="13000.00000" pt_clust_6="13000.00000" pt_clust_7="13000.00000" pt_clust_8="13000.00000" pt_clust_9="35.29494"></scales>
<clustering>
<clus scale="   35.295">  1  9  2 -1</clus>
<clus scale="   91.463">  7  8 -1 -1</clus>
<clus scale="   92.715">  5  6 -1 -1</clus>
<clus scale="   92.973">  2  7  1 -1</clus>
<clus scale="   35.295">  1  5  2 -1</clus>
</clustering>
</event>
<event>
 9    1  0.5195508E-005  0.1652587E+03  0.7546771E-02  0.1182962E+00
          2   -1    0    0  502    0 -0.00000000000E+00  0.00000000000E+00  0.41416324369E+03  0.41416324369E+03  0.00000000000E+00 0. -1.
         21   -1    0    0  501  502  0.00000000000E+00 -0.00000000000E+00 -0.48062288225E+03  0.48062288225E+03  0.00000000000E+00 0.  1.
         23    2    1    2    0    0 -0.13241437710E+03 -0.31107309350E+02  0.35699529105E+03  0.39284247299E+03  0.91533266053E+02 0.  0.
         23    2    1    2    0    0  0.17076757663E+03  0.43255964837E+02 -0.41625992913E+03  0.46107403372E+03  0.91018087479E+02 0.  0.
        -13    1    4    4    0    0  0.17303118069E+03  0.19468287126E+02 -0.37340873774E+03  0.41201078762E+03  0.00000000000E+00 0.  1.
         13    1    4    4    0    0 -0.22636040599E+01  0.23787677711E+02 -0.42851191393E+02  0.49063246102E+02  0.00000000000E+00 0. -1.
        -13    1    3    3    0    0 -0.75885688899E+02 -0.54082676260E+02  0.14602414722E+03  0.17322420507E+03  0.00000000000E+00 0.  1.
         13    1    3    3    0    0 -0.56528688204E+02  0.22975366910E+02  0.21097114383E+03  0.21961826792E+03  0.00000000000E+00 0. -1.
          2    1    1    2  501    0 -0.38353199525E+02 -0.12148655487E+02 -0.71950004735E+01  0.40869619227E+02  0.00000000000E+00 0. -1.
<scales pt_clust_5="13000.00000" pt_clust_6="13000.00000" pt_clust_7="13000.00000" pt_clust_8="13000.00000" pt_clust_9="40.23130"></scales>
<clustering>
<clus scale="   40.231">  2  9  1 -1</clus>
<clus scale="   91.018">  5  6 -1 -1</clus>
<clus scale="   91.533">  7  8 -1 -1</clus>
<clus scale="  164.974">  2  5  1 -1</clus>
<clus scale="   40.231">  2  5  1 -1</clus>
</clustering>
</event>
<event>
 9    1  0.1426358E-005  0.2424404E+03  0.7546771E-02  0.1118922E+00
          1   -1    0    0  502    0 -0.00000000000E+00  0.00000000000E+00  0.94017207641E+03  0.94017207641E+03  0.00000000000E+00 0. -1.
         21   -1    0    0  501  502  0.00000000000E+00 -0.00000000000E+00 -0.91940627637E+02  0.91940627637E+02  0.00000000000E+00 0.  1.
         23    2    1    2    0    0 -0.12992301558E+03 -0.18695006431E+03  0.68885081791E+03  0.73250335805E+03  0.10107128022E+03 0.  0.
         23    2    1    2    0    0  0.10614344815E+03  0.16799482652E+03  0.11704832933E+03  0.24748648518E+03  0.89780597159E+02 0.  0.
        -13    1    4    4    0    0  0.30742421451E+02  0.48408200858E+02  0.84985969741E+02  0.10252348726E+03  0.00000000000E+00 0. -1.
         13    1    4    4    0    0  0.75401026700E+02  0.11958662566E+03  0.32062359589E+02  0.14496299792E+03  0.00000000000E+00 0.  1.
        -13    1    3    3    0    0 -0.11253039804E+03 -0.85930191373E+02  0.32530005001E+03  0.35477769210E+03  0.00000000000E+00 0. -1.
         13    1    3    3    0    0 -0.17392617539E+02 -0.10101987294E+03  0.36355076790E+03  0.37772566595E+03  0.00000000000E+00 0.  1.
          1    1    1    2  501    0  0.23779567433E+02  0.18955237794E+02  0.42332301524E+02  0.52122860814E+02  0.00000000000E+00 0. -1.
<scales pt_clust_5="13000.00000" pt_clust_6="13000.00000" pt_clust_7="13000.00000" pt_clust_8="13000.00000" pt_clust_9="30.41001"></scales>
<clustering>
<clus scale="   30.410">  2  9  1 -1</clus>
<clus scale="   89.781">  5  6 -1 -1</clus>
<clus scale="  101.071">  7  8 -1 -1</clus>
<clus scale="  237.955">  2  5  1 -1</clus>
<clus scale="   30.410">  2  5  1 -1</clus>
</clustering>
</event>
<event>
 9    1  0.1426358E-005  0.9818193E+02  0.7546771E-02  0.1287246E+00
         21   -1    0    0  501  502  0.00000000000E+00  0.00000000000E+00  0.84771851218E+02  0.84771851218E+02  0.00000000000E+00 0.  1.
          3   -1    0    0  502    0 -0.00000000000E+00 -0.00000000000E+00 -0.27636191530E+03  0.27636191530E+03  0.00000000000E+00 0. -1.
         23    2    1    2    0    0 -0.22338322386E+02  0.69195343721E+01 -0.21086180109E+03  0.23271065922E+03  0.95627773963E+02 0.  0.
         23    2    1    2    0    0  0.21320954149E+02  0.16775528539E+02 -0.55439186462E+01  0.94096618836E+02  0.89930179578E+02 0.  0.
        -11    1    4    4    0    0  0.27642639369E+02  0.50810302469E+02 -0.11489162491E+02  0.58972902278E+02  0.00000000000E+00 0.  1.
         11    1    4    4    0    0 -0.63216852207E+01 -0.34034773930E+02  0.59452438447E+01  0.35123716559E+02  0.00000000000E+00 0. -1.
        -11    1    3    3    0    0 -0.22860874964E+02  0.49950008009E+02 -0.10673070418E+03  0.12003776955E+03  0.00000000000E+00 0.  1.
         11    1    3    3    0    0  0.52255257782E+00 -0.43030473637E+02 -0.10413109691E+03  0.11267288966E+03  0.00000000000E+00 0. -1.
          3    1    1    2  501    0  0.10173682377E+01 -0.23695062911E+02  0.24815655655E+02  0.34326488461E+02  0.00000000000E+00 0. -1.
<scales pt_clust_5="13000.00000" pt_clust_6="13000.00000" pt_clust_7="13000.00000" pt_clust_8="13000.00000" pt_clust_9="23.71689"></scales>
<clustering>
<clus scale="   23.717">  1  9  2 -1</clus>
<clus scale="   89.930">  5  6 -1 -1</clus>
<clus scale="   92.642">  1  5  2 -1</clus>
<clus scale="   95.628">  7  8 -1 -1</clus>
<clus scale="   23.717">  1  5  2 -1</clus>
</clustering>
</event>
<event>
 9    1  0.1426358E-005  0.4612489E+03  0.7546771E-02  0.1024430E+00
          1   -1    0    0  502    0 -0.00000000000E+00  0.00000000000E+00  0.30528202285E+04  0.30528202285E+04  0.00000000000E+00 0. -1.
         21   -1    0    0  501  502  0.00000000000E+00 -0.00000000000E+00 -0.13974928991E+03  0.13974928991E+03  0.00000000000E+00 0. -1.
         23    2    1    2    0    0  0.40783803363E+03 -0.18820161235E+03  0.23480145432E+04  0.23924152434E+04  0.93416773298E+02 0.  0.
         23    2    1    2    0    0 -0.43161135658E+03  0.16444452567E+03  0.59236696056E+03  0.75684795880E+03  0.92681452456E+02 0.  0.
        -13    1    4    4    0    0 -0.27809274436E+03  0.57644858359E+02  0.36335207962E+03  0.46117592948E+03  0.00000000000E+00 0. -1.
         13    1    4    4    0    0 -0.15351861221E+03  0.10679966731E+03  0.22901488093E+03  0.29567202932E+03  0.00000000000E+00 0.  1.
        -13    1    3    3    0    0  0.32884378210E+02 -0.41199652830E+02  0.19186139164E+03  0.19897132287E+03  0.00000000000E+00 0.  1.
         13    1    3    3    0    0  0.37495365542E+03 -0.14700195952E+03  0.21561531515E+04  0.21934439206E+04  0.00000000000E+00 0. -1.
          1    1    1    2  501    0  0.23773322946E+02  0.23757086679E+02 -0.27310565145E+02  0.43306316167E+02  0.00000000000E+00 0. -1.
<scales pt_clust_5="13000.00000" pt_clust_6="13000.00000" pt_clust_7="13000.00000" pt_clust_8="13000.00000" pt_clust_9="33.60908"></scales>
<clustering>
<clus scale="   33.609">  2  9  1 -1</clus>
<clus scale="   92.681">  5  6 -1 -1</clus>
<clus scale="   93.417">  7  8 -1 -1</clus>
<clus scale="  461.101">  2  5  1 -1</clus>
<clus scale="   33.609">  2  5  1 -1</clus>
</clustering>
</event>
<event>
 9    1  0.1426358E-005  0.9936573E+02  0.7546771E-02  0.1285808E+00
         -2   -1    0    0    0  501 -0.00000000000E+00  0.00000000000E+00  0.13181945594E+03  0.13181945594E+03  0.00000000000E+00 0.  1.
         21   -1    0    0  501  502  0.00000000000E+00 -0.00000000000E+00 -0.28822483027E+03  0.28822483027E+03  0.00000000000E+00 0.  1.
         23    2    1    2    0    0  0.40333439448E+02 -0.54406232896E+01  0.80574083922E+02  0.12507744851E+03  0.86578279072E+02 0.  0.
         23    2    1    2    0    0  0.27165801670E+02 -0.20847534055E+02 -0.11200635534E+03  0.15051791517E+03  0.94538979754E+02 0.  0.
        -11    1    3    3    0    0  0.62573619971E+02 -0.23567928247E+02  0.53590507441E+02  0.85690417469E+02  0.00000000000E+00 0.  1.
         11    1    3    3    0    0 -0.22240180523E+02  0.18127304958E+02  0.26983576481E+02  0.39387031044E+02  0.00000000000E+00 0. -1.
        -11    1    4    4    0    0 -0.32375513251E+02 -0.52095630480E-01 -0.17229364802E+02  0.36674617703E+02  0.00000000000E+00 0. -1.
         11    1    4    4    0    0  0.59541314920E+02 -0.20795438425E+02 -0.94776990542E+02  0.11384329747E+03  0.00000000000E+00 0.  1.
         -2    1    1    2    0  502 -0.67499241118E+02  0.26288157345E+02 -0.12497310292E+03  0.14444892253E+03  0.00000000000E+00 0.  1.
<scales pt_clust_5="13000.00000" pt_clust_6="13000.00000" pt_clust_7="13000.00000" pt_clust_8="13000.00000" pt_clust_9="72.43766"></scales>
<clustering>
<clus scale="   72.438">  2  9  1 -1</clus>
<clus scale="   86.578">  5  6 -1 -1</clus>
<clus scale="   91.824">  1  5  2 -1</clus>
<clus scale="   94.539">  7  8 -1 -1</clus>
<clus scale="   72.438">  2  5  1 -1</clus>
</clustering>
</event>
<event>
 9    1  0.1426358E-005  0.1281486E+03  0.7546771E-02  0.1230281E+00
         -1   -1    0    0    0  501 -0.00000000000E+00  0.00000000000E+00  0.16201428413E+03  0.16201428413E+03  0.00000000000E+00 0.  1.
         21   -1    0    0  501  502  0.00000000000E+00 -0.00000000000E+00 -0.27844377211E+03  0.27844377211E+03  0.00000000000E+00 0.  1.
         23    2    1    2    0    0  0.70958148800E+01  0.89441609256E+02  0.82053930784E+02  0.15204100998E+03  0.91287836559E+02 0.  0.
         23    2    1    2    0    0  0.33276533109E+02 -0.91233440021E+02 -0.63505228740E+02  0.14751903733E+03  0.91093820118E+02 0.  0.
        -11    1    3    3    0    0  0.46077885412E+02  0.71295660920E+02  0.51460325428E+02  0.99269370318E+02  0.00000000000E+00 0.  1.
         11    1    3    3    0    0 -0.38982070532E+02  0.18145948336E+02  0.30593605355E+02  0.52771639662E+02  0.00000000000E+00 0. -1.
        -11    1    4    4    0    0 -0.14082384344E+02 -0.52450467674E+02 -0.66952924912E+02  0.86209391961E+02  0.00000000000E+00 0.  1.
         11    1    4    4    0    0  0.47358917453E+02 -0.38782972347E+02  0.34476961720E+01  0.61309645369E+02  0.00000000000E+00 0. -1.
         -1    1    1    2    0  502 -0.40372347989E+02  0.17918307648E+01 -0.13497819002E+03  0.14089800893E+03  0.00000000000E+00 0.  1.
<scales pt_clust_5="13000.00000" pt_clust_6="13000.00000" pt_clust_7="13000.00000" pt_clust_8="13000.00000" pt_clust_9="40.41209"></scales>
<clustering>
<clus scale="   40.412">  2  9  1 -1</clus>
<clus scale="   91.094">  7  8 -1 -1</clus>
<clus scale="   91.288">  5  6 -1 -1</clus>
<clus scale="  128.010">  2  7  1 -1</clus>
<clus scale="   40.412">  2  5  1 -1</clus>
</clustering>
</event>
<event>
 9    1  0.1426358E-005  0.2204059E+03  0.7546771E-02  0.1133623E+00
         21   -1    0    0  501  502  0.00000000000E+00  0.00000000000E+00  0.73908242866E+02  0.73908242866E+02  0.00000000000E+00 0. -1.
          1   -1    0    0  502    0 -0.00000000000E+00 -0.00000000000E+00 -0.91284683588E+03  0.91284683588E+03  0.00000000000E+00 0. -1.
         23    2    1    2    0    0  0.45438326932E+02  0.16466425987E+03 -0.31919754173E+03  0.37322959170E+03  0.90743029730E+02 0.  0.
         23    2    1    2    0    0 -0.57576731827E+02 -0.23108230178E+03 -0.44416070006E+03  0.51217911732E+03  0.91294087974E+02 0.  0.
        -11    1    3    3    0    0  0.21749512747E+02  0.10876072061E+03 -0.27946160964E+03  0.30066713641E+03  0.00000000000E+00 0. -1.
         11    1    3    3    0    0  0.23688814185E+02  0.55903539262E+02 -0.39735932082E+02  0.72562455292E+02  0.00000000000E+00 0.  1.
        -13    1    4    4    0    0 -0.51572361257E+02 -0.11919202087E+03 -0.15590478591E+03  0.20291069108E+03  0.00000000000E+00 0.  1.
         13    1    4    4    0    0 -0.60043705701E+01 -0.11189028091E+03 -0.28825591414E+03  0.30926842624E+03  0.00000000000E+00 0. -1.
          1    1    1    2  501    0  0.12138404895E+02  0.66418041909E+02 -0.75580351234E+02  0.10134636973E+03  0.00000000000E+00 0. -1.
<scales pt_clust_5="13000.00000" pt_clust_6="13000.00000" pt_clust_7="13000.00000" pt_clust_8="13000.00000" pt_clust_9="67.51812"></scales>
<clustering>
<clus scale="   67.518">  1  9  2 -1</clus>
<clus scale="   90.743">  5  6 -1 -1</clus>
<clus scale="   91.294">  7  8 -1 -1</clus>
<clus scale="  220.178">  2  5  1 -1</clus>
<clus scale="   67.518">  1  5  2 -1</clus>
</clustering>
</event>
<event>
 9    1  0.1426358E-005  0.1850581E+03  0.7546771E-02  0.1163617E+00
          1   -1    0    0  502    0 -0.00000000000E+00  0.00000000000E+00  0.10350281923E+04  0.10350281923E+04  0.00000000000E+00 0. -1.
         21   -1    0    0  501  502  0.00000000000E+00 -0.00000000000E+00 -0.82613281497E+02  0.82613281497E+02  0.00000000000E+00 0.  1.
         23    2    1    2    0    0 -0.49653217571E+02  0.18199018916E+03  0.73422432425E+03  0.76366750739E+03  0.92286686786E+02 0.  0.
         23    2    1    2    0    0 -0.10578635979E+02 -0.12152164058E+03  0.22285844545E+03  0.26849817774E+03  0.86867531734E+02 0.  0.
        -11    1    4    4    0    0 -0.38181862718E+02 -0.11321901254E+03  0.19303296806E+03  0.22702010087E+03  0.00000000000E+00 0. -1.
         11    1    4    4    0    0  0.27603226739E+02 -0.83026280414E+01  0.29825477392E+02  0.41478076866E+02  0.00000000000E+00 0.  1.
        -13    1    3    3    0    0 -0.75198180547E+02  0.15383449454E+03  0.57406398842E+03  0.59905699301E+03  0.00000000000E+00 0.  1.
         13    1    3    3    0    0  0.25544962976E+02  0.28155694620E+02  0.16016033583E+03  0.16461051438E+03  0.00000000000E+00 0. -1.
          1    1    1    2  501    0  0.60231853550E+02 -0.60468548580E+02 -0.46678588566E+01  0.85475788711E+02  0.00000000000E+00 0. -1.
<scales pt_clust_5="13000.00000" pt_clust_6="13000.00000" pt_clust_7="13000.00000" pt_clust_8="13000.00000" pt_clust_9="85.34824"></scales>
<clustering>
<clus scale="   85.348">  2  9  1 -1</clus>
<clus scale="   86.868">  5  6 -1 -1</clus>
<clus scale="   92.287">  7  8 -1 -1</clus>
<clus scale="  182.416">  2  5  1 -1</clus>
<clus scale="   85.348">  2  5  1 -1</clus>
</clustering>
</event>
<event>
 9    1  0.1426358E-005  0.1448455E+03  0.7546771E-02  0.1215008E+00
         21   -1    0    0  501  502  0.00000000000E+00  0.00000000000E+00  0.97602074181E+02  0.97602074181E+02  0.00000000000E+00 0. -1.
          2   -1    0    0  502    0 -0.00000000000E+00 -0.00000000000E+00 -0.88216254816E+03  0.88216254816E+03  0.00000000000E+00 0. -1.
         23    2    1    2    0    0  0.83133696372E+02  0.53481469630E+01 -0.56737383440E+03  0.58068719447E+03  0.91349524990E+02 0.  0.
         23    2    1    2    0    0 -0.55779031089E+02 -0.91513660995E+02 -0.25459253029E+03  0.30124096135E+03  0.12017782598E+03 0.  0.
        -11    1    3    3    0    0  0.10433404087E+02  0.35566684986E+02 -0.98374867112E+02  0.10512592202E+03  0.00000000000E+00 0. -1.
         11    1    3    3    0    0  0.72700292285E+02 -0.30218538023E+02 -0.46899896729E+03  0.47556127245E+03  0.00000000000E+00 0.  1.
        -13    1    4    4    0    0  0.20300817677E+02 -0.53121405327E+02 -0.17728271683E+03  0.18618047317E+03  0.00000000000E+00 0. -1.
         13    1    4    4    0    0 -0.76079848765E+02 -0.38392255668E+02 -0.77309813463E+02  0.11506048818E+03  0.00000000000E+00 0.  1.
          2    1    1    2  501    0 -0.27354665283E+02  0.86165514032E+02  0.37405890711E+02  0.97836466519E+02  0.00000000000E+00 0. -1.
<scales pt_clust_5="13000.00000" pt_clust_6="13000.00000" pt_clust_7="13000.00000" pt_clust_8="13000.00000" pt_clust_9="90.40339"></scales>
<clustering>
<clus scale="   90.403">  1  9  2 -1</clus>
<clus scale="   91.350">  5  6 -1 -1</clus>
<clus scale="  120.178">  7  8 -1 -1</clus>
<clus scale="  121.993">  2  5  1 -1</clus>
<clus scale="   90.403">  1  5  2 -1</clus>
</clustering>
</event>
<event>
 9    1  0.1426358E-005  0.1592346E+03  0.7546771E-02  0.1189694E+00
         21   -1    0    0  501  502  0.00000000000E+00  0.00000000000E+00  0.21740246760E+03  0.21740246760E+03  0.00000000000E+00 0. -1.
          2   -1    0    0  502    0 -0.00000000000E+00 -0.00000000000E+00 -0.75929489627E+03  0.75929489627E+03  0.00000000000E+00 0. -1.
         23    2    1    2    0    0  0.10780112391E+03  0.37527644329E+02 -0.43510636970E+03  0.45890964922E+03  0.90835603109E+02 0.  0.
         23    2    1    2    0    0 -0.17459916008E+03 -0.31438183334E+02 -0.27343288197E+03  0.33814856862E+03  0.90031591347E+02 0.  0.
        -11    1    3    3    0    0  0.10046126663E+03  0.61760577744E+02 -0.31965050094E+03  0.34070996141E+03  0.00000000000E+00 0. -1.
         11    1    3    3    0    0  0.73398572737E+01 -0.24232933415E+02 -0.11545586876E+03  0.11819968780E+03  0.00000000000E+00 0.  1.
        -11    1    4    4    0    0 -0.10067451943E+03 -0.62699799945E+02 -0.16772106756E+03  0.20541903582E+03  0.00000000000E+00 0.  1.
         11    1    4    4    0    0 -0.73924640651E+02  0.31261616611E+02 -0.10571181442E+03  0.13272953280E+03  0.00000000000E+00 0. -1.
          2    1    1    2  501    0  0.66798036180E+02 -0.60894609951E+01  0.16664682299E+03  0.17963914603E+03  0.00000000000E+00 0. -1.
<scales pt_clust_5="13000.00000" pt_clust_6="13000.00000" pt_clust_7="13000.00000" pt_clust_8="13000.00000" pt_clust_9="67.07503"></scales>
<clustering>
<clus scale="   67.075">  1  9  2 -1</clus>
<clus scale="   90.032">  7  8 -1 -1</clus>
<clus scale="   90.836">  5  6 -1 -1</clus>
<clus scale="  158.777">  1  7  2 -1</clus>
<clus scale="   67.075">  1  5  2 -1</clus>
</clustering>
</event>
<event>
 9    1  0.1426358E-005  0.1540656E+03  0.7546771E-02  0.1195767E+00
          1   -1    0    0  502    0 -0.00000000000E+00  0.00000000000E+00  0.73737099199E+03  0.73737099199E+03  0.00000000000E+00 0. -1.
         21   -1    0    0  501  502  0.00000000000E+00 -0.00000000000E+00 -0.21752871348E+03  0.21752871348E+03  0.00000000000E+00 0. -1.
         23    2    1    2    0    0 -0.13321250619E+02  0.85713817230E+02  0.20146972242E+03  0.23785534511E+03  0.91982617714E+02 0.  0.
         23    2    1    2    0    0 -0.71394596712E+02 -0.15400871252E+03  0.48262739277E+03  0.52001487301E+03  0.93114960787E+02 0.  0.
        -13    1    4    4    0    0  0.17706686142E+02 -0.60131310493E+02  0.18909159752E+03  0.19921077654E+03  0.00000000000E+00 0.  1.
         13    1    4    4    0    0 -0.89101282854E+02 -0.93877402023E+02  0.29353579525E+03  0.32080409647E+03  0.00000000000E+00 0. -1.
        -13    1    3    3    0    0 -0.25546697576E+01  0.53998513040E+02  0.27425721852E+02  0.60617950866E+02  0.00000000000E+00 0.  1.
         13    1    3    3    0    0 -0.10766580861E+02  0.31715304190E+02  0.17404400057E+03  0.17723739424E+03  0.00000000000E+00 0. -1.
          1    1    1    2  501    0  0.84715847331E+02  0.68294895287E+02 -0.16425483668E+03  0.19702948735E+03  0.00000000000E+00 0. -1.
<scales pt_clust_5="13000.00000" pt_clust_6="13000.00000" pt_clust_7="13000.00000" pt_clust_8="13000.00000" pt_clust_9="108.81621"></scales>
<clustering>
<clus scale="   91.983">  7  8 -1 -1</clus>
<clus scale="   93.115">  5  6 -1 -1</clus>
<clus scale="  108.816">  2  9  1 -1</clus>
<clus scale="  153.384">  1  7  2 -1</clus>
<clus scale="  108.816">  2  5  1 -1</clus>
</clustering>
</event>
<event>
 9    1  0.1426358E-005  0.1298114E+03  0.7546771E-02  0.1227758E+00
          2   -1    0    0  502    0 -0.00000000000E+00  0.00000000000E+00  0.51551939748E+03  0.51551939748E+03  0.00000000000E+00 0. -1.
         21   -1    0    0  501  502  0.00000000000E+00 -0.00000000000E+00 -0.75434418203E+02  0.75434418203E+02  0.00000000000E+00 0.  1.
         23    2    1    2    0    0  0.92713651423E+02  0.31379088258E+02  0.38961333963E+03  0.41196833305E+03  0.91317493860E+02 0.  0.
         23    2    1    2    0    0 -0.70926517477E+02 -0.28183112205E+02  0.79115107430E+02  0.14285596956E+03  0.91234692525E+02 0.  0.
        -11    1    3    3    0    0  0.95065543633E+02  0.53134784923E+02  0.28519561167E+03  0.30528232813E+03  0.00000000000E+00 0. -1.
         11    1    3    3    0    0 -0.23518922093E+01 -0.21755696665E+02  0.10441772796E+03  0.10668600492E+03  0.00000000000E+00 0.  1.
        -13    1    4    4    0    0 -0.24952631257E+02 -0.53741596881E+01 -0.19208102661E+02  0.31944743023E+02  0.00000000000E+00 0.  1.
         13    1    4    4    0    0 -0.45973886220E+02 -0.22808952517E+02  0.98323210091E+02  0.11091122654E+03  0.00000000000E+00 0. -1.
          2    1    1    2  501    0 -0.21787133946E+02 -0.31959760528E+01 -0.28643467777E+02  0.36129513072E+02  0.00000000000E+00 0. -1.
<scales pt_clust_5="13000.00000" pt_clust_6="13000.00000" pt_clust_7="13000.00000" pt_clust_8="13000.00000" pt_clust_9="22.02030"></scales>
<clustering>
<clus scale="   22.020">  2  9  1 -1</clus>
<clus scale="   91.235">  7  8 -1 -1</clus>
<clus scale="   91.317">  5  6 -1 -1</clus>
<clus scale="  129.753">  2  7  1 -1</clus>
<clus scale="   22.020">  2  5  1 -1</clus>
</clustering>
</event>
<event>
 9    1  0.1426358E-005  0.9254199E+02  0.7546771E-02  0.1297681E+00
         21   -1    0    0  501  502  0.00000000000E+00  0.00000000000E+00  0.77973089613E+02  0.77973089613E+02  0.00000000000E+00 0. -1.
          1   -1    0    0  502    0 -0.00000000000E+00 -0.00000000000E+00 -0.16097667191E+03  0.16097667191E+03  0.00000000000E+00 0. -1.
         23    2    1    2    0    0 -0.88991708348E+01 -0.77974770496E-01 -0.77999590262E+02  0.12115553384E+03  0.92279607598E+02 0.  0.
         23    2    1    2    0    0 -0.75071245207E+01  0.17895058255E+02 -0.88636852156E+01  0.93268481561E+02  0.90795675605E+02 0.  0.
        -11    1    3    3    0    0 -0.23328507624E+02 -0.42156037166E+02 -0.38689717954E+02  0.61791949418E+02  0.00000000000E+00 0.  1.
         11    1    3    3    0    0  0.14429336790E+02  0.42078062395E+02 -0.39309872307E+02  0.59363584426E+02  0.00000000000E+00 0. -1.
        -13    1    4    4    0    0 -0.17220717735E+02  0.50682027032E+02 -0.20245403079E+02  0.57228466075E+02  0.00000000000E+00 0. -1.
         13    1    4    4    0    0  0.97135932147E+01 -0.32786968778E+02  0.11381717863E+02  0.36040015487E+02  0.00000000000E+00 0.  1.
          1    1    1    2  501    0  0.16406295355E+02 -0.17817083484E+02  0.38596931803E+01  0.24525746117E+02  0.00000000000E+00 0. -1.
<scales pt_clust_5="13000.00000" pt_clust_6="13000.00000" pt_clust_7="13000.00000" pt_clust_8="13000.00000" pt_clust_9="24.22014"></scales>
<clustering>
<clus scale="   24.220">  1  9  2 -1</clus>
<clus scale="   90.796">  7  8 -1 -1</clus>
<clus scale="   91.062">  1  7  2 -1</clus>
<clus scale="   92.280">  5  6 -1 -1</clus>
<clus scale="   24.220">  1  5  2 -1</clus>
</clustering>
</event>
<event>
 9    1  0.1426358E-005  0.9532561E+02  0.7546771E-02  0.1290513E+00
         21   -1    0    0  501  502  0.00000000000E+00  0.00000000000E+00  0.10040450474E+03  0.10040450474E+03  0.00000000000E+00 0.  1.
          1   -1    0    0  502    0 -0.00000000000E+00 -0.00000000000E+00 -0.17091175836E+03  0.17091175836E+03  0.00000000000E+00 0. -1.
         23    2    1    2    0    0 -0.21109201461E+02 -0.59664767176E+01 -0.67189655981E+02  0.11551819260E+03  0.91371799363E+02 0.  0.
         23    2    1    2    0    0  0.31135491334E+02 -0.40684349542E+02 -0.16825427455E+02  0.10620686619E+03  0.91499553538E+02 0.  0.
        -11    1    3    3    0    0 -0.30747646360E+02  0.16194382109E+02 -0.80676809701E+02  0.87843174989E+02  0.00000000000E+00 0. -1.
         11    1    3    3    0    0  0.96384448993E+01 -0.22160858827E+02  0.13487153720E+02  0.27675017606E+02  0.00000000000E+00 0.  1.
        -13    1    4    4    0    0  0.35021172421E+02  0.22458245746E+02 -0.67279308538E+01  0.42144043153E+02  0.00000000000E+00 0. -1.
         13    1    4    4    0    0 -0.38856810874E+01 -0.63142595288E+02 -0.10097496601E+02  0.64062823032E+02  0.00000000000E+00 0.  1.
          1    1    1    2  501    0 -0.10026289873E+02  0.46650826260E+02  0.13507829812E+02  0.49591204316E+02  0.00000000000E+00 0. -1.
<scales pt_clust_5="13000.00000" pt_clust_6="13000.00000" pt_clust_7="13000.00000" pt_clust_8="13000.00000" pt_clust_9="47.71610"></scales>
<clustering>
<clus scale="   47.716">  1  9  2 -1</clus>
<clus scale="   91.372">  5  6 -1 -1</clus>
<clus scale="   91.500">  7  8 -1 -1</clus>
<clus scale="   95.203">  2  5  1 -1</clus>
<clus scale="   47.716">  1  5  2 -1</clus>
</clustering>
</event>
<event>
 9    1  0.1426358E-005  0.9810346E+02  0.7546771E-02  0.1285203E+00
         -3   -1    0    0    0  501 -0.00000000000E+00  0.00000000000E+00  0.28084756367E+03  0.28084756367E+03  0.00000000000E+00 0.  1.
         21   -1    0    0  501  502  0.00000000000E+00 -0.00000000000E+00 -0.56020779510E+02  0.56020779510E+02  0.00000000000E+00 0.  1.
         23    2    1    2    0    0  0.28334380853E+02  0.26176927610E+02  0.16287100566E+03  0.19128186120E+03  0.92594369479E+02 0.  0.
         23    2    1    2    0    0  0.11968847049E+01 -0.28940024113E+02  0.65484137887E+02  0.11571710522E+03  0.90902797524E+02 0.  0.
        -11    1    4    4    0    0  0.40223394690E+02  0.15918893620E+01  0.49177597622E+02  0.63552275333E+02  0.00000000000E+00 0.  1.
         11    1    4    4    0    0 -0.39026509985E+02 -0.30531913475E+02  0.16306540266E+02  0.52164829890E+02  0.00000000000E+00 0. -1.
        -13    1    3    3    0    0  0.13624819399E+01 -0.26579947247E+02  0.12004105391E+02  0.29196720688E+02  0.00000000000E+00 0. -1.
         13    1    3    3    0    0  0.26971898913E+02  0.52756874857E+02  0.15086690027E+03  0.16208514051E+03  0.00000000000E+00 0.  1.
         -3    1    1    2    0  502 -0.29531265558E+02  0.27630965029E+01 -0.35283593968E+01  0.29869376755E+02  0.00000000000E+00 0.  1.
<scales pt_clust_5="13000.00000" pt_clust_6="13000.00000" pt_clust_7="13000.00000" pt_clust_8="13000.00000" pt_clust_9="29.66025"></scales>
<clustering>
<clus scale="   29.660">  2  9  1 -1</clus>
<clus scale="   90.903">  5  6 -1 -1</clus>
<clus scale="   92.594">  7  8 -1 -1</clus>
<clus scale="   96.509">  2  5  1 -1</clus>
<clus scale="   29.660">  2  5  1 -1</clus>
</clustering>
</event>
<event>
 9    1  0.1426358E-005  0.1144867E+03  0.7546771E-02  0.1253214E+00
         -2   -1    0    0    0  501 -0.00000000000E+00  0.00000000000E+00  0.67038270056E+03  0.67038270056E+03  0.00000000000E+00 0.  1.
         21   -1    0    0  501  502  0.00000000000E+00 -0.00000000000E+00 -0.67346893346E+02  0.67346893346E+02  0.00000000000E+00 0.  1.
         23    2    1    2    0    0  0.51268337274E+02  0.29118319737E+02  0.35050463615E+03  0.36644141264E+03  0.89159912427E+02 0.  0.
         23    2    1    2    0    0 -0.62620023839E+02 -0.60777455715E+02  0.29277522381E+03  0.31884063166E+03  0.91251576476E+02 0.  0.
        -11    1    4    4    0    0 -0.92032040213E+00 -0.50937405321E+02  0.20411761605E+03  0.21037934174E+03  0.00000000000E+00 0.  1.
         11    1    4    4    0    0 -0.61699703437E+02 -0.98400503944E+01  0.88657607763E+02  0.10846128992E+03  0.00000000000E+00 0. -1.
        -13    1    3    3    0    0 -0.16184285018E+02 -0.14745283447E+02  0.12748749755E+03  0.12935384222E+03  0.00000000000E+00 0.  1.
         13    1    3    3    0    0  0.67452622292E+02  0.43863603184E+02  0.22301713859E+03  0.23708757041E+03  0.00000000000E+00 0. -1.
         -2    1    1    2    0  502  0.11351686566E+02  0.31659135979E+02 -0.40244052745E+02  0.52447549611E+02  0.00000000000E+00 0.  1.
<scales pt_clust_5="13000.00000" pt_clust_6="13000.00000" pt_clust_7="13000.00000" pt_clust_8="13000.00000" pt_clust_9="33.63275"></scales>
<clustering>
<clus scale="   33.633">  2  9  1 -1</clus>
<clus scale="   89.160">  7  8 -1 -1</clus>
<clus scale="   91.252">  5  6 -1 -1</clus>
<clus scale="  112.827">  1  7  2 -1</clus>
<clus scale="   33.633">  2  5  1 -1</clus>
</clustering>
</event>
<event>
 9    1  0.1426358E-005  0.1757992E+03  0.7546771E-02  0.1173814E+00
         21   -1    0    0  501  502  0.00000000000E+00  0.00000000000E+00  0.24559848204E+02  0.24559848204E+02  0.00000000000E+00 0. -1.
          2   -1    0    0  502    0 -0.00000000000E+00 -0.00000000000E+00 -0.15942777352E+04  0.15942777352E+04  0.00000000000E+00 0. -1.
         23    2    1    2    0    0  0.94082972653E+02 -0.98825263181E+02 -0.83405537854E+03  0.85007824837E+03  0.91469205208E+02 0.  0.
         23    2    1    2    0    0 -0.80846578717E+02  0.12955831253E+03 -0.55495428815E+03  0.58497907675E+03  0.10442572798E+03 0.  0.
        -13    1    4    4    0    0 -0.21425610684E+01  0.84798758690E+02 -0.17622947076E+03  0.19558181512E+03  0.00000000000E+00 0. -1.
         13    1    4    4    0    0 -0.78704017649E+02  0.44759553838E+02 -0.37872481739E+03  0.38939726163E+03  0.00000000000E+00 0.  1.
        -13    1    3    3    0    0  0.10869866371E+03 -0.67846352211E+02 -0.70527106944E+03  0.71681643981E+03  0.00000000000E+00 0. -1.
         13    1    3    3    0    0 -0.14615691057E+02 -0.30978910970E+02 -0.12878430910E+03  0.13326180856E+03  0.00000000000E+00 0.  1.
          2    1    1    2  501    0 -0.13236393936E+02 -0.30733049347E+02 -0.18070822027E+03  0.18378025824E+03  0.00000000000E+00 0. -1.
<scales pt_clust_5="13000.00000" pt_clust_6="13000.00000" pt_clust_7="13000.00000" pt_clust_8="13000.00000" pt_clust_9="33.46227"></scales>
<clustering>
<clus scale="   33.462">  1  9  2 -1</clus>
<clus scale="   91.469">  7  8 -1 -1</clus>
<clus scale="  104.426">  5  6 -1 -1</clus>
<clus scale="  168.426">  2  7  1 -1</clus>
<clus scale="   33.462">  1  5  2 -1</clus>
</clustering>
</event>
<event>
 9    1  0.1426358E-005  0.1049420E+03  0.7546771E-02  0.1271841E+00
          1   -1    0    0  502    0 -0.00000000000E+00  0.00000000000E+00  0.31137910378E+03  0.31137910378E+03  0.00000000000E+00 0. -1.
         21   -1    0    0  501  502  0.00000000000E+00 -0.00000000000E+00 -0.12994119866E+03  0.12994119866E+03  0.00000000000E+00 0. -1.
         23    2    1    2    0    0 -0.43679909502E+02  0.13186876705E+02  0.19021403289E+03  0.21552303558E+03  0.90481889589E+02 0.  0.
         23    2    1    2    0    0  0.10470398120E+03 -0.39117461004E+02 -0.47217985146E+02  0.14915453121E+03  0.86743510567E+02 0.  0.
        -13    1    3    3    0    0 -0.21938094898E+02 -0.35137171353E+02  0.46104952340E+02  0.61980379547E+02  0.00000000000E+00 0.  1.
         13    1    3    3    0    0 -0.21741814604E+02  0.48324048058E+02  0.14410908055E+03  0.15354265603E+03  0.00000000000E+00 0. -1.
        -13    1    4    4    0    0  0.71168127065E+02  0.19632313145E+02 -0.25501218334E+02  0.78106607697E+02  0.00000000000E+00 0.  1.
         13    1    4    4    0    0  0.33535854133E+02 -0.58749774149E+02 -0.21716766812E+02  0.71047923515E+02  0.00000000000E+00 0. -1.
          1    1    1    2  501    0 -0.61024071697E+02  0.25930584299E+02  0.38441857375E+02  0.76642735644E+02  0.00000000000E+00 0. -1.
<scales pt_clust_5="13000.00000" pt_clust_6="13000.00000" pt_clust_7="13000.00000" pt_clust_8="13000.00000" pt_clust_9="66.30488"></scales>
<clustering>
<clus scale="   66.305">  2  9  1 -1</clus>
<clus scale="   86.744">  7  8 -1 -1</clus>
<clus scale="   90.482">  5  6 -1 -1</clus>
<clus scale="  101.736">  2  7  1 -1</clus>
<clus scale="   66.305">  2  5  1 -1</clus>
</clustering>
</event>
<event>
 9    1  0.1426358E-005  0.1646057E+03  0.7546771E-02  0.1196073E+00
         -1   -1    0    0    0  501 -0.00000000000E+00  0.00000000000E+00  0.11426634021E+03  0.11426634021E+03  0.00000000000E+00 0.  1.
         21   -1    0    0  501  502  0.00000000000E+00 -0.00000000000E+00 -0.63785787937E+03  0.63785787937E+03  0.00000000000E+00 0.  1.
         23    2    1    2    0    0  0.61815571976E+02  0.59102970278E+02 -0.46009722089E+02  0.13313091915E+03  0.91063829658E+02 0.  0.
         23    2    1    2    0    0  0.22259732452E+01 -0.17336189900E+03 -0.10386462200E+03  0.22298703255E+03  0.94212812294E+02 0.  0.
        -11    1    3    3    0    0  0.14089617170E+02  0.73261629375E+02 -0.21487138218E+02  0.77636851813E+02  0.00000000000E+00 0. -1.
         11    1    3    3    0    0  0.47725954806E+02 -0.14158659097E+02 -0.24522583871E+02  0.55494067334E+02  0.00000000000E+00 0.  1.
        -11    1    4    4    0    0  0.24828468324E+02 -0.70031482329E+02  0.62585100301E+00  0.74305134722E+02  0.00000000000E+00 0.  1.
         11    1    4    4    0    0 -0.22602495079E+02 -0.10333041667E+03 -0.10449047300E+03  0.14868189783E+03  0.00000000000E+00 0. -1.
         -1    1    1    2    0  502 -0.64041545222E+02  0.11425892872E+03 -0.37371719508E+03  0.39600626788E+03  0.00000000000E+00 0.  1.
<scales pt_clust_5="13000.00000" pt_clust_6="13000.00000" pt_clust_7="13000.00000" pt_clust_8="13000.00000" pt_clust_9="134.97776"></scales>
<clustering>
<clus scale="   91.064">  5  6 -1 -1</clus>
<clus scale="   94.213">  7  8 -1 -1</clus>
<clus scale="  124.928">  1  5  2 -1</clus>
<clus scale="  134.978">  2  9  1 -1</clus>
<clus scale="  134.978">  2  5  1 -1</clus>
</clustering>
</event>
<event>
 9    1  0.1426358E-005  0.9429714E+02  0.7546771E-02  0.1292807E+00
          2   -1    0    0  502    0 -0.00000000000E+00  0.00000000000E+00  0.28007244397E+03  0.28007244397E+03  0.00000000000E+00 0. -1.
         21   -1    0    0  501  502  0.00000000000E+00 -0.00000000000E+00 -0.11904907001E+03  0.11904907001E+03  0.00000000000E+00 0. -1.
         23    2    1    2    0    0  0.17750971884E+02 -0.11632683885E+02  0.21269950187E+03  0.23276733641E+03  0.92136520825E+02 0.  0.
         23    2    1    2    0    0  0.13580550338E+02  0.35922817707E+02  0.18184171297E+01  0.99770837049E+02  0.92065374083E+02 0.  0.
        -11    1    3    3    0    0 -0.13136504001E+02 -0.39220958482E+02  0.16253964081E+03  0.16771996350E+03  0.00000000000E+00 0.  1.
         11    1    3    3    0    0  0.30887475885E+02  0.27588274597E+02  0.50159861053E+02  0.65047372911E+02  0.00000000000E+00 0. -1.
        -13    1    4    4    0    0  0.51247038267E+02  0.19348081618E+02  0.14581036880E+02  0.56685217032E+02  0.00000000000E+00 0.  1.
         13    1    4    4    0    0 -0.37666487929E+02  0.16574736089E+02 -0.12762619750E+02  0.43085620017E+02  0.00000000000E+00 0. -1.
          2    1    1    2  501    0 -0.31331522222E+02 -0.24290133822E+02 -0.53494545034E+02  0.66583340516E+02  0.00000000000E+00 0. -1.
<scales pt_clust_5="13000.00000" pt_clust_6="13000.00000" pt_clust_7="13000.00000" pt_clust_8="13000.00000" pt_clust_9="39.64436"></scales>
<clustering>
<clus scale="   39.644">  2  9  1 -1</clus>
<clus scale="   92.065">  7  8 -1 -1</clus>
<clus scale="   92.137">  5  6 -1 -1</clus>
<clus scale="   94.228">  2  7  1 -1</clus>
<clus scale="   39.644">  2  5  1 -1</clus>
</clustering>
</event>
<event>
 9    1  0.1426358E-005  0.9664529E+02  0.7546771E-02  0.1288322E+00
         21   -1    0    0  501  502  0.00000000000E+00  0.00000000000E+00  0.13990510892E+03  0.13990510892E+03  0.00000000000E+00 0.  1.
          1   -1    0    0  502    0 -0.00000000000E+00 -0.00000000000E+00 -0.23730181584E+03  0.23730181584E+03  0.00000000000E+00 0. -1.
         23    2    1    2    0    0  0.24633225320E+02  0.26570943928E+02 -0.17924319366E+03  0.20484566134E+03  0.92308242566E+02 0.  0.
         23    2    1    2    0    0 -0.28628726395E+00  0.24332067047E+01  0.10279745027E+02  0.91393290320E+02  0.90780272650E+02 0.  0.
        -11    1    4    4    0    0 -0.18802333147E+02  0.32784844984E+02  0.32178175190E+02  0.49636768135E+02  0.00000000000E+00 0.  1.
         11    1    4    4    0    0  0.18516045883E+02 -0.30351638279E+02 -0.21898430162E+02  0.41756522184E+02  0.00000000000E+00 0. -1.
        -11    1    3    3    0    0  0.22458866446E+02  0.60616365642E+02 -0.12591487395E+03  0.14153904037E+03  0.00000000000E+00 0.  1.
         11    1    3    3    0    0  0.21743588748E+01 -0.34045421714E+02 -0.53328319712E+02  0.63306620977E+02  0.00000000000E+00 0. -1.
          1    1    1    2  501    0 -0.24346938057E+02 -0.29004150633E+02  0.71566741723E+02  0.80967973097E+02  0.00000000000E+00 0. -1.
<scales pt_clust_5="13000.00000" pt_clust_6="13000.00000" pt_clust_7="13000.00000" pt_clust_8="13000.00000" pt_clust_9="37.86838"></scales>
<clustering>
<clus scale="   37.868">  1  9  2 -1</clus>
<clus scale="   90.780">  5  6 -1 -1</clus>
<clus scale="   92.308">  7  8 -1 -1</clus>
<clus scale="   95.187">  1  5  2 -1</clus>
<clus scale="   37.868">  1  5  2 -1</clus>
</clustering>
</event>
<event>
 9    1  0.1426358E-005  0.1159118E+03  0.7546771E-02  0.1251048E+00
         21   -1    0    0  501  502  0.00000000000E+00  0.00000000000E+00  0.14556528597E+03  0.14556528597E+03  0.00000000000E+00 0. -1.
         -1   -1    0    0    0  501 -0.00000000000E+00 -0.00000000000E+00 -0.17233410525E+03  0.17233410525E+03  0.00000000000E+00 0.  1.
         23    2    1    2    0    0  0.25464850363E+02  0.58755955543E+02 -0.87581156934E+02  0.14304663281E+03  0.93226386784E+02 0.  0.
         23    2    1    2    0    0 -0.88525700308E+01 -0.83814578560E+02  0.21432946981E+02  0.12530844638E+03  0.90219642773E+02 0.  0.
        -13    1    4    4    0    0 -0.45781453403E+02 -0.46571965074E+02 -0.69473194530E+01  0.65674611945E+02  0.00000000000E+00 0.  1.
         13    1    4    4    0    0  0.36928883372E+02 -0.37242613486E+02  0.28380266434E+02  0.59633834433E+02  0.00000000000E+00 0. -1.
        -13    1    3    3    0    0 -0.16135792429E+02  0.43763719238E+02 -0.19646349271E+01  0.46684973056E+02  0.00000000000E+00 0.  1.
         13    1    3    3    0    0  0.41600642792E+02  0.14992236306E+02 -0.85616522007E+02  0.96361659754E+02  0.00000000000E+00 0. -1.
         -1    1    1    2    0  502 -0.16612280332E+02  0.25058623016E+02  0.39379390669E+02  0.49544312033E+02  0.00000000000E+00 0.  1.
<scales pt_clust_5="13000.00000" pt_clust_6="13000.00000" pt_clust_7="13000.00000" pt_clust_8="13000.00000" pt_clust_9="30.06497"></scales>
<clustering>
<clus scale="   30.065">  1  9  2 -1</clus>
<clus scale="   90.220">  5  6 -1 -1</clus>
<clus scale="   93.226">  7  8 -1 -1</clus>
<clus scale="  113.508">  1  5  2 -1</clus>
<clus scale="   30.065">  1  5  2 -1</clus>
</clustering>
</event>
<event>
 9    1  0.1426358E-005  0.2034148E+03  0.7546771E-02  0.1147388E+00
         21   -1    0    0  501  502  0.00000000000E+00  0.00000000000E+00  0.20178083889E+03  0.20178083889E+03  0.00000000000E+00 0. -1.
          4   -1    0    0  502    0 -0.00000000000E+00 -0.00000000000E+00 -0.34748894957E+03  0.34748894957E+03  0.00000000000E+00 0. -1.
         23    2    1    2    0    0 -0.14933157150E+03  0.92811119352E+02 -0.99912657729E+02  0.22434000030E+03  0.97118867568E+02 0.  0.
         23    2    1    2    0    0  0.18920402665E+03 -0.24250697099E+02 -0.94454544188E+02  0.23188113777E+03  0.91983374171E+02 0.  0.
        -11    1    3    3    0    0 -0.49579296734E+02 -0.13723060045E+02 -0.45188694322E+02  0.68472236244E+02  0.00000000000E+00 0.  1.
         11    1    3    3    0    0 -0.99752274765E+02  0.10653417940E+03 -0.54723963407E+02  0.15586776406E+03  0.00000000000E+00 0. -1.
        -11    1    4    4    0    0  0.11548842162E+02 -0.23407510739E+02  0.73572346908E+01  0.27118558527E+02  0.00000000000E+00 0.  1.
         11    1    4    4    0    0  0.17765518449E+03 -0.84318636045E+00 -0.10181177888E+03  0.20476257924E+03  0.00000000000E+00 0. -1.
          4    1    1    2  501    0 -0.39872455150E+02 -0.68560422253E+02  0.48659091241E+02  0.93048650391E+02  0.00000000000E+00 0. -1.
<scales pt_clust_5="13000.00000" pt_clust_6="13000.00000" pt_clust_7="13000.00000" pt_clust_8="13000.00000" pt_clust_9="79.31169"></scales>
<clustering>
<clus scale="   79.312">  1  9  2 -1</clus>
<clus scale="   91.983">  7  8 -1 -1</clus>
<clus scale="   97.119">  5  6 -1 -1</clus>
<clus scale="  201.014">  1  7  2 -1</clus>
<clus scale="   79.312">  1  5  2 -1</clus>
</clustering>
</event>
<event>
 9    1  0.1426358E-005  0.1999741E+03  0.7546771E-02  0.1150088E+00
          2   -1    0    0  502    0 -0.00000000000E+00  0.00000000000E+00  0.54577007537E+03  0.54577007537E+03  0.00000000000E+00 0. -1.
         21   -1    0    0  501  502  0.00000000000E+00 -0.00000000000E+00 -0.24431417035E+03  0.24431417035E+03  0.00000000000E+00 0. -1.
         23    2    1    2    0    0 -0.64809247844E+01 -0.18100188186E+03  0.28144122066E+03  0.34712764892E+03  0.92112758825E+02 0.  0.
         23    2    1    2    0    0 -0.44089039770E+02  0.17135426005E+03  0.18451221195E+03  0.27059118698E+03  0.88705739674E+02 0.  0.
        -11    1    3    3    0    0  0.23756250085E+02 -0.46945790316E+01  0.30155731516E+02  0.38675142322E+02  0.00000000000E+00 0.  1.
         11    1    3    3    0    0 -0.30237174870E+02 -0.17630730283E+03  0.25128548914E+03  0.30845250660E+03  0.00000000000E+00 0. -1.
        -13    1    4    4    0    0  0.23825021837E+01  0.85708117541E+02  0.36058724519E+02  0.93014995259E+02  0.00000000000E+00 0.  1.
         13    1    4    4    0    0 -0.46471541954E+02  0.85646142505E+02  0.14845348743E+03  0.17757619172E+03  0.00000000000E+00 0. -1.
          2    1    1    2  501    0  0.50569964554E+02  0.96476218155E+01 -0.16449752758E+03  0.17236540982E+03  0.00000000000E+00 0. -1.
<scales pt_clust_5="13000.00000" pt_clust_6="13000.00000" pt_clust_7="13000.00000" pt_clust_8="13000.00000" pt_clust_9="51.48202"></scales>
<clustering>
<clus scale="   51.482">  2  9  1 -1</clus>
<clus scale="   88.706">  7  8 -1 -1</clus>
<clus scale="   92.113">  5  6 -1 -1</clus>
<clus scale="  198.428">  2  7  1 -1</clus>
<clus scale="   51.482">  2  5  1 -1</clus>
</clustering>
</event>
<event>
 9    1  0.3184002E-005  0.1100712E+03  0.7546771E-02  0.1261364E+00
          4   -1    0    0  502    0 -0.00000000000E+00  0.00000000000E+00  0.20037289305E+03  0.20037289305E+03  0.00000000000E+00 0. -1.
         21   -1    0    0  501  502  0.00000000000E+00 -0.00000000000E+00 -0.50516497684E+03  0.50516497684E+03  0.00000000000E+00 0. -1.
         23    2    1    2    0    0 -0.25847462731E+02  0.64193211444E+02  0.15936158148E+03  0.19730031763E+03  0.93501026516E+02 0.  0.
         23    2    1    2    0    0 -0.98558247184E+01  0.13333817186E+02 -0.10942003783E+03  0.14337989326E+03  0.91159865902E+02 0.  0.
        -13    1    4    4    0    0  0.29163276746E+02  0.35234886753E+02 -0.39852491106E+02  0.60664775632E+02  0.00000000000E+00 0. -1.
         13    1    4    4    0    0 -0.39019101465E+02 -0.21901069567E+02 -0.69567546723E+02  0.82715117629E+02  0.00000000000E+00 0.  1.
        -13    1    3    3    0    0  0.26146865178E+02  0.40670044171E+02  0.32680959268E+02  0.58358856656E+02  0.00000000000E+00 0.  1.
         13    1    3    3    0    0 -0.51994327909E+02  0.23523167273E+02  0.12668062221E+03  0.13894146097E+03  0.00000000000E+00 0. -1.
          4    1    1    2  501    0  0.35703287449E+02 -0.77527028630E+02 -0.35473362743E+03  0.36485765900E+03  0.00000000000E+00 0. -1.
<scales pt_clust_5="13000.00000" pt_clust_6="13000.00000" pt_clust_7="13000.00000" pt_clust_8="13000.00000" pt_clust_9="85.35318"></scales>
<clustering>
<clus scale="   85.353">  2  9  1 -1</clus>
<clus scale="   91.160">  5  6 -1 -1</clus>
<clus scale="   93.501">  7  8 -1 -1</clus>
<clus scale="  108.090">  2  5  1 -1</clus>
<clus scale="   85.353">  2  5  1 -1</clus>
</clustering>
</event>
<event>
 9    1  0.1426358E-005  0.1376302E+03  0.7546771E-02  0.1217026E+00
         21   -1    0    0  501  502  0.00000000000E+00  0.00000000000E+00  0.51098301209E+02  0.51098301209E+02  0.00000000000E+00 0.  1.
         -1   -1    0    0    0  501 -0.00000000000E+00 -0.00000000000E+00 -0.83562142719E+03  0.83562142719E+03  0.00000000000E+00 0.  1.
         23    2    1    2    0    0  0.89652861543E+02  0.55146607252E+02 -0.62609205278E+03  0.64143706728E+03  0.91495731339E+02 0.  0.
         23    2    1    2    0    0 -0.90511586822E+02 -0.34920837218E+02 -0.17496858328E+03  0.21914249236E+03  0.89429383336E+02 0.  0.
        -11    1    3    3    0    0  0.26274579194E+02 -0.21364245614E+02 -0.88828867796E+02  0.95064989646E+02  0.00000000000E+00 0.  1.
         11    1    3    3    0    0  0.63378282349E+02  0.76510852866E+02 -0.53726318499E+03  0.54637207764E+03  0.00000000000E+00 0. -1.
        -13    1    4    4    0    0 -0.23231580577E+02 -0.53526224585E+01 -0.13174182120E+03  0.13388153105E+03  0.00000000000E+00 0.  1.
         13    1    4    4    0    0 -0.67280006245E+02 -0.29568214759E+02 -0.43226762079E+02  0.85260961314E+02  0.00000000000E+00 0. -1.
         -1    1    1    2    0  502  0.85872527916E+00 -0.20225770034E+02  0.16537510081E+02  0.26140168750E+02  0.00000000000E+00 0.  1.
<scales pt_clust_5="13000.00000" pt_clust_6="13000.00000" pt_clust_7="13000.00000" pt_clust_8="13000.00000" pt_clust_9="20.24399"></scales>
<clustering>
<clus scale="   20.244">  1  9  2 -1</clus>
<clus scale="   89.429">  7  8 -1 -1</clus>
<clus scale="   91.496">  5  6 -1 -1</clus>
<clus scale="  136.265">  1  7  2 -1</clus>
<clus scale="   20.244">  1  5  2 -1</clus>
</clustering>
</event>
<event>
 9    1  0.1426358E-005  0.1217220E+03  0.7546771E-02  0.1252011E+00
         21   -1    0    0  501  502  0.00000000000E+00  0.00000000000E+00  0.23283455551E+03  0.23283455551E+03  0.00000000000E+00 0. -1.
         -4   -1    0    0    0  501 -0.00000000000E+00 -0.00000000000E+00 -0.11744539139E+03  0.11744539139E+03  0.00000000000E+00 0.  1.
         23    2    1    2    0    0 -0.31714346220E+02  0.18121187744E+02 -0.24862917783E+02  0.12485998382E+03  0.11678045075E+03 0.  0.
         23    2    1    2    0    0  0.35528293997E+02  0.14344955569E+02  0.15984351004E+03  0.18730932524E+03  0.89815356139E+02 0.  0.
        -11    1    3    3    0    0 -0.20871524739E+00  0.53441704757E+02 -0.48309392745E+02  0.72040660718E+02  0.00000000000E+00 0. -1.
         11    1    3    3    0    0 -0.31505630972E+02 -0.35320517013E+02  0.23446474962E+02  0.52819323104E+02  0.00000000000E+00 0.  1.
        -13    1    4    4    0    0 -0.89222379150E+01 -0.32117016355E+02  0.53152090707E+02  0.62739571368E+02  0.00000000000E+00 0.  1.
         13    1    4    4    0    0  0.44450531912E+02  0.46461971925E+02  0.10669141933E+03  0.12456975388E+03  0.00000000000E+00 0. -1.
         -4    1    1    2    0  502 -0.38139477768E+01 -0.32466143313E+02 -0.19591428134E+02  0.38110637827E+02  0.00000000000E+00 0.  1.
<scales pt_clust_5="13000.00000" pt_clust_6="13000.00000" pt_clust_7="13000.00000" pt_clust_8="13000.00000" pt_clust_9="32.68941"></scales>
<clustering>
<clus scale="   32.689">  1  9  2 -1</clus>
<clus scale="   89.815">  7  8 -1 -1</clus>
<clus scale="   96.153">  1  7  2 -1</clus>
<clus scale="  116.780">  5  6 -1 -1</clus>
<clus scale="   32.689">  1  5  2 -1</clus>
</clustering>
</event>
<event>
 9    1  0.1426358E-005  0.1762471E+03  0.7546771E-02  0.1186891E+00
         -2   -1    0    0    0  501 -0.00000000000E+00  0.00000000000E+00  0.11612583738E+03  0.11612583738E+03  0.00000000000E+00 0.  1.
         21   -1    0    0  501  502  0.00000000000E+00 -0.00000000000E+00 -0.77639837983E+03  0.77639837983E+03  0.00000000000E+00 0. -1.
         23    2    1    2    0    0 -0.79072969697E+02  0.30575581607E+02  0.17162868163E+02  0.12577210630E+03  0.91305300790E+02 0.  0.
         23    2    1    2    0    0 -0.70786571224E+02 -0.10249698745E+03 -0.15707855983E+03  0.22049043114E+03  0.91793165127E+02 0.  0.
        -13    1    4    4    0    0 -0.61016545438E+01 -0.80865891242E+02 -0.11370497700E+03  0.13966153497E+03  0.00000000000E+00 0.  1.
         13    1    4    4    0    0 -0.64684916680E+02 -0.21631096209E+02 -0.43373582830E+02  0.80828896173E+02  0.00000000000E+00 0. -1.
        -13    1    3    3    0    0  0.32271344061E+01 -0.24944943026E+02  0.60929154787E+01  0.25880266577E+02  0.00000000000E+00 0. -1.
         13    1    3    3    0    0 -0.82300104104E+02  0.55520524633E+02  0.11069952684E+02  0.99891839724E+02  0.00000000000E+00 0.  1.
         -2    1    1    2    0  502  0.14985954092E+03  0.71921405844E+02 -0.52035685078E+03  0.54626167976E+03  0.00000000000E+00 0.  1.
<scales pt_clust_5="13000.00000" pt_clust_6="13000.00000" pt_clust_7="13000.00000" pt_clust_8="13000.00000" pt_clust_9="150.45618"></scales>
<clustering>
<clus scale="   91.305">  7  8 -1 -1</clus>
<clus scale="   91.793">  5  6 -1 -1</clus>
<clus scale="  124.596">  1  7  2 -1</clus>
<clus scale="  150.456">  2  9  1 -1</clus>
<clus scale="  150.456">  2  5  1 -1</clus>
</clustering>
</event>
<event>
 9    1  0.1426358E-005  0.1151764E+03  0.7546771E-02  0.1257623E+00
         21   -1    0    0  501  502  0.00000000000E+00  0.00000000000E+00  0.38166354155E+03  0.38166354155E+03  0.00000000000E+00 0. -1.
         -1   -1    0    0    0  501 -0.00000000000E+00 -0.00000000000E+00 -0.50930608516E+02  0.50930608516E+02  0.00000000000E+00 0.  1.
         23    2    1    2    0    0  0.15903000724E+02  0.52297099577E+02  0.58214056836E+02  0.12189928042E+03  0.92101390314E+02 0.  0.
         23    2    1    2    0    0 -0.70360623970E+01 -0.17267145812E+02  0.16718564943E+03  0.19933595030E+03  0.10693979245E+03 0.  0.
        -11    1    4    4    0    0  0.11485256099E+02 -0.43849658999E+02  0.21642730432E+02  0.50230583139E+02  0.00000000000E+00 0.  1.
         11    1    4    4    0    0 -0.18521318496E+02  0.26582513186E+02  0.14554291900E+03  0.14910536716E+03  0.00000000000E+00 0. -1.
        -13    1    3    3    0    0  0.39745472547E+02  0.39009336474E+02  0.72237558297E+02  0.91212366205E+02  0.00000000000E+00 0.  1.
         13    1    3    3    0    0 -0.23842471822E+02  0.13287763103E+02 -0.14023501461E+02  0.30686914216E+02  0.00000000000E+00 0. -1.
         -1    1    1    2    0  502 -0.88669383274E+01 -0.35029953765E+02  0.10533322676E+03  0.11135891934E+03  0.00000000000E+00 0.  1.
<scales pt_clust_5="13000.00000" pt_clust_6="13000.00000" pt_clust_7="13000.00000" pt_clust_8="13000.00000" pt_clust_9="36.13475"></scales>
<clustering>
<clus scale="   36.135">  1  9  2 -1</clus>
<clus scale="   92.101">  7  8 -1 -1</clus>
<clus scale="  101.549">  2  7  1 -1</clus>
<clus scale="  106.940">  5  6 -1 -1</clus>
<clus scale="   36.135">  1  5  2 -1</clus>
</clustering>
</event>
<event>
 9    1  0.1426358E-005  0.1772758E+03  0.7546771E-02  0.1188251E+00
         21   -1    0    0  501  502  0.00000000000E+00  0.00000000000E+00  0.14573191529E+03  0.14573191529E+03  0.00000000000E+00 0. -1.
          2   -1    0    0  502    0 -0.00000000000E+00 -0.00000000000E+00 -0.41133754457E+03  0.41133754457E+03  0.00000000000E+00 0. -1.
         23    2    1    2    0    0  0.61331549819E+02 -0.43227743760E+02 -0.16473571414E+03  0.20310534007E+03  0.92107148585E+02 0.  0.
         23    2    1    2    0    0 -0.18046711956E+03 -0.16934029651E+02 -0.33778905214E+02  0.20458565223E+03  0.88651745949E+02 0.  0.
        -11    1    3    3    0    0 -0.17223412380E+02 -0.18382836092E+02 -0.86953645799E+01  0.26649276950E+02  0.00000000000E+00 0.  1.
         11    1    3    3    0    0  0.78554962199E+02 -0.24844907668E+02 -0.15604034956E+03  0.17645606312E+03  0.00000000000E+00 0. -1.
        -13    1    4    4    0    0 -0.16977010507E+03  0.88757077437E+01 -0.14455114149E+02  0.17061540695E+03  0.00000000000E+00 0. -1.
         13    1    4    4    0    0 -0.10697014486E+02 -0.25809737395E+02 -0.19323791064E+02  0.33970245280E+02  0.00000000000E+00 0.  1.
          2    1    1    2  501    0  0.11913556974E+03  0.60161773411E+02 -0.67091009928E+02  0.14937846756E+03  0.00000000000E+00 0. -1.
<scales pt_clust_5="13000.00000" pt_clust_6="13000.00000" pt_clust_7="13000.00000" pt_clust_8="13000.00000" pt_clust_9="153.51745"></scales>
<clustering>
<clus scale="   88.652">  7  8 -1 -1</clus>
<clus scale="   92.107">  5  6 -1 -1</clus>
<clus scale="  118.802">  2  5  1 -1</clus>
<clus scale="  153.517">  1  9  2 -1</clus>
<clus scale="  153.517">  1  5  2 -1</clus>
</clustering>
</event>
<event>
 9    1  0.1426358E-005  0.1481295E+03  0.7546771E-02  0.1217558E+00
          1   -1    0    0  502    0 -0.00000000000E+00  0.00000000000E+00  0.40637385556E+03  0.40637385556E+03  0.00000000000E+00 0. -1.
         21   -1    0    0  501  502  0.00000000000E+00 -0.00000000000E+00 -0.15355327598E+03  0.15355327598E+03  0.00000000000E+00 0. -1.
         23    2    1    2    0    0 -0.52166383019E+02  0.23348550059E+02  0.21086070836E+02  0.11011374325E+03  0.91727464606E+02 0.  0.
         23    2    1    2    0    0 -0.82485157815E+01 -0.12400017878E+03  0.28259522048E+03  0.32187777027E+03  0.91110690928E+02 0.  0.
        -11    1    3    3    0    0 -0.38853896458E+02  0.58438124088E+02  0.93764089707E+01  0.70799411453E+02  0.00000000000E+00 0.  1.
         11    1    3    3    0    0 -0.13312486561E+02 -0.35089574029E+02  0.11709661865E+02  0.39314331802E+02  0.00000000000E+00 0. -1.
        -11    1    4    4    0    0 -0.40664972491E+02 -0.34493820166E+02  0.14557715422E+03  0.15503603274E+03  0.00000000000E+00 0.  1.
         11    1    4    4    0    0  0.32416456709E+02 -0.89506358610E+02  0.13701806626E+03  0.16684173752E+03  0.00000000000E+00 0. -1.
          1    1    1    2  501    0  0.60414898801E+02  0.10065162872E+03 -0.50860711732E+02  0.12793561802E+03  0.00000000000E+00 0. -1.
<scales pt_clust_5="13000.00000" pt_clust_6="13000.00000" pt_clust_7="13000.00000" pt_clust_8="13000.00000" pt_clust_9="116.79551"></scales>
<clustering>
<clus scale="   91.111">  7  8 -1 -1</clus>
<clus scale="   91.727">  5  6 -1 -1</clus>
<clus scale="  108.076">  1  5  2 -1</clus>
<clus scale="  116.796">  2  9  1 -1</clus>
<clus scale="  116.796">  2  5  1 -1</clus>
</clustering>
</event>
<event>
 9    1  0.1426358E-005  0.1849500E+03  0.7546771E-02  0.1163423E+00
         21   -1    0    0  501  502  0.00000000000E+00  0.00000000000E+00  0.81530803099E+02  0.81530803099E+02  0.00000000000E+00 0.  1.
          1   -1    0    0  502    0 -0.00000000000E+00 -0.00000000000E+00 -0.96835169285E+03  0.96835169285E+03  0.00000000000E+00 0. -1.
         23    2    1    2    0    0  0.14963750729E+03 -0.49091655119E+02 -0.79296568251E+03  0.81392694803E+03  0.94239741647E+02 0.  0.
         23    2    1    2    0    0 -0.15415613459E+03  0.70824240361E+02 -0.92309149377E+02  0.21370440078E+03  0.91478986654E+02 0.  0.
        -11    1    3    3    0    0  0.77834247486E+02 -0.69227580615E+02 -0.36759925415E+03  0.38207308156E+03  0.00000000000E+00 0. -1.
         11    1    3    3    0    0  0.71803259806E+02  0.20135925496E+02 -0.42536642835E+03  0.43185386647E+03  0.00000000000E+00 0.  1.
        -13    1    4    4    0    0 -0.79242469207E+02  0.56858170103E+02 -0.47757072132E+01  0.97647467007E+02  0.00000000000E+00 0.  1.
         13    1    4    4    0    0 -0.74913665386E+02  0.13966070258E+02 -0.87533442164E+02  0.11605693377E+03  0.00000000000E+00 0. -1.
          1    1    1    2  501    0  0.45186273013E+01 -0.21732585242E+02 -0.15460578682E+01  0.22251147137E+02  0.00000000000E+00 0. -1.
<scales pt_clust_5="13000.00000" pt_clust_6="13000.00000" pt_clust_7="13000.00000" pt_clust_8="13000.00000" pt_clust_9="22.19737"></scales>
<clustering>
<clus scale="   22.197">  1  9  2 -1</clus>
<clus scale="   91.479">  7  8 -1 -1</clus>
<clus scale="   94.240">  5  6 -1 -1</clus>
<clus scale="  183.559">  1  7  2 -1</clus>
<clus scale="   22.197">  1  5  2 -1</clus>
</clustering>
</event>
<event>
 9    1  0.1426358E-005  0.1065431E+03  0.7546771E-02  0.1268094E+00
         21   -1    0    0  501  502  0.00000000000E+00  0.00000000000E+00  0.37183282887E+02  0.37183282887E+02  0.00000000000E+00 0. -1.
         -3   -1    0    0    0  501 -0.00000000000E+00 -0.00000000000E+00 -0.45910493734E+03  0.45910493734E+03  0.00000000000E+00 0.  1.
         23    2    1    2    0    0 -0.38042619956E+02  0.28958261865E+02 -0.25298049092E+03  0.27283402405E+03  0.90296478514E+02 0.  0.
         23    2    1    2    0    0  0.36539733635E+02 -0.50578997832E+02 -0.16803300832E+03  0.20176227056E+03  0.92625778169E+02 0.  0.
        -13    1    4    4    0    0 -0.23121067881E+01 -0.42653423262E+02 -0.17614724355E+02  0.46205398688E+02  0.00000000000E+00 0. -1.
         13    1    4    4    0    0  0.38851840423E+02 -0.79255745699E+01 -0.15041828396E+03  0.15555687187E+03  0.00000000000E+00 0.  1.
        -13    1    3    3    0    0  0.13452194499E+02  0.41252380739E+02 -0.70079076755E+02  0.82424495463E+02  0.00000000000E+00 0. -1.
         13    1    3    3    0    0 -0.51494814455E+02 -0.12294118874E+02 -0.18290141417E+03  0.19040952859E+03  0.00000000000E+00 0.  1.
         -3    1    1    2    0  502  0.15028863215E+01  0.21620735967E+02 -0.90815521911E+00  0.21691925616E+02  0.00000000000E+00 0.  1.
<scales pt_clust_5="13000.00000" pt_clust_6="13000.00000" pt_clust_7="13000.00000" pt_clust_8="13000.00000" pt_clust_9="21.67291"></scales>
<clustering>
<clus scale="   21.673">  1  9  2 -1</clus>
<clus scale="   90.296">  7  8 -1 -1</clus>
<clus scale="   92.626">  5  6 -1 -1</clus>
<clus scale="  104.524">  2  7  1 -1</clus>
<clus scale="   21.673">  1  5  2 -1</clus>
</clustering>
</event>
<event>
 9    1  0.1426358E-005  0.9081948E+02  0.7546771E-02  0.1304173E+00
         21   -1    0    0  501  502  0.00000000000E+00  0.00000000000E+00  0.31495165618E+03  0.31495165618E+03  0.00000000000E+00 0.  1.
         -1   -1    0    0    0  501 -0.00000000000E+00 -0.00000000000E+00 -0.23010016984E+03  0.23010016984E+03  0.00000000000E+00 0.  1.
         23    2    1    2    0    0  0.12326470424E+02  0.87602546766E+01 -0.17581643071E+03  0.19830919509E+03  0.90478923597E+02 0.  0.
         23    2    1    2    0    0  0.68051009972E+02  0.32037465421E+01  0.48098487235E+02  0.11916969939E+03  0.85127838148E+02 0.  0.
        -11    1    3    3    0    0 -0.11617420589E+02 -0.28199330991E+02 -0.20199620230E+02  0.36581298322E+02  0.00000000000E+00 0. -1.
         11    1    3    3    0    0  0.23943891013E+02  0.36959585668E+02 -0.15561681048E+03  0.16172789677E+03  0.00000000000E+00 0.  1.
        -13    1    4    4    0    0  0.88048785607E+02  0.37727507327E+01  0.32998331238E+02  0.94104793499E+02  0.00000000000E+00 0.  1.
         13    1    4    4    0    0 -0.19997775635E+02 -0.56900419062E+00  0.15100155996E+02  0.25064905889E+02  0.00000000000E+00 0. -1.
         -1    1    1    2    0  502 -0.80377480396E+02 -0.11964001219E+02  0.21256942981E+03  0.22757293154E+03  0.00000000000E+00 0.  1.
<scales pt_clust_5="13000.00000" pt_clust_6="13000.00000" pt_clust_7="13000.00000" pt_clust_8="13000.00000" pt_clust_9="81.26301"></scales>
<clustering>
<clus scale="   81.263">  1  9  2 -1</clus>
<clus scale="   85.128">  7  8 -1 -1</clus>
<clus scale="   85.490">  1  7  2 -1</clus>
<clus scale="   90.479">  5  6 -1 -1</clus>
<clus scale="   81.263">  1  5  2 -1</clus>
</clustering>
</event>
<event>
 9    1  0.1426358E-005  0.1083826E+03  0.7546771E-02  0.1263937E+00
         -4   -1    0    0    0  501 -0.00000000000E+00  0.00000000000E+00  0.75841043542E+02  0.75841043542E+02  0.00000000000E+00 0.  1.
         21   -1    0    0  501  502  0.00000000000E+00 -0.00000000000E+00 -0.25831901198E+03  0.25831901198E+03  0.00000000000E+00 0.  1.
         23    2    1    2    0    0 -0.28765010293E+02 -0.39110187205E+02 -0.66650496561E+02  0.12320995551E+03  0.91549832801E+02 0.  0.
         23    2    1    2    0    0  0.13797537191E+00  0.78719385242E+02 -0.10789006054E+03  0.16143850342E+03  0.90693795672E+02 0.  0.
        -11    1    4    4    0    0  0.15232877372E+02  0.32415464624E+02 -0.10688461184E+03  0.11272587613E+03  0.00000000000E+00 0.  1.
         11    1    4    4    0    0 -0.15094902000E+02  0.46303920619E+02 -0.10054487011E+01  0.48712627297E+02  0.00000000000E+00 0. -1.
        -11    1    3    3    0    0 -0.20649306571E+02 -0.62823450785E+02 -0.18084893830E+02  0.68558319811E+02  0.00000000000E+00 0.  1.
         11    1    3    3    0    0 -0.81157037217E+01  0.23713263580E+02 -0.48565602731E+02  0.54651635704E+02  0.00000000000E+00 0. -1.
         -4    1    1    2    0  502  0.28627034921E+02 -0.39609198038E+02 -0.79374113321E+01  0.49511596583E+02  0.00000000000E+00 0.  1.
<scales pt_clust_5="13000.00000" pt_clust_6="13000.00000" pt_clust_7="13000.00000" pt_clust_8="13000.00000" pt_clust_9="48.87124"></scales>
<clustering>
<clus scale="   48.871">  2  9  1 -1</clus>
<clus scale="   90.694">  5  6 -1 -1</clus>
<clus scale="   91.550">  7  8 -1 -1</clus>
<clus scale="  107.661">  2  5  1 -1</clus>
<clus scale="   48.871">  2  5  1 -1</clus>
</clustering>
</event>
<event>
 9    1  0.1426358E-005  0.9758476E+02  0.7546771E-02  0.1287397E+00
          2   -1    0    0  502    0 -0.00000000000E+00  0.00000000000E+00  0.48502106877E+03  0.48502106877E+03  0.00000000000E+00 0. -1.
         21   -1    0    0  501  502  0.00000000000E+00 -0.00000000000E+00 -0.33605625500E+02  0.33605625500E+02  0.00000000000E+00 0.  1.
         23    2    1    2    0    0 -0.33378878143E+01  0.42011471419E+02  0.28047054996E+03  0.29773519679E+03  0.90589253159E+02 0.  0.
         23    2    1    2    0    0  0.16896059803E+02 -0.26032084704E+02  0.17657444086E+03  0.19919226632E+03  0.86809443772E+02 0.  0.
        -11    1    3    3    0    0  0.29437391975E+02  0.53998750756E+02  0.13854839532E+03  0.15158523337E+03  0.00000000000E+00 0.  1.
         11    1    3    3    0    0 -0.32775279789E+02 -0.11987279338E+02  0.14192215463E+03  0.14614996342E+03  0.00000000000E+00 0. -1.
        -13    1    4    4    0    0  0.38403002712E+02 -0.13394960700E+02  0.30073766496E+02  0.50583070495E+02  0.00000000000E+00 0.  1.
         13    1    4    4    0    0 -0.21506942909E+02 -0.12637124004E+02  0.14650067436E+03  0.14860919583E+03  0.00000000000E+00 0. -1.
          2    1    1    2  501    0 -0.13558171988E+02 -0.15979386715E+02 -0.56295475407E+01  0.21699231161E+02  0.00000000000E+00 0. -1.
<scales pt_clust_5="13000.00000" pt_clust_6="13000.00000" pt_clust_7="13000.00000" pt_clust_8="13000.00000" pt_clust_9="20.95626"></scales>
<clustering>
<clus scale="   20.956">  2  9  1 -1</clus>
<clus scale="   86.809">  7  8 -1 -1</clus>
<clus scale="   90.589">  5  6 -1 -1</clus>
<clus scale="   94.086">  2  7  1 -1</clus>
<clus scale="   20.956">  2  5  1 -1</clus>
</clustering>
</event>
<event>
 9    1  0.1426358E-005  0.1248307E+03  0.7546771E-02  0.1235653E+00
         21   -1    0    0  501  502  0.00000000000E+00  0.00000000000E+00  0.12064373804E+03  0.12064373804E+03  0.00000000000E+00 0. -1.
         -1   -1    0    0    0  501 -0.00000000000E+00 -0.00000000000E+00 -0.26313211351E+03  0.26313211351E+03  0.00000000000E+00 0.  1.
         23    2    1    2    0    0  0.51225974552E+02 -0.69021321282E+02 -0.13763408769E+03  0.18664211110E+03  0.92217635424E+02 0.  0.
         23    2    1    2    0    0 -0.67590811466E+02  0.49224466989E+02 -0.59137915161E+02  0.13708013499E+03  0.91115884754E+02 0.  0.
        -11    1    4    4    0    0 -0.15879532530E+02  0.42704634717E+02 -0.70304305157E+02  0.83776731276E+02  0.00000000000E+00 0.  1.
         11    1    4    4    0    0 -0.51711278936E+02  0.65198322723E+01  0.11166389996E+02  0.53303403715E+02  0.00000000000E+00 0. -1.
        -11    1    3    3    0    0 -0.24384566884E+02 -0.38658264225E+01 -0.40086463102E+02  0.47079467288E+02  0.00000000000E+00 0. -1.
         11    1    3    3    0    0  0.75610541436E+02 -0.65155494859E+02 -0.97547624583E+02  0.13956264381E+03  0.00000000000E+00 0.  1.
         -1    1    1    2    0  502  0.16364836914E+02  0.19796854293E+02  0.54283627373E+02  0.60053605453E+02  0.00000000000E+00 0.  1.
<scales pt_clust_5="13000.00000" pt_clust_6="13000.00000" pt_clust_7="13000.00000" pt_clust_8="13000.00000" pt_clust_9="25.68508"></scales>
<clustering>
<clus scale="   25.685">  1  9  2 -1</clus>
<clus scale="   91.116">  5  6 -1 -1</clus>
<clus scale="   92.218">  7  8 -1 -1</clus>
<clus scale="  124.019">  1  5  2 -1</clus>
<clus scale="   25.685">  1  5  2 -1</clus>
</clustering>
</event>
<event>
 9    1  0.1426358E-005  0.1140713E+03  0.7546771E-02  0.1253676E+00
         21   -1    0    0  501  502  0.00000000000E+00  0.00000000000E+00  0.45501179577E+03  0.45501179577E+03  0.00000000000E+00 0.  1.
         -1   -1    0    0    0  501 -0.00000000000E+00 -0.00000000000E+00 -0.63297721733E+02  0.63297721733E+02  0.00000000000E+00 0.  1.
         23    2    1    2    0    0 -0.55663491146E+02  0.47266919817E+02  0.74069362755E+02  0.13753824244E+03  0.89988397464E+02 0.  0.
         23    2    1    2    0    0 -0.10088543172E+02 -0.83510297090E+02  0.13556659153E+03  0.18382114406E+03  0.91302594920E+02 0.  0.
        -13    1    4    4    0    0 -0.24746006709E+02 -0.14832144845E+01  0.79783783327E+02  0.83546495170E+02  0.00000000000E+00 0.  1.
         13    1    4    4    0    0  0.14657463536E+02 -0.82027082605E+02  0.55782808206E+02  0.10027464889E+03  0.00000000000E+00 0. -1.
        -13    1    3    3    0    0  0.14655397272E+02 -0.14577897031E+02  0.22803469096E+02  0.30778140845E+02  0.00000000000E+00 0. -1.
         13    1    3    3    0    0 -0.70318888418E+02  0.61844816847E+02  0.51265893660E+02  0.10676010159E+03  0.00000000000E+00 0.  1.
         -1    1    1    2    0  502  0.65752034318E+02  0.36243377273E+02  0.18207811974E+03  0.19695013101E+03  0.00000000000E+00 0.  1.
<scales pt_clust_5="13000.00000" pt_clust_6="13000.00000" pt_clust_7="13000.00000" pt_clust_8="13000.00000" pt_clust_9="75.07937"></scales>
<clustering>
<clus scale="   75.079">  1  9  2 -1</clus>
<clus scale="   89.988">  7  8 -1 -1</clus>
<clus scale="   91.303">  5  6 -1 -1</clus>
<clus scale="  113.022">  2  7  1 -1</clus>
<clus scale="   75.079">  1  5  2 -1</clus>
</clustering>
</event>
<event>
 9    1  0.1426358E-005  0.1143953E+03  0.7546771E-02  0.1253203E+00
         21   -1    0    0  501  502  0.00000000000E+00  0.00000000000E+00  0.24126566681E+02  0.24126566681E+02  0.00000000000E+00 0.  1.
          3   -1    0    0  502    0 -0.00000000000E+00 -0.00000000000E+00 -0.10129852762E+04  0.10129852762E+04  0.00000000000E+00 0. -1.
         23    2    1    2    0    0 -0.78515652011E+02 -0.85691171346E+01 -0.58678288817E+03  0.59888459475E+03  0.90058106747E+02 0.  0.
         23    2    1    2    0    0  0.43091401300E+02 -0.30133307458E+02 -0.16896073169E+03  0.19928081014E+03  0.91652754190E+02 0.  0.
        -11    1    4    4    0    0  0.48445811483E+02 -0.52576027656E+02 -0.79613380658E+02  0.10700245658E+03  0.00000000000E+00 0.  1.
         11    1    4    4    0    0 -0.53544101833E+01  0.22442720199E+02 -0.89347351035E+02  0.92278353557E+02  0.00000000000E+00 0. -1.
        -13    1    3    3    0    0  0.34325221073E+01  0.29177649105E+02 -0.15884585195E+03  0.16153984678E+03  0.00000000000E+00 0.  1.
         13    1    3    3    0    0 -0.81948174118E+02 -0.37746766240E+02 -0.42793703622E+03  0.43734474797E+03  0.00000000000E+00 0. -1.
          3    1    1    2  501    0  0.35424250711E+02  0.38702424592E+02 -0.23311508963E+03  0.23894643797E+03  0.00000000000E+00 0. -1.
<scales pt_clust_5="13000.00000" pt_clust_6="13000.00000" pt_clust_7="13000.00000" pt_clust_8="13000.00000" pt_clust_9="52.46673"></scales>
<clustering>
<clus scale="   52.467">  1  9  2 -1</clus>
<clus scale="   90.058">  7  8 -1 -1</clus>
<clus scale="   91.653">  5  6 -1 -1</clus>
<clus scale="  113.122">  2  7  1 -1</clus>
<clus scale="   52.467">  1  5  2 -1</clus>
</clustering>
</event>
<event>
 9    1  0.1426358E-005  0.1332069E+03  0.7546771E-02  0.1222879E+00
         21   -1    0    0  501  502  0.00000000000E+00  0.00000000000E+00  0.66403841679E+02  0.66403841679E+02  0.00000000000E+00 0. -1.
          1   -1    0    0  502    0 -0.00000000000E+00 -0.00000000000E+00 -0.44823858755E+03  0.44823858755E+03  0.00000000000E+00 0. -1.
         23    2    1    2    0    0 -0.55676697576E+02  0.81708536463E+02 -0.28633185097E+03  0.31605078359E+03  0.90144269618E+02 0.  0.
         23    2    1    2    0    0  0.29628027229E+02 -0.94731274690E+02 -0.10261869185E+03  0.16861232771E+03  0.89708899985E+02 0.  0.
        -11    1    3    3    0    0 -0.44384241927E+02  0.63440722300E+02 -0.28409702104E+03  0.29445849205E+03  0.00000000000E+00 0. -1.
         11    1    3    3    0    0 -0.11292455649E+02  0.18267814163E+02 -0.22348299228E+01  0.21592291533E+02  0.00000000000E+00 0.  1.
        -13    1    4    4    0    0  0.35734939503E+01 -0.28355389392E+02 -0.92225813544E+02  0.96552569362E+02  0.00000000000E+00 0.  1.
         13    1    4    4    0    0  0.26054533279E+02 -0.66375885298E+02 -0.10392878306E+02  0.72059758346E+02  0.00000000000E+00 0. -1.
          1    1    1    2  501    0  0.26048670346E+02  0.13022738227E+02  0.71157969422E+01  0.29979317935E+02  0.00000000000E+00 0. -1.
<scales pt_clust_5="13000.00000" pt_clust_6="13000.00000" pt_clust_7="13000.00000" pt_clust_8="13000.00000" pt_clust_9="29.12258"></scales>
<clustering>
<clus scale="   29.123">  1  9  2 -1</clus>
<clus scale="   89.709">  7  8 -1 -1</clus>
<clus scale="   90.144">  5  6 -1 -1</clus>
<clus scale="  132.913">  1  7  2 -1</clus>
<clus scale="   29.123">  1  5  2 -1</clus>
</clustering>
</event>
<event>
 9    1  0.1426358E-005  0.1449351E+03  0.7546771E-02  0.1206864E+00
         21   -1    0    0  501  502  0.00000000000E+00  0.00000000000E+00  0.10894402216E+04  0.10894402216E+04  0.00000000000E+00 0.  1.
          2   -1    0    0  502    0 -0.00000000000E+00 -0.00000000000E+00 -0.44221864813E+02  0.44221864813E+02  0.00000000000E+00 0. -1.
         23    2    1    2    0    0 -0.13621956218E+03 -0.37061680559E+02  0.21603359809E+03  0.27398589413E+03  0.92024004429E+02 0.  0.
         23    2    1    2    0    0  0.67778004886E+02  0.43629502768E+02  0.27126624556E+03  0.29753701881E+03  0.91899456607E+02 0.  0.
        -11    1    3    3    0    0 -0.14653529702E+03 -0.19093992750E+02  0.18793172841E+03  0.23907218235E+03  0.00000000000E+00 0. -1.
         11    1    3    3    0    0  0.10315734839E+02 -0.17967687808E+02  0.28101869678E+02  0.34913711774E+02  0.00000000000E+00 0.  1.
        -11    1    4    4    0    0  0.78491375584E+02  0.61448523420E+02  0.24114943053E+03  0.26094034743E+03  0.00000000000E+00 0.  1.
         11    1    4    4    0    0 -0.10713370698E+02 -0.17819020651E+02  0.30116815033E+02  0.36596671384E+02  0.00000000000E+00 0. -1.
          2    1    1    2  501    0  0.68441557294E+02 -0.65678222098E+01  0.55791851315E+03  0.56213917349E+03  0.00000000000E+00 0. -1.
<scales pt_clust_5="13000.00000" pt_clust_6="13000.00000" pt_clust_7="13000.00000" pt_clust_8="13000.00000" pt_clust_9="68.75597"></scales>
<clustering>
<clus scale="   68.756">  1  9  2 -1</clus>
<clus scale="   91.899">  7  8 -1 -1</clus>
<clus scale="   92.024">  5  6 -1 -1</clus>
<clus scale="  144.856">  1  7  2 -1</clus>
<clus scale="   68.756">  1  5  2 -1</clus>
</clustering>
</event>
<event>
 9    1  0.1426358E-005  0.1151014E+03  0.7546771E-02  0.1253075E+00
         21   -1    0    0  501  502  0.00000000000E+00  0.00000000000E+00  0.22056354863E+03  0.22056354863E+03  0.00000000000E+00 0. -1.
         -3   -1    0    0    0  501 -0.00000000000E+00 -0.00000000000E+00 -0.85018462335E+02  0.85018462335E+02  0.00000000000E+00 0.  1.
         23    2    1    2    0    0 -0.25503831819E+02  0.44775963271E+02  0.28522734239E+02  0.11334404130E+03  0.96840038240E+02 0.  0.
         23    2    1    2    0    0  0.57978613213E+02 -0.53760046607E+02  0.63348694252E+02  0.13707717230E+03  0.92333265404E+02 0.  0.
        -11    1    3    3    0    0 -0.53313689823E+02  0.26278222439E+01 -0.35948043089E+01  0.53499323269E+02  0.00000000000E+00 0.  1.
         11    1    3    3    0    0  0.27809858004E+02  0.42148141027E+02  0.32117538548E+02  0.59844718034E+02  0.00000000000E+00 0. -1.
        -11    1    4    4    0    0  0.15990078829E+02 -0.72948760178E+02  0.46276315666E+02  0.87856141641E+02  0.00000000000E+00 0.  1.
         11    1    4    4    0    0  0.41988534385E+02  0.19188713571E+02  0.17072378585E+02  0.49221030656E+02  0.00000000000E+00 0. -1.
         -3    1    1    2    0  502 -0.32474781394E+02  0.89840833365E+01  0.43673657807E+02  0.55160797367E+02  0.00000000000E+00 0.  1.
<scales pt_clust_5="13000.00000" pt_clust_6="13000.00000" pt_clust_7="13000.00000" pt_clust_8="13000.00000" pt_clust_9="33.69459"></scales>
<clustering>
<clus scale="   33.695">  1  9  2 -1</clus>
<clus scale="   92.333">  7  8 -1 -1</clus>
<clus scale="   96.840">  5  6 -1 -1</clus>
<clus scale="  111.336">  1  7  2 -1</clus>
<clus scale="   33.695">  1  5  2 -1</clus>
</clustering>
</event>
<event>
 9    1  0.1426358E-005  0.1242525E+03  0.7546771E-02  0.1239373E+00
          1   -1    0    0  502    0 -0.00000000000E+00  0.00000000000E+00  0.26969345251E+03  0.26969345251E+03  0.00000000000E+00 0. -1.
         21   -1    0    0  501  502  0.00000000000E+00 -0.00000000000E+00 -0.18996481354E+03  0.18996481354E+03  0.00000000000E+00 0. -1.
         23    2    1    2    0    0  0.89744877116E+01  0.87585682052E+02  0.15718938889E+03  0.20505714228E+03  0.97919020068E+02 0.  0.
         23    2    1    2    0    0 -0.28907308481E+02 -0.55951766121E+02  0.51865655779E+02  0.11997816439E+03  0.87968636826E+02 0.  0.
        -11    1    4    4    0    0  0.52734850549E+01 -0.68951013647E+02  0.45710623303E+02  0.82894589754E+02  0.00000000000E+00 0.  1.
         11    1    4    4    0    0 -0.34180793536E+02  0.12999247526E+02  0.61550324755E+01  0.37083574636E+02  0.00000000000E+00 0. -1.
        -13    1    3    3    0    0 -0.23759070978E+02 -0.67844347057E+01  0.88972223126E+01  0.26261808256E+02  0.00000000000E+00 0.  1.
         13    1    3    3    0    0  0.32733558689E+02  0.94370116758E+02  0.14829216658E+03  0.17879533403E+03  0.00000000000E+00 0. -1.
          1    1    1    2  501    0  0.19932820769E+02 -0.31633915931E+02 -0.12932640570E+03  0.13462295938E+03  0.00000000000E+00 0. -1.
<scales pt_clust_5="13000.00000" pt_clust_6="13000.00000" pt_clust_7="13000.00000" pt_clust_8="13000.00000" pt_clust_9="37.39013"></scales>
<clustering>
<clus scale="   37.390">  2  9  1 -1</clus>
<clus scale="   87.969">  5  6 -1 -1</clus>
<clus scale="   97.919">  7  8 -1 -1</clus>
<clus scale="  116.572">  2  5  1 -1</clus>
<clus scale="   37.390">  2  5  1 -1</clus>
</clustering>
</event>
<event>
 9    1  0.4380765E-005  0.1389949E+03  0.7546771E-02  0.1216113E+00
         21   -1    0    0  501  502  0.00000000000E+00  0.00000000000E+00  0.23871543235E+03  0.23871543235E+03  0.00000000000E+00 0. -1.
          1   -1    0    0  502    0 -0.00000000000E+00 -0.00000000000E+00 -0.44343432416E+03  0.44343432416E+03  0.00000000000E+00 0. -1.
         23    2    1    2    0    0 -0.10269614387E+03 -0.95094634373E+02 -0.31784792350E+03  0.35885542749E+03  0.90335086807E+02 0.  0.
         23    2    1    2    0    0  0.37324091066E+02  0.20508527836E+02 -0.61829212252E+02  0.12217998418E+03  0.96391957959E+02 0.  0.
        -11    1    4    4    0    0  0.39471408944E+02 -0.32435062563E+02 -0.39947976818E+02  0.64852650365E+02  0.00000000000E+00 0. -1.
         11    1    4    4    0    0 -0.21473178780E+01  0.52943590400E+02 -0.21881235434E+02  0.57327333817E+02  0.00000000000E+00 0.  1.
        -13    1    3    3    0    0 -0.84291268814E+01 -0.33677584792E+02 -0.19099202494E+02  0.39623344550E+02  0.00000000000E+00 0.  1.
         13    1    3    3    0    0 -0.94267016993E+02 -0.61417049581E+02 -0.29874872101E+03  0.31923208294E+03  0.00000000000E+00 0. -1.
          1    1    1    2  501    0  0.65372052809E+02  0.74586106536E+02  0.17495824395E+03  0.20111434484E+03  0.00000000000E+00 0. -1.
<scales pt_clust_5="13000.00000" pt_clust_6="13000.00000" pt_clust_7="13000.00000" pt_clust_8="13000.00000" pt_clust_9="99.17960"></scales>
<clustering>
<clus scale="   90.335">  7  8 -1 -1</clus>
<clus scale="   96.392">  5  6 -1 -1</clus>
<clus scale="   99.180">  1  9  2 -1</clus>
<clus scale="  134.865">  2  7  1 -1</clus>
<clus scale="   99.180">  1  5  2 -1</clus>
</clustering>
</event>
<event>
 9    1  0.1426358E-005  0.1357982E+03  0.7546771E-02  0.1219874E+00
         -2   -1    0    0    0  501 -0.00000000000E+00  0.00000000000E+00  0.14861995895E+03  0.14861995895E+03  0.00000000000E+00 0.  1.
         21   -1    0    0  501  502  0.00000000000E+00 -0.00000000000E+00 -0.18733730828E+03  0.18733730828E+03  0.00000000000E+00 0. -1.
         23    2    1    2    0    0 -0.55610718072E+00  0.11056845196E+03  0.53316868489E+02  0.15227398384E+03  0.90105415290E+02 0.  0.
         23    2    1    2    0    0 -0.23282267617E+02 -0.81445895793E+02 -0.72602452711E+02  0.14132782464E+03  0.86757938828E+02 0.  0.
        -11    1    3    3    0    0 -0.17822221810E+02  0.90799782737E+01  0.44695381237E+02  0.48966873492E+02  0.00000000000E+00 0. -1.
         11    1    3    3    0    0  0.17266114629E+02  0.10148847369E+03  0.86214872519E+01  0.10330711035E+03  0.00000000000E+00 0.  1.
        -11    1    4    4    0    0 -0.52231879400E+02 -0.60684098551E+02 -0.68679768559E+02  0.10548762796E+03  0.00000000000E+00 0. -1.
         11    1    4    4    0    0  0.28949611782E+02 -0.20761797242E+02 -0.39226841520E+01  0.35840196679E+02  0.00000000000E+00 0.  1.
         -2    1    1    2    0  502  0.23838374798E+02 -0.29122556171E+02 -0.19431765111E+02  0.42355458754E+02  0.00000000000E+00 0.  1.
<scales pt_clust_5="13000.00000" pt_clust_6="13000.00000" pt_clust_7="13000.00000" pt_clust_8="13000.00000" pt_clust_9="37.63498"></scales>
<clustering>
<clus scale="   37.635">  2  9  1 -1</clus>
<clus scale="   86.758">  7  8 -1 -1</clus>
<clus scale="   90.105">  5  6 -1 -1</clus>
<clus scale="  133.601">  2  7  1 -1</clus>
<clus scale="   37.635">  2  5  1 -1</clus>
</clustering>
</event>
<event>
 9    1  0.1426358E-005  0.1078142E+03  0.7546771E-02  0.1265279E+00
         21   -1    0    0  501  502  0.00000000000E+00  0.00000000000E+00  0.18117208880E+03  0.18117208880E+03  0.00000000000E+00 0.  1.
          2   -1    0    0  502    0 -0.00000000000E+00 -0.00000000000E+00 -0.79452323875E+02  0.79452323875E+02  0.00000000000E+00 0. -1.
         23    2    1    2    0    0 -0.35166742054E+02 -0.25436248557E+02  0.48507548336E+02  0.11346591219E+03  0.92939918748E+02 0.  0.
         23    2    1    2    0    0  0.39656070641E+02  0.48094686575E+02  0.50580418483E+02  0.12391016192E+03  0.94390924759E+02 0.  0.
        -11    1    3    3    0    0  0.70447878353E+01  0.23651186523E+02  0.41584657246E+02  0.48355882556E+02  0.00000000000E+00 0.  1.
         11    1    3    3    0    0 -0.42211529889E+02 -0.49087435079E+02  0.69228910900E+01  0.65110029637E+02  0.00000000000E+00 0. -1.
        -13    1    4    4    0    0  0.64499610676E+02  0.14950163550E+02  0.49159030804E+02  0.82464037478E+02  0.00000000000E+00 0.  1.
         13    1    4    4    0    0 -0.24843540035E+02  0.33144523025E+02  0.14213876783E+01  0.41446124439E+02  0.00000000000E+00 0. -1.
          2    1    1    2  501    0 -0.44893285874E+01 -0.22658438018E+02  0.26317981026E+01  0.23248338561E+02  0.00000000000E+00 0. -1.
<scales pt_clust_5="13000.00000" pt_clust_6="13000.00000" pt_clust_7="13000.00000" pt_clust_8="13000.00000" pt_clust_9="23.09891"></scales>
<clustering>
<clus scale="   23.099">  1  9  2 -1</clus>
<clus scale="   92.940">  5  6 -1 -1</clus>
<clus scale="   94.391">  7  8 -1 -1</clus>
<clus scale="  106.546">  2  5  1 -1</clus>
<clus scale="   23.099">  1  5  2 -1</clus>
</clustering>
</event>
<event>
 9    1  0.1426358E-005  0.1395565E+03  0.7546771E-02  0.1215844E+00
          1   -1    0    0  502    0 -0.00000000000E+00  0.00000000000E+00  0.97040940603E+03  0.97040940603E+03  0.00000000000E+00 0. -1.
         21   -1    0    0  501  502  0.00000000000E+00 -0.00000000000E+00 -0.42867698342E+02  0.42867698342E+02  0.00000000000E+00 0. -1.
         23    2    1    2    0    0  0.13088176390E+02  0.10740435550E+03  0.63324608221E+03  0.64870906050E+03  0.90088004734E+02 0.  0.
         23    2    1    2    0    0 -0.10284462715E+02 -0.83513603943E+02  0.30997350366E+03  0.33585524733E+03  0.98157434623E+02 0.  0.
        -11    1    4    4    0    0  0.10899920833E+02  0.19315426132E+02  0.80601753989E+02  0.83597468304E+02  0.00000000000E+00 0. -1.
         11    1    4    4    0    0 -0.21184383548E+02 -0.10282903007E+03  0.22937174967E+03  0.25225777903E+03  0.00000000000E+00 0.  1.
        -11    1    3    3    0    0  0.36970667660E+02  0.70552627376E+01  0.16716275951E+03  0.17134758582E+03  0.00000000000E+00 0. -1.
         11    1    3    3    0    0 -0.23882491270E+02  0.10034909277E+03  0.46608332271E+03  0.47736147468E+03  0.00000000000E+00 0.  1.
          1    1    1    2  501    0 -0.28037136747E+01 -0.23890751562E+02 -0.15677878186E+02  0.28712796537E+02  0.00000000000E+00 0. -1.
<scales pt_clust_5="13000.00000" pt_clust_6="13000.00000" pt_clust_7="13000.00000" pt_clust_8="13000.00000" pt_clust_9="24.05470"></scales>
<clustering>
<clus scale="   24.055">  2  9  1 -1</clus>
<clus scale="   90.088">  7  8 -1 -1</clus>
<clus scale="   98.157">  5  6 -1 -1</clus>
<clus scale="  134.004">  1  7  2 -1</clus>
<clus scale="   24.055">  2  5  1 -1</clus>
</clustering>
</event>
<event>
 9    1  0.1426358E-005  0.1647568E+03  0.7546771E-02  0.1183533E+00
         -2   -1    0    0    0  501 -0.00000000000E+00  0.00000000000E+00  0.18800178525E+03  0.18800178525E+03  0.00000000000E+00 0.  1.
         21   -1    0    0  501  502  0.00000000000E+00 -0.00000000000E+00 -0.25928418110E+03  0.25928418110E+03  0.00000000000E+00 0. -1.
         23    2    1    2    0    0  0.96136901339E+02  0.10514750076E+03  0.99616642468E+02  0.19658731125E+03  0.91786680803E+02 0.  0.
         23    2    1    2    0    0 -0.63389843824E+02 -0.98297966010E+02 -0.15175808700E+03  0.21215436992E+03  0.91094441569E+02 0.  0.
        -13    1    3    3    0    0  0.92990224356E+02  0.71299986747E+02  0.32900293191E+02  0.12170989782E+03  0.00000000000E+00 0.  1.
         13    1    3    3    0    0  0.31466769838E+01  0.33847514016E+02  0.66716349277E+02  0.74877413430E+02  0.00000000000E+00 0. -1.
        -13    1    4    4    0    0 -0.41576735368E+02 -0.10961480740E+03 -0.14539123286E+03  0.18676895223E+03  0.00000000000E+00 0. -1.
         13    1    4    4    0    0 -0.21813108456E+02  0.11316841389E+02 -0.63668541362E+01  0.25385417687E+02  0.00000000000E+00 0.  1.
         -2    1    1    2    0  502 -0.32747057515E+02 -0.68495347533E+01 -0.19140951318E+02  0.38544285174E+02  0.00000000000E+00 0.  1.
<scales pt_clust_5="13000.00000" pt_clust_6="13000.00000" pt_clust_7="13000.00000" pt_clust_8="13000.00000" pt_clust_9="33.45573"></scales>
<clustering>
<clus scale="   33.456">  2  9  1 -1</clus>
<clus scale="   91.094">  7  8 -1 -1</clus>
<clus scale="   91.787">  5  6 -1 -1</clus>
<clus scale="  164.372">  2  7  1 -1</clus>
<clus scale="   33.456">  2  5  1 -1</clus>
</clustering>
</event>
<event>
 9    1  0.1426358E-005  0.1730264E+03  0.7546771E-02  0.1198359E+00
         -1   -1    0    0    0  501 -0.00000000000E+00  0.00000000000E+00  0.51870948035E+03  0.51870948035E+03  0.00000000000E+00 0.  1.
         21   -1    0    0  501  502  0.00000000000E+00 -0.00000000000E+00 -0.88849261222E+02  0.88849261222E+02  0.00000000000E+00 0. -1.
         23    2    1    2    0    0  0.32106875496E+02 -0.34445616899E+02  0.14079575286E+03  0.17405262921E+03  0.90848895073E+02 0.  0.
         23    2    1    2    0    0 -0.10764654340E+02  0.16551857738E+03  0.16018866336E+03  0.24845319034E+03  0.92500284767E+02 0.  0.
        -11    1    4    4    0    0 -0.23363150894E+02  0.23902068059E+02 -0.11056311166E+01  0.33442010964E+02  0.00000000000E+00 0.  1.
         11    1    4    4    0    0  0.12598496554E+02  0.14161650932E+03  0.16129429447E+03  0.21501117937E+03  0.00000000000E+00 0. -1.
        -13    1    3    3    0    0 -0.28895582066E+02  0.49912146571E+01  0.47346439557E+02  0.55691581280E+02  0.00000000000E+00 0.  1.
         13    1    3    3    0    0  0.61002457562E+02 -0.39436831556E+02  0.93449313299E+02  0.11836104793E+03  0.00000000000E+00 0. -1.
         -1    1    1    2    0  502 -0.21342221156E+02 -0.13107296048E+03  0.12887580292E+03  0.18505292202E+03  0.00000000000E+00 0.  1.
<scales pt_clust_5="13000.00000" pt_clust_6="13000.00000" pt_clust_7="13000.00000" pt_clust_8="13000.00000" pt_clust_9="146.22525"></scales>
<clustering>
<clus scale="   90.849">  7  8 -1 -1</clus>
<clus scale="   92.500">  5  6 -1 -1</clus>
<clus scale="  102.327">  1  7  2 -1</clus>
<clus scale="  146.225">  2  9  1 -1</clus>
<clus scale="  146.225">  2  5  1 -1</clus>
</clustering>
</event>
<event>
 9    1  0.1426358E-005  0.9417474E+02  0.7546771E-02  0.1294201E+00
         -3   -1    0    0    0  501 -0.00000000000E+00  0.00000000000E+00  0.30737073373E+03  0.30737073373E+03  0.00000000000E+00 0.  1.
         21   -1    0    0  501  502  0.00000000000E+00 -0.00000000000E+00 -0.48034343998E+02  0.48034343998E+02  0.00000000000E+00 0.  1.
         23    2    1    2    0    0  0.16435704642E+02  0.25220760029E+02  0.16880054936E+03  0.19471030770E+03  0.92261906202E+02 0.  0.
         23    2    1    2    0    0  0.60744572093E+01 -0.66920904194E+01  0.94860241814E+02  0.13122072328E+03  0.90214908059E+02 0.  0.
        -13    1    4    4    0    0 -0.37908068272E+02  0.13995851611E+02  0.30803546965E+02  0.50811061868E+02  0.00000000000E+00 0. -1.
         13    1    4    4    0    0  0.43982525482E+02 -0.20687942031E+02  0.64056694849E+02  0.80409661410E+02  0.00000000000E+00 0.  1.
        -13    1    3    3    0    0 -0.32459202063E+02  0.27093779835E+02  0.45788581038E+02  0.62323886735E+02  0.00000000000E+00 0.  1.
         13    1    3    3    0    0  0.48894906705E+02 -0.18730198060E+01  0.12301196832E+03  0.13238642096E+03  0.00000000000E+00 0. -1.
         -3    1    1    2    0  502 -0.22510161851E+02 -0.18528669609E+02 -0.43244014422E+01  0.29474046751E+02  0.00000000000E+00 0.  1.
<scales pt_clust_5="13000.00000" pt_clust_6="13000.00000" pt_clust_7="13000.00000" pt_clust_8="13000.00000" pt_clust_9="29.15509"></scales>
<clustering>
<clus scale="   29.155">  2  9  1 -1</clus>
<clus scale="   90.215">  5  6 -1 -1</clus>
<clus scale="   92.170">  2  5  1 -1</clus>
<clus scale="   92.262">  7  8 -1 -1</clus>
<clus scale="   29.155">  2  5  1 -1</clus>
</clustering>
</event>
<event>
 9    1  0.1426358E-005  0.1061262E+03  0.7546771E-02  0.1270293E+00
         21   -1    0    0  501  502  0.00000000000E+00  0.00000000000E+00  0.20478211195E+03  0.20478211195E+03  0.00000000000E+00 0. -1.
          2   -1    0    0  502    0 -0.00000000000E+00 -0.00000000000E+00 -0.29094860014E+03  0.29094860014E+03  0.00000000000E+00 0. -1.
         23    2    1    2    0    0 -0.13706780847E+02 -0.37299712187E+02 -0.15991644326E+03  0.19119128413E+03  0.96962332542E+02 0.  0.
         23    2    1    2    0    0  0.66331856135E+02  0.13326558768E+02 -0.80681508916E+02  0.13963585703E+03  0.91712345852E+02 0.  0.
        -11    1    3    3    0    0 -0.49345635514E+02  0.36189061781E+01 -0.62868944030E+02  0.80003702100E+02  0.00000000000E+00 0.  1.
         11    1    3    3    0    0  0.35638854667E+02 -0.40918618365E+02 -0.97047499228E+02  0.11118758203E+03  0.00000000000E+00 0. -1.
        -11    1    4    4    0    0  0.79750598161E+02 -0.37829246015E+01 -0.31440688193E+02  0.85807839383E+02  0.00000000000E+00 0. -1.
         11    1    4    4    0    0 -0.13418742026E+02  0.17109483370E+02 -0.49240820723E+02  0.53828017650E+02  0.00000000000E+00 0.  1.
          2    1    1    2  501    0 -0.52625075288E+02  0.23973153419E+02  0.15443146399E+03  0.16490357093E+03  0.00000000000E+00 0. -1.
<scales pt_clust_5="13000.00000" pt_clust_6="13000.00000" pt_clust_7="13000.00000" pt_clust_8="13000.00000" pt_clust_9="57.82829"></scales>
<clustering>
<clus scale="   57.828">  1  9  2 -1</clus>
<clus scale="   91.712">  7  8 -1 -1</clus>
<clus scale="   96.962">  5  6 -1 -1</clus>
<clus scale="  101.352">  1  7  2 -1</clus>
<clus scale="   57.828">  1  5  2 -1</clus>
</clustering>
</event>
<event>
 9    1  0.1426358E-005  0.1212415E+03  0.7546771E-02  0.1241370E+00
         21   -1    0    0  501  502  0.00000000000E+00  0.00000000000E+00  0.19517872703E+03  0.19517872703E+03  0.00000000000E+00 0.  1.
         -4   -1    0    0    0  501 -0.00000000000E+00 -0.00000000000E+00 -0.26541004324E+03  0.26541004324E+03  0.00000000000E+00 0.  1.
         23    2    1    2    0    0  0.78152430334E+02  0.49232046308E+02 -0.15096050644E+03  0.19828260049E+03  0.89416544347E+02 0.  0.
         23    2    1    2    0    0 -0.57446156904E+02 -0.28440303072E+02 -0.54790994082E+02  0.12364555281E+03  0.90428192034E+02 0.  0.
        -11    1    3    3    0    0  0.27193585478E+02  0.68443094271E+02 -0.94899932589E+02  0.12012470791E+03  0.00000000000E+00 0. -1.
         11    1    3    3    0    0  0.50958844856E+02 -0.19211047963E+02 -0.56060573848E+02  0.78157892583E+02  0.00000000000E+00 0.  1.
        -13    1    4    4    0    0 -0.14665014704E+02 -0.41361959803E+02 -0.64403120566E+02  0.77933537797E+02  0.00000000000E+00 0.  1.
         13    1    4    4    0    0 -0.42781142201E+02  0.12921656731E+02  0.96121264842E+01  0.45712015009E+02  0.00000000000E+00 0. -1.
         -4    1    1    2    0  502 -0.20706273430E+02 -0.20791743236E+02  0.13552018430E+03  0.13866061697E+03  0.00000000000E+00 0.  1.
<scales pt_clust_5="13000.00000" pt_clust_6="13000.00000" pt_clust_7="13000.00000" pt_clust_8="13000.00000" pt_clust_9="29.34359"></scales>
<clustering>
<clus scale="   29.344">  1  9  2 -1</clus>
<clus scale="   89.417">  5  6 -1 -1</clus>
<clus scale="   90.428">  7  8 -1 -1</clus>
<clus scale="  120.489">  2  5  1 -1</clus>
<clus scale="   29.344">  1  5  2 -1</clus>
</clustering>
</event>
<event>
 9    1  0.1426358E-005  0.1092338E+03  0.7546771E-02  0.1265545E+00
         21   -1    0    0  501  502  0.00000000000E+00  0.00000000000E+00  0.16964861223E+03  0.16964861223E+03  0.00000000000E+00 0.  1.
          3   -1    0    0  502    0 -0.00000000000E+00 -0.00000000000E+00 -0.13354990212E+03  0.13354990212E+03  0.00000000000E+00 0. -1.
         23    2    1    2    0    0 -0.37761107907E+02 -0.61883793294E+02 -0.68547675907E+02  0.13467983681E+03  0.90467504813E+02 0.  0.
         23    2    1    2    0    0  0.17343528374E+02  0.21992197256E+02  0.78944670591E+02  0.11685829462E+03  0.81480950475E+02 0.  0.
        -11    1    4    4    0    0  0.12879477540E+02 -0.29534683224E+02  0.17934248783E+02  0.36875679441E+02  0.00000000000E+00 0. -1.
         11    1    4    4    0    0  0.44640508342E+01  0.51526880479E+02  0.61010421809E+02  0.79982615180E+02  0.00000000000E+00 0.  1.
        -13    1    3    3    0    0 -0.30951625213E+02  0.11394252909E+02  0.15851027386E+01  0.33020367250E+02  0.00000000000E+00 0.  1.
         13    1    3    3    0    0 -0.68094826938E+01 -0.73278046203E+02 -0.70132778646E+02  0.10165946956E+03  0.00000000000E+00 0. -1.
          3    1    1    2  501    0  0.20417579532E+02  0.39891596039E+02  0.25701715427E+02  0.51660382929E+02  0.00000000000E+00 0. -1.
<scales pt_clust_5="13000.00000" pt_clust_6="13000.00000" pt_clust_7="13000.00000" pt_clust_8="13000.00000" pt_clust_9="44.81313"></scales>
<clustering>
<clus scale="   44.813">  1  9  2 -1</clus>
<clus scale="   81.481">  5  6 -1 -1</clus>
<clus scale="   90.468">  7  8 -1 -1</clus>
<clus scale="  101.916">  1  5  2 -1</clus>
<clus scale="   44.813">  1  5  2 -1</clus>
</clustering>
</event>
<event>
 9    1  0.1426358E-005  0.9779937E+02  0.7546771E-02  0.1289225E+00
          1   -1    0    0  502    0 -0.00000000000E+00  0.00000000000E+00  0.66316540179E+03  0.66316540179E+03  0.00000000000E+00 0. -1.
         21   -1    0    0  501  502  0.00000000000E+00 -0.00000000000E+00 -0.27765914330E+02  0.27765914330E+02  0.00000000000E+00 0.  1.
         23    2    1    2    0    0 -0.60835918687E+02 -0.35513562201E+01  0.32258331280E+03  0.33870666634E+03  0.83358208924E+02 0.  0.
         23    2    1    2    0    0 -0.72094929291E+01  0.93433752286E+01  0.15623499334E+03  0.18139903147E+03  0.91416410042E+02 0.  0.
        -11    1    3    3    0    0 -0.33150306067E+02  0.38169369113E+02  0.12403925416E+03  0.13394618361E+03  0.00000000000E+00 0.  1.
         11    1    3    3    0    0 -0.27685612619E+02 -0.41720725333E+02  0.19854405864E+03  0.20476048274E+03  0.00000000000E+00 0. -1.
        -11    1    4    4    0    0 -0.48481911474E+02 -0.24875090601E+01  0.71742923956E+02  0.86624076210E+02  0.00000000000E+00 0.  1.
         11    1    4    4    0    0  0.41272418545E+02  0.11830884289E+02  0.84492069383E+02  0.94774955258E+02  0.00000000000E+00 0. -1.
          1    1    1    2  501    0  0.68045411616E+02 -0.57920190085E+01  0.15658118132E+03  0.17082561831E+03  0.00000000000E+00 0. -1.
<scales pt_clust_5="13000.00000" pt_clust_6="13000.00000" pt_clust_7="13000.00000" pt_clust_8="13000.00000" pt_clust_9="68.29147"></scales>
<clustering>
<clus scale="   68.291">  2  9  1 -1</clus>
<clus scale="   83.358">  5  6 -1 -1</clus>
<clus scale="   90.313">  1  5  2 -1</clus>
<clus scale="   91.416">  7  8 -1 -1</clus>
<clus scale="   68.291">  2  5  1 -1</clus>
</clustering>
</event>
<event>
 9    1  0.1426358E-005  0.1450306E+03  0.7546771E-02  0.1207216E+00
         21   -1    0    0  501  502  0.00000000000E+00  0.00000000000E+00  0.67996520360E+02  0.67996520360E+02  0.00000000000E+00 0. -1.
          2   -1    0    0  502    0 -0.00000000000E+00 -0.00000000000E+00 -0.57395744871E+03  0.57395744871E+03  0.00000000000E+00 0. -1.
         23    2    1    2    0    0  0.10586908057E+03 -0.68215764295E+02 -0.39324452919E+03  0.42350167588E+03  0.94078462025E+02 0.  0.
         23    2    1    2    0    0 -0.82905160328E+02  0.11893589213E+02 -0.90684859907E+02  0.15376135286E+03  0.91673806206E+02 0.  0.
        -11    1    4    4    0    0  0.19561696641E+01  0.28820555045E+02 -0.66394682771E+00  0.28894494601E+02  0.00000000000E+00 0. -1.
         11    1    4    4    0    0 -0.84861329992E+02 -0.16926965832E+02 -0.90020913079E+02  0.12486685826E+03  0.00000000000E+00 0.  1.
        -13    1    3    3    0    0  0.31308384257E+02 -0.35613860591E+02 -0.43280505235E+02  0.64200966694E+02  0.00000000000E+00 0.  1.
         13    1    3    3    0    0  0.74560696317E+02 -0.32601903704E+02 -0.34996402395E+03  0.35930070919E+03  0.00000000000E+00 0. -1.
          2    1    1    2  501    0 -0.22963920246E+02  0.56322175081E+02 -0.22031539259E+02  0.64690940332E+02  0.00000000000E+00 0. -1.
<scales pt_clust_5="13000.00000" pt_clust_6="13000.00000" pt_clust_7="13000.00000" pt_clust_8="13000.00000" pt_clust_9="60.82375"></scales>
<clustering>
<clus scale="   60.824">  1  9  2 -1</clus>
<clus scale="   91.674">  5  6 -1 -1</clus>
<clus scale="   94.078">  7  8 -1 -1</clus>
<clus scale="  143.482">  1  5  2 -1</clus>
<clus scale="   60.824">  1  5  2 -1</clus>
</clustering>
</event>
<event>
 9    1  0.1426358E-005  0.1239702E+03  0.7546771E-02  0.1238769E+00
          3   -1    0    0  502    0 -0.00000000000E+00  0.00000000000E+00  0.57863949629E+03  0.57863949629E+03  0.00000000000E+00 0. -1.
         21   -1    0    0  501  502  0.00000000000E+00 -0.00000000000E+00 -0.48113220983E+02  0.48113220983E+02  0.00000000000E+00 0.  1.
         23    2    1    2    0    0 -0.92501805767E+02 -0.24213899093E+02  0.40781359193E+03  0.42722990560E+03  0.84086678465E+02 0.  0.
         23    2    1    2    0    0  0.55314664827E+02  0.20684761223E+02  0.12026722691E+03  0.16208862245E+03  0.91219209419E+02 0.  0.
        -11    1    4    4    0    0  0.45083243949E+02 -0.28215935086E+02  0.87323910217E+02  0.10224530881E+03  0.00000000000E+00 0.  1.
         11    1    4    4    0    0  0.10231420878E+02  0.48900696309E+02  0.32943316693E+02  0.59843313640E+02  0.00000000000E+00 0. -1.
        -13    1    3    3    0    0 -0.82715326938E+02  0.16964374568E+02  0.29009257479E+03  0.30213129143E+03  0.00000000000E+00 0. -1.
         13    1    3    3    0    0 -0.97864788286E+01 -0.41178273660E+02  0.11772101715E+03  0.12509861417E+03  0.00000000000E+00 0.  1.
          3    1    1    2  501    0  0.37187140940E+02  0.35291378692E+01  0.24454564627E+01  0.37434189222E+02  0.00000000000E+00 0. -1.
<scales pt_clust_5="13000.00000" pt_clust_6="13000.00000" pt_clust_7="13000.00000" pt_clust_8="13000.00000" pt_clust_9="37.35423"></scales>
<clustering>
<clus scale="   37.354">  2  9  1 -1</clus>
<clus scale="   84.087">  7  8 -1 -1</clus>
<clus scale="   91.219">  5  6 -1 -1</clus>
<clus scale="  118.820">  1  7  2 -1</clus>
<clus scale="   37.354">  2  5  1 -1</clus>
</clustering>
</event>
<event>
 9    1  0.1426358E-005  0.9641825E+02  0.7546771E-02  0.1288078E+00
         21   -1    0    0  501  502  0.00000000000E+00  0.00000000000E+00  0.37638027174E+03  0.37638027174E+03  0.00000000000E+00 0.  1.
          1   -1    0    0  502    0 -0.00000000000E+00 -0.00000000000E+00 -0.53025008484E+02  0.53025008484E+02  0.00000000000E+00 0. -1.
         23    2    1    2    0    0 -0.28814902087E+02 -0.35903143713E+01  0.20962250932E+02  0.98158716041E+02  0.91392169419E+02 0.  0.
         23    2    1    2    0    0  0.40078244257E+02 -0.17328186232E+02  0.28311680379E+03  0.30065214051E+03  0.91269125700E+02 0.  0.
        -13    1    4    4    0    0  0.41645859420E+02 -0.51456518460E+02  0.20406692147E+03  0.21453545007E+03  0.00000000000E+00 0.  1.
         13    1    4    4    0    0 -0.15676151631E+01  0.34128332228E+02  0.79049882322E+02  0.86116690444E+02  0.00000000000E+00 0. -1.
        -13    1    3    3    0    0  0.23764819755E+01 -0.36659302595E+02  0.34839404299E+02  0.50629400798E+02  0.00000000000E+00 0.  1.
         13    1    3    3    0    0 -0.31191384062E+02  0.33068988223E+02 -0.13877153367E+02  0.47529315242E+02  0.00000000000E+00 0. -1.
          1    1    1    2  501    0 -0.11263342170E+02  0.20918500603E+02  0.19276208534E+02  0.30594423671E+02  0.00000000000E+00 0. -1.
<scales pt_clust_5="13000.00000" pt_clust_6="13000.00000" pt_clust_7="13000.00000" pt_clust_8="13000.00000" pt_clust_9="23.75810"></scales>
<clustering>
<clus scale="   23.758">  1  9  2 -1</clus>
<clus scale="   91.269">  5  6 -1 -1</clus>
<clus scale="   91.392">  7  8 -1 -1</clus>
<clus scale="   96.302">  1  5  2 -1</clus>
<clus scale="   23.758">  1  5  2 -1</clus>
</clustering>
</event>
<event>
 9    1  0.1426358E-005  0.1439310E+03  0.7546771E-02  0.1223788E+00
         21   -1    0    0  501  502  0.00000000000E+00  0.00000000000E+00  0.34136905854E+03  0.34136905854E+03  0.00000000000E+00 0.  1.
         -3   -1    0    0    0  501 -0.00000000000E+00 -0.00000000000E+00 -0.13198204490E+03  0.13198204490E+03  0.00000000000E+00 0.  1.
         23    2    1    2    0    0  0.27244226232E+02 -0.40249348278E+02 -0.30397329042E+02  0.10775869345E+03  0.91245167008E+02 0.  0.
         23    2    1    2    0    0  0.25242554151E+02 -0.77339139691E+02  0.35880476026E+02  0.12443125753E+03  0.87047114953E+02 0.  0.
        -11    1    3    3    0    0 -0.15743566026E+02 -0.19997833174E+02  0.24378635715E+02  0.35243312588E+02  0.00000000000E+00 0.  1.
         11    1    3    3    0    0  0.42987792257E+02 -0.20251515105E+02 -0.54775964757E+02  0.72515380867E+02  0.00000000000E+00 0. -1.
        -13    1    4    4    0    0 -0.19087557765E+02 -0.69567789854E+02  0.33012842334E+02  0.79333851574E+02  0.00000000000E+00 0.  1.
         13    1    4    4    0    0  0.44330111916E+02 -0.77713498375E+01  0.28676336919E+01  0.45097405954E+02  0.00000000000E+00 0. -1.
         -3    1    1    2    0  502 -0.52486780383E+02  0.11758848797E+03  0.20390386665E+03  0.24116115246E+03  0.00000000000E+00 0.  1.
<scales pt_clust_5="13000.00000" pt_clust_6="13000.00000" pt_clust_7="13000.00000" pt_clust_8="13000.00000" pt_clust_9="114.62515"></scales>
<clustering>
<clus scale="   87.047">  7  8 -1 -1</clus>
<clus scale="   91.245">  5  6 -1 -1</clus>
<clus scale="  103.382">  2  5  1 -1</clus>
<clus scale="  114.625">  1  9  2 -1</clus>
<clus scale="  114.625">  1  5  2 -1</clus>
</clustering>
</event>
<event>
 9    1  0.1426358E-005  0.9583055E+02  0.7546771E-02  0.1294577E+00
          2   -1    0    0  502    0 -0.00000000000E+00  0.00000000000E+00  0.93765911285E+02  0.93765911285E+02  0.00000000000E+00 0. -1.
         21   -1    0    0  501  502  0.00000000000E+00 -0.00000000000E+00 -0.25307255020E+03  0.25307255020E+03  0.00000000000E+00 0. -1.
         23    2    1    2    0    0  0.64469530227E+01 -0.18564685270E+02  0.13945860157E+02  0.85812615799E+02  0.82359621614E+02 0.  0.
         23    2    1    2    0    0 -0.76384279599E+02  0.23684021904E+02 -0.13247974984E+03  0.17990954439E+03  0.91766382631E+02 0.  0.
        -11    1    3    3    0    0 -0.24422947281E+02 -0.29799274602E+02  0.30394085507E+02  0.49074204573E+02  0.00000000000E+00 0. -1.
         11    1    3    3    0    0  0.30869900304E+02  0.11234589332E+02 -0.16448225350E+02  0.36738411226E+02  0.00000000000E+00 0.  1.
        -11    1    4    4    0    0 -0.28856834656E+02  0.33743243015E+02 -0.12252266833E+03  0.13031932938E+03  0.00000000000E+00 0. -1.
         11    1    4    4    0    0 -0.47527444943E+02 -0.10059221111E+02 -0.99570815079E+01  0.49590215006E+02  0.00000000000E+00 0.  1.
          2    1    1    2  501    0  0.69937326577E+02 -0.51193366339E+01 -0.40772749235E+02  0.81116301299E+02  0.00000000000E+00 0. -1.
<scales pt_clust_5="13000.00000" pt_clust_6="13000.00000" pt_clust_7="13000.00000" pt_clust_8="13000.00000" pt_clust_9="70.12444"></scales>
<clustering>
<clus scale="   70.124">  2  9  1 -1</clus>
<clus scale="   82.360">  5  6 -1 -1</clus>
<clus scale="   86.865">  1  5  2 -1</clus>
<clus scale="   91.766">  7  8 -1 -1</clus>
<clus scale="   70.124">  2  5  1 -1</clus>
</clustering>
</event>
<event>
 9    1  0.1426358E-005  0.1376045E+03  0.7546771E-02  0.1234573E+00
         21   -1    0    0  501  502  0.00000000000E+00  0.00000000000E+00  0.65298228546E+03  0.65298228546E+03  0.00000000000E+00 0. -1.
          1   -1    0    0  502    0 -0.00000000000E+00 -0.00000000000E+00 -0.85017657255E+02  0.85017657255E+02  0.00000000000E+00 0. -1.
         23    2    1    2    0    0  0.30007993854E+02  0.11295947606E+02 -0.58326534786E+01  0.94837631298E+02  0.89062216098E+02 0.  0.
         23    2    1    2    0    0  0.50031170742E+02  0.66689757137E+02  0.10139426926E+03  0.15772164134E+03  0.87433841026E+02 0.  0.
        -13    1    3    3    0    0  0.41067394532E+02  0.43486580052E+02  0.22433931950E+01  0.59855211563E+02  0.00000000000E+00 0. -1.
         13    1    3    3    0    0 -0.11059400678E+02 -0.32190632446E+02 -0.80760466736E+01  0.34982419735E+02  0.00000000000E+00 0.  1.
        -13    1    4    4    0    0  0.41704598485E+01 -0.20397140934E+02  0.88485320412E+01  0.22621507751E+02  0.00000000000E+00 0.  1.
         13    1    4    4    0    0  0.45860710893E+02  0.87086898071E+02  0.92545737215E+02  0.13510013359E+03  0.00000000000E+00 0. -1.
          1    1    1    2  501    0 -0.80039164595E+02 -0.77985704743E+02  0.47240301242E+03  0.48544067007E+03  0.00000000000E+00 0. -1.
<scales pt_clust_5="13000.00000" pt_clust_6="13000.00000" pt_clust_7="13000.00000" pt_clust_8="13000.00000" pt_clust_9="106.25596"></scales>
<clustering>
<clus scale="   87.434">  7  8 -1 -1</clus>
<clus scale="   89.062">  5  6 -1 -1</clus>
<clus scale="   94.658">  2  5  1 -1</clus>
<clus scale="  106.256">  1  9  2 -1</clus>
<clus scale="  106.256">  1  5  2 -1</clus>
</clustering>
</event>
<event>
 9    1  0.1426358E-005  0.1874241E+03  0.7546771E-02  0.1188520E+00
         21   -1    0    0  501  502  0.00000000000E+00  0.00000000000E+00  0.66537219744E+02  0.66537219744E+02  0.00000000000E+00 0. -1.
          1   -1    0    0  502    0 -0.00000000000E+00 -0.00000000000E+00 -0.83733153687E+03  0.83733153687E+03  0.00000000000E+00 0. -1.
         23    2    1    2    0    0 -0.25777541637E+02 -0.27558643744E+02 -0.11653259076E+03  0.15351259600E+03  0.92532761349E+02 0.  0.
         23    2    1    2    0    0 -0.27897127043E+01 -0.14427057852E+03 -0.45381800556E+03  0.48480191973E+03  0.90886395436E+02 0.  0.
        -11    1    3    3    0    0 -0.52615022215E+01 -0.52006210795E+02 -0.10875269426E+03  0.12066266148E+03  0.00000000000E+00 0. -1.
         11    1    3    3    0    0 -0.20516039415E+02  0.24447567050E+02 -0.77798964943E+01  0.32849934512E+02  0.00000000000E+00 0.  1.
        -11    1    4    4    0    0  0.21345904743E+02 -0.10639692614E+03 -0.40123434396E+03  0.41565003586E+03  0.00000000000E+00 0. -1.
         11    1    4    4    0    0 -0.24135617447E+02 -0.37873652384E+02 -0.52583661604E+02  0.69151883865E+02  0.00000000000E+00 0.  1.
          1    1    1    2  501    0  0.28567254341E+02  0.17182922226E+03 -0.20044372081E+03  0.26555424089E+03  0.00000000000E+00 0. -1.
<scales pt_clust_5="13000.00000" pt_clust_6="13000.00000" pt_clust_7="13000.00000" pt_clust_8="13000.00000" pt_clust_9="163.91294"></scales>
<clustering>
<clus scale="   90.886">  7  8 -1 -1</clus>
<clus scale="   92.533">  5  6 -1 -1</clus>
<clus scale="   99.931">  2  5  1 -1</clus>
<clus scale="  163.913">  1  9  2 -1</clus>
<clus scale="  163.913">  1  5  2 -1</clus>
</clustering>
</event>
<event>
 9    1  0.1426358E-005  0.1520576E+03  0.7546771E-02  0.1198027E+00
         -1   -1    0    0    0  501 -0.00000000000E+00  0.00000000000E+00  0.35128386643E+03  0.35128386643E+03  0.00000000000E+00 0.  1.
         21   -1    0    0  501  502  0.00000000000E+00 -0.00000000000E+00 -0.10778051835E+03  0.10778051835E+03  0.00000000000E+00 0. -1.
         23    2    1    2    0    0 -0.75493203274E+02  0.10299417928E+03  0.24533104601E+03  0.29134458411E+03  0.91582311863E+02 0.  0.
         23    2    1    2    0    0  0.61636468221E+02 -0.84053035138E+02  0.14262079360E+02  0.13926532859E+03  0.91254906224E+02 0.  0.
        -11    1    4    4    0    0  0.23324956172E+02 -0.52191883002E+01  0.41146365367E+02  0.47584838865E+02  0.00000000000E+00 0.  1.
         11    1    4    4    0    0  0.38311512049E+02 -0.78833846838E+02 -0.26884286006E+02  0.91680489729E+02  0.00000000000E+00 0. -1.
        -13    1    3    3    0    0 -0.72985447376E+01  0.83773561946E+02  0.15706924182E+03  0.17816291747E+03  0.00000000000E+00 0. -1.
         13    1    3    3    0    0 -0.68194658536E+02  0.19220617338E+02  0.88261804192E+02  0.11318166664E+03  0.00000000000E+00 0.  1.
         -1    1    1    2    0  502  0.13856735052E+02 -0.18941144146E+02 -0.16089777289E+02  0.28454472075E+02  0.00000000000E+00 0.  1.
<scales pt_clust_5="13000.00000" pt_clust_6="13000.00000" pt_clust_7="13000.00000" pt_clust_8="13000.00000" pt_clust_9="23.46862"></scales>
<clustering>
<clus scale="   23.469">  2  9  1 -1</clus>
<clus scale="   91.255">  5  6 -1 -1</clus>
<clus scale="   91.582">  7  8 -1 -1</clus>
<clus scale="  151.861">  2  5  1 -1</clus>
<clus scale="   23.469">  2  5  1 -1</clus>
</clustering>
</event>
<event>
 9    1  0.1426358E-005  0.1075623E+03  0.7546771E-02  0.1267026E+00
         21   -1    0    0  501  502  0.00000000000E+00  0.00000000000E+00  0.23431461613E+02  0.23431461613E+02  0.00000000000E+00 0.  1.
          2   -1    0    0  502    0 -0.00000000000E+00 -0.00000000000E+00 -0.82645514244E+03  0.82645514244E+03  0.00000000000E+00 0. -1.
         23    2    1    2    0    0 -0.24573194082E+02  0.53204270923E+02 -0.28676839542E+03  0.30670029571E+03  0.91621080902E+02 0.  0.
         23    2    1    2    0    0  0.52228850567E+02 -0.61174202021E+01 -0.27815434395E+03  0.29890355175E+03  0.95959462942E+02 0.  0.
        -11    1    3    3    0    0  0.16365021273E+02  0.63730976501E+02 -0.19107374104E+03  0.20208568926E+03  0.00000000000E+00 0.  1.
         11    1    3    3    0    0 -0.40938215356E+02 -0.10526705578E+02 -0.95694654379E+02  0.10461460645E+03  0.00000000000E+00 0. -1.
        -11    1    4    4    0    0 -0.21252186873E+02  0.16189806938E+02 -0.12196778455E+03  0.12485954415E+03  0.00000000000E+00 0.  1.
         11    1    4    4    0    0  0.73481037440E+02 -0.22307227140E+02 -0.15618655940E+03  0.17404400760E+03  0.00000000000E+00 0. -1.
          2    1    1    2  501    0 -0.27655656485E+02 -0.47086850721E+02 -0.23810094145E+03  0.24428275659E+03  0.00000000000E+00 0. -1.
<scales pt_clust_5="13000.00000" pt_clust_6="13000.00000" pt_clust_7="13000.00000" pt_clust_8="13000.00000" pt_clust_9="54.60778"></scales>
<clustering>
<clus scale="   54.608">  1  9  2 -1</clus>
<clus scale="   91.621">  5  6 -1 -1</clus>
<clus scale="   95.959">  7  8 -1 -1</clus>
<clus scale="  103.710">  2  5  1 -1</clus>
<clus scale="   54.608">  1  5  2 -1</clus>
</clustering>
</event>
<event>
 9    1  0.1426358E-005  0.1134590E+03  0.7546771E-02  0.1254435E+00
         21   -1    0    0  501  502  0.00000000000E+00  0.00000000000E+00  0.24548903733E+03  0.24548903733E+03  0.00000000000E+00 0.  1.
          2   -1    0    0  502    0 -0.00000000000E+00 -0.00000000000E+00 -0.90726003746E+02  0.90726003746E+02  0.00000000000E+00 0. -1.
         23    2    1    2    0    0 -0.10975924369E+02  0.67526473377E+02 -0.20962032819E+01  0.11491308229E+03  0.92305616783E+02 0.  0.
         23    2    1    2    0    0  0.29072655997E+02 -0.56631436113E+02  0.70009897236E+02  0.13192074529E+03  0.91920391885E+02 0.  0.
        -13    1    4    4    0    0  0.73524475724E+01 -0.74755963648E+02  0.25779023153E+02  0.79417067567E+02  0.00000000000E+00 0. -1.
         13    1    4    4    0    0  0.21720208425E+02  0.18124527535E+02  0.44230874082E+02  0.52503677723E+02  0.00000000000E+00 0.  1.
        -13    1    3    3    0    0 -0.14740119231E+01 -0.23048436281E+02 -0.56327675289E+01  0.23772488221E+02  0.00000000000E+00 0. -1.
         13    1    3    3    0    0 -0.95019124462E+01  0.90574909659E+02  0.35365642470E+01  0.91140594065E+02  0.00000000000E+00 0.  1.
          2    1    1    2  501    0 -0.18096731628E+02 -0.10895037265E+02  0.86849339628E+02  0.89381213498E+02  0.00000000000E+00 0. -1.
<scales pt_clust_5="13000.00000" pt_clust_6="13000.00000" pt_clust_7="13000.00000" pt_clust_8="13000.00000" pt_clust_9="21.12329"></scales>
<clustering>
<clus scale="   21.123">  1  9  2 -1</clus>
<clus scale="   91.920">  5  6 -1 -1</clus>
<clus scale="   92.306">  7  8 -1 -1</clus>
<clus scale="  113.146">  1  5  2 -1</clus>
<clus scale="   21.123">  1  5  2 -1</clus>
</clustering>
</event>
<event>
 9    1  0.1426358E-005  0.1285669E+03  0.7546771E-02  0.1241042E+00
         -3   -1    0    0    0  501 -0.00000000000E+00  0.00000000000E+00  0.26709157563E+03  0.26709157563E+03  0.00000000000E+00 0.  1.
         21   -1    0    0  501  502  0.00000000000E+00 -0.00000000000E+00 -0.74739098918E+02  0.74739098918E+02  0.00000000000E+00 0. -1.
         23    2    1    2    0    0  0.22232950203E+02  0.16526377060E+02  0.70099175216E+02  0.11808492471E+03  0.90899559209E+02 0.  0.
         23    2    1    2    0    0 -0.53157256234E+02 -0.46009356461E+02  0.11460573008E+03  0.18034017270E+03  0.12018964078E+03 0.  0.
        -13    1    3    3    0    0  0.52702687492E+02 -0.10739332684E+02  0.34748617344E+02  0.64034154502E+02  0.00000000000E+00 0. -1.
         13    1    3    3    0    0 -0.30469737289E+02  0.27265709744E+02  0.35350557871E+02  0.54050770208E+02  0.00000000000E+00 0.  1.
        -13    1    4    4    0    0 -0.64342615320E+02  0.20976989336E+02  0.77722438241E+02  0.10305718623E+03  0.00000000000E+00 0.  1.
         13    1    4    4    0    0  0.11185359086E+02 -0.66986345796E+02  0.36883291836E+02  0.77282986470E+02  0.00000000000E+00 0. -1.
         -3    1    1    2    0  502  0.30924306031E+02  0.29482979401E+02  0.76475714161E+01  0.43405577135E+02  0.00000000000E+00 0.  1.
<scales pt_clust_5="13000.00000" pt_clust_6="13000.00000" pt_clust_7="13000.00000" pt_clust_8="13000.00000" pt_clust_9="42.72656"></scales>
<clustering>
<clus scale="   42.727">  2  9  1 -1</clus>
<clus scale="   90.900">  5  6 -1 -1</clus>
<clus scale="  101.718">  1  5  2 -1</clus>
<clus scale="  120.190">  7  8 -1 -1</clus>
<clus scale="   42.727">  2  5  1 -1</clus>
</clustering>
</event>
<event>
 9    1  0.1426358E-005  0.1218144E+03  0.7546771E-02  0.1241413E+00
         21   -1    0    0  501  502  0.00000000000E+00  0.00000000000E+00  0.13344970323E+03  0.13344970323E+03  0.00000000000E+00 0. -1.
          1   -1    0    0  502    0 -0.00000000000E+00 -0.00000000000E+00 -0.46599916258E+03  0.46599916258E+03  0.00000000000E+00 0. -1.
         23    2    1    2    0    0  0.57124952565E+02 -0.97446108423E+01 -0.34337390001E+03  0.36330068531E+03  0.10355450301E+03 0.  0.
         23    2    1    2    0    0 -0.86720398017E+02  0.69535732211E+02 -0.37148667816E+02  0.15397587542E+03  0.99864414110E+02 0.  0.
        -11    1    4    4    0    0 -0.80480341296E+02  0.25200073819E+02  0.14555829569E+02  0.85580378768E+02  0.00000000000E+00 0.  1.
         11    1    4    4    0    0 -0.62400567209E+01  0.44335658393E+02 -0.51704497385E+02  0.68395496656E+02  0.00000000000E+00 0. -1.
        -13    1    3    3    0    0 -0.28430201541E+02 -0.16380105144E+02 -0.99414873187E+02  0.10468954683E+03  0.00000000000E+00 0. -1.
         13    1    3    3    0    0  0.85555154107E+02  0.66354943022E+01 -0.24395902682E+03  0.25861113848E+03  0.00000000000E+00 0.  1.
          1    1    1    2  501    0  0.29595445452E+02 -0.59791121369E+02  0.47973108475E+02  0.82172305084E+02  0.00000000000E+00 0. -1.
<scales pt_clust_5="13000.00000" pt_clust_6="13000.00000" pt_clust_7="13000.00000" pt_clust_8="13000.00000" pt_clust_9="66.71483"></scales>
<clustering>
<clus scale="   66.715">  1  9  2 -1</clus>
<clus scale="   99.864">  5  6 -1 -1</clus>
<clus scale="  103.555">  7  8 -1 -1</clus>
<clus scale="  118.693">  1  5  2 -1</clus>
<clus scale="   66.715">  1  5  2 -1</clus>
</clustering>
</event>
<event>
 9    1  0.1426358E-005  0.1182691E+03  0.7546771E-02  0.1246347E+00
         -3   -1    0    0    0  501 -0.00000000000E+00  0.00000000000E+00  0.50646192129E+03  0.50646192129E+03  0.00000000000E+00 0.  1.
         21   -1    0    0  501  502  0.00000000000E+00 -0.00000000000E+00 -0.36885374016E+02  0.36885374016E+02  0.00000000000E+00 0.  1.
         23    2    1    2    0    0  0.59839878741E+02 -0.55481743464E+02  0.31654805483E+03  0.33953769476E+03  0.91783114996E+02 0.  0.
         23    2    1    2    0    0 -0.53991433888E+02  0.31895646565E+02  0.12268860012E+03  0.16493779405E+03  0.90661877899E+02 0.  0.
        -13    1    3    3    0    0  0.28666121070E+02 -0.17324309865E+02  0.20184663844E+02  0.39106250957E+02  0.00000000000E+00 0. -1.
         13    1    3    3    0    0  0.31173757671E+02 -0.38157433600E+02  0.29636339099E+03  0.30043144380E+03  0.00000000000E+00 0.  1.
        -13    1    4    4    0    0 -0.59866787914E+02 -0.13315213284E+02  0.89706770617E+02  0.10866752916E+03  0.00000000000E+00 0.  1.
         13    1    4    4    0    0  0.58753540263E+01  0.45210859849E+02  0.32981829502E+02  0.56270264887E+02  0.00000000000E+00 0. -1.
         -3    1    1    2    0  502 -0.58484448529E+01  0.23586096899E+02  0.30339892326E+02  0.38871806499E+02  0.00000000000E+00 0.  1.
<scales pt_clust_5="13000.00000" pt_clust_6="13000.00000" pt_clust_7="13000.00000" pt_clust_8="13000.00000" pt_clust_9="24.30038"></scales>
<clustering>
<clus scale="   24.300">  2  9  1 -1</clus>
<clus scale="   90.662">  7  8 -1 -1</clus>
<clus scale="   91.783">  5  6 -1 -1</clus>
<clus scale="  117.401">  2  7  1 -1</clus>
<clus scale="   24.300">  2  5  1 -1</clus>
</clustering>
</event>
<event>
 9    1  0.1426358E-005  0.9917348E+02  0.7546771E-02  0.1282267E+00
          1   -1    0    0  502    0 -0.00000000000E+00  0.00000000000E+00  0.15880222881E+03  0.15880222881E+03  0.00000000000E+00 0. -1.
         21   -1    0    0  501  502  0.00000000000E+00 -0.00000000000E+00 -0.17698671079E+03  0.17698671079E+03  0.00000000000E+00 0. -1.
         23    2    1    2    0    0 -0.19007559139E+02 -0.42708247786E+02  0.96039974034E+02  0.14049809380E+03  0.91272975277E+02 0.  0.
         23    2    1    2    0    0  0.14500132357E+02  0.13680809659E+02 -0.18029670303E+02  0.94710798773E+02  0.90816562376E+02 0.  0.
        -13    1    4    4    0    0  0.36833494701E+02  0.19079285696E+02 -0.43704503572E+02  0.60256195590E+02  0.00000000000E+00 0.  1.
         13    1    4    4    0    0 -0.22333362344E+02 -0.53984760374E+01  0.25674833269E+02  0.34454603183E+02  0.00000000000E+00 0. -1.
        -13    1    3    3    0    0 -0.15506891982E+02  0.27622378211E+02  0.36063493081E+02  0.48000364688E+02  0.00000000000E+00 0.  1.
         13    1    3    3    0    0 -0.35006671573E+01 -0.70330625996E+02  0.59976480952E+02  0.92497729113E+02  0.00000000000E+00 0. -1.
          1    1    1    2  501    0  0.45074267820E+01  0.29027438127E+02 -0.96194785712E+02  0.10058004702E+03  0.00000000000E+00 0. -1.
<scales pt_clust_5="13000.00000" pt_clust_6="13000.00000" pt_clust_7="13000.00000" pt_clust_8="13000.00000" pt_clust_9="29.37531"></scales>
<clustering>
<clus scale="   29.375">  2  9  1 -1</clus>
<clus scale="   90.817">  5  6 -1 -1</clus>
<clus scale="   91.273">  7  8 -1 -1</clus>
<clus scale="   98.754">  2  5  1 -1</clus>
<clus scale="   29.375">  2  5  1 -1</clus>
</clustering>
</event>
<event>
 9    1  0.1426358E-005  0.1321836E+03  0.7546771E-02  0.1224476E+00
         21   -1    0    0  501  502  0.00000000000E+00  0.00000000000E+00  0.31737661871E+03  0.31737661871E+03  0.00000000000E+00 0. -1.
          4   -1    0    0  502    0 -0.00000000000E+00 -0.00000000000E+00 -0.82696836335E+02  0.82696836335E+02  0.00000000000E+00 0. -1.
         23    2    1    2    0    0  0.70702669795E+02  0.79852440936E+02  0.38308568164E+02  0.14540857188E+03  0.91108871922E+02 0.  0.
         23    2    1    2    0    0 -0.40698383350E+02 -0.69205695519E+02  0.11286047597E+03  0.16529120810E+03  0.90210363811E+02 0.  0.
        -11    1    4    4    0    0 -0.66700769812E+02 -0.64631674804E+02  0.76328903040E+02  0.12021791680E+03  0.00000000000E+00 0. -1.
         11    1    4    4    0    0  0.26002386463E+02 -0.45740207146E+01  0.36531572934E+02  0.45073291296E+02  0.00000000000E+00 0.  1.
        -13    1    3    3    0    0  0.13322325123E+02 -0.19708734551E+02  0.15096637484E+02  0.28174936160E+02  0.00000000000E+00 0.  1.
         13    1    3    3    0    0  0.57380344672E+02  0.99561175487E+02  0.23211930681E+02  0.11723363572E+03  0.00000000000E+00 0. -1.
          4    1    1    2  501    0 -0.30004286445E+02 -0.10646745417E+02  0.83510738241E+02  0.89373675065E+02  0.00000000000E+00 0. -1.
<scales pt_clust_5="13000.00000" pt_clust_6="13000.00000" pt_clust_7="13000.00000" pt_clust_8="13000.00000" pt_clust_9="31.83725"></scales>
<clustering>
<clus scale="   31.837">  1  9  2 -1</clus>
<clus scale="   90.210">  5  6 -1 -1</clus>
<clus scale="   91.109">  7  8 -1 -1</clus>
<clus scale="  131.566">  1  5  2 -1</clus>
<clus scale="   31.837">  1  5  2 -1</clus>
</clustering>
</event>
<event>
 9    1  0.1426358E-005  0.2132683E+03  0.7546771E-02  0.1173593E+00
         21   -1    0    0  501  502  0.00000000000E+00  0.00000000000E+00  0.13364894951E+03  0.13364894951E+03  0.00000000000E+00 0. -1.
          1   -1    0    0  502    0 -0.00000000000E+00 -0.00000000000E+00 -0.65805803408E+03  0.65805803408E+03  0.00000000000E+00 0. -1.
         23    2    1    2    0    0 -0.43607758113E+01 -0.28230054137E+02 -0.71459742127E+02  0.11872511469E+03  0.90405784060E+02 0.  0.
         23    2    1    2    0    0  0.16448691474E+03 -0.83063757795E+02 -0.42992568740E+03  0.47662306050E+03  0.91530935405E+02 0.  0.
        -13    1    3    3    0    0 -0.23553880415E+02 -0.54043720736E+02 -0.29698230472E+02  0.66011316657E+02  0.00000000000E+00 0. -1.
         13    1    3    3    0    0  0.19193104604E+02  0.25813666599E+02 -0.41761511655E+02  0.52713798036E+02  0.00000000000E+00 0.  1.
        -13    1    4    4    0    0  0.11210355207E+03 -0.36907616577E+02 -0.35548542436E+03  0.37456543552E+03  0.00000000000E+00 0. -1.
         13    1    4    4    0    0  0.52383362673E+02 -0.46156141218E+02 -0.74440263036E+02  0.10205762499E+03  0.00000000000E+00 0.  1.
          1    1    1    2  501    0 -0.16012613893E+03  0.11129381193E+03 -0.23023655037E+02  0.19635880840E+03  0.00000000000E+00 0. -1.
<scales pt_clust_5="13000.00000" pt_clust_6="13000.00000" pt_clust_7="13000.00000" pt_clust_8="13000.00000" pt_clust_9="192.62772"></scales>
<clustering>
<clus scale="   90.406">  5  6 -1 -1</clus>
<clus scale="   91.531">  7  8 -1 -1</clus>
<clus scale="   94.811">  2  5  1 -1</clus>
<clus scale="  192.628">  1  9  2 -1</clus>
<clus scale="  192.628">  1  5  2 -1</clus>
</clustering>
</event>
<event>
 9    1  0.1426358E-005  0.1362367E+03  0.7546771E-02  0.1235642E+00
          1   -1    0    0  502    0 -0.00000000000E+00  0.00000000000E+00  0.67748337838E+03  0.67748337838E+03  0.00000000000E+00 0. -1.
         21   -1    0    0  501  502  0.00000000000E+00 -0.00000000000E+00 -0.54346940153E+02  0.54346940153E+02  0.00000000000E+00 0.  1.
         23    2    1    2    0    0  0.16942451935E+02 -0.17440376701E+02  0.50622586807E+02  0.10802261223E+03  0.92276893324E+02 0.  0.
         23    2    1    2    0    0  0.84568916314E+02  0.56849345343E+02  0.25602248675E+03  0.28910723035E+03  0.87474151863E+02 0.  0.
        -11    1    4    4    0    0  0.91851839093E+02  0.16643512052E+02  0.18284011869E+03  0.20529071055E+03  0.00000000000E+00 0.  1.
         11    1    4    4    0    0 -0.72829227787E+01  0.40205833290E+02  0.73182368063E+02  0.83816519792E+02  0.00000000000E+00 0. -1.
        -11    1    3    3    0    0  0.19081293890E+02  0.13267789738E+02  0.68562153955E+02  0.72394053458E+02  0.00000000000E+00 0. -1.
         11    1    3    3    0    0 -0.21388419550E+01 -0.30708166439E+02 -0.17939567148E+02  0.35628558776E+02  0.00000000000E+00 0.  1.
          1    1    1    2  501    0 -0.10151136825E+03 -0.39408968641E+02  0.31649136466E+03  0.33470047595E+03  0.00000000000E+00 0. -1.
<scales pt_clust_5="13000.00000" pt_clust_6="13000.00000" pt_clust_7="13000.00000" pt_clust_8="13000.00000" pt_clust_9="104.44483"></scales>
<clustering>
<clus scale="   87.474">  5  6 -1 -1</clus>
<clus scale="   92.277">  7  8 -1 -1</clus>
<clus scale="   95.427">  1  7  2 -1</clus>
<clus scale="  104.445">  2  9  1 -1</clus>
<clus scale="  104.445">  2  5  1 -1</clus>
</clustering>
</event>
<event>
 9    1  0.1426358E-005  0.9689895E+02  0.7546771E-02  0.1289351E+00
          1   -1    0    0  502    0 -0.00000000000E+00  0.00000000000E+00  0.29595260746E+03  0.29595260746E+03  0.00000000000E+00 0. -1.
         21   -1    0    0  501  502  0.00000000000E+00 -0.00000000000E+00 -0.67965675802E+02  0.67965675802E+02  0.00000000000E+00 0. -1.
         23    2    1    2    0    0 -0.10570329281E+02 -0.21764871295E+02  0.14521596584E+03  0.17311107845E+03  0.91073197279E+02 0.  0.
         23    2    1    2    0    0  0.22637786421E+02 -0.14618446855E+02  0.10667639561E+03  0.14563155943E+03  0.95407176668E+02 0.  0.
        -11    1    4    4    0    0  0.41437500635E+01  0.39084221375E+02  0.61823136185E+02  0.73258768710E+02  0.00000000000E+00 0.  1.
         11    1    4    4    0    0  0.18494036358E+02 -0.53702668230E+02  0.44853259423E+02  0.72372790721E+02  0.00000000000E+00 0. -1.
        -13    1    3    3    0    0  0.20169010591E+02 -0.48917439580E+02  0.88660191860E+02  0.10324889590E+03  0.00000000000E+00 0. -1.
         13    1    3    3    0    0 -0.30739339872E+02  0.27152568285E+02  0.56555773983E+02  0.69862182553E+02  0.00000000000E+00 0.  1.
          1    1    1    2  501    0 -0.12067457140E+02  0.36383318150E+02 -0.23905429797E+02  0.45175645377E+02  0.00000000000E+00 0. -1.
<scales pt_clust_5="13000.00000" pt_clust_6="13000.00000" pt_clust_7="13000.00000" pt_clust_8="13000.00000" pt_clust_9="38.33235"></scales>
<clustering>
<clus scale="   38.332">  2  9  1 -1</clus>
<clus scale="   91.073">  7  8 -1 -1</clus>
<clus scale="   92.635">  1  7  2 -1</clus>
<clus scale="   95.407">  5  6 -1 -1</clus>
<clus scale="   38.332">  2  5  1 -1</clus>
</clustering>
</event>
<event>
 9    1  0.1426358E-005  0.1000905E+03  0.7546771E-02  0.1280309E+00
          2   -1    0    0  502    0 -0.00000000000E+00  0.00000000000E+00  0.53806404075E+03  0.53806404075E+03  0.00000000000E+00 0. -1.
         21   -1    0    0  501  502  0.00000000000E+00 -0.00000000000E+00 -0.33126038060E+02  0.33126038060E+02  0.00000000000E+00 0.  1.
         23    2    1    2    0    0 -0.29916127574E+02 -0.39829548781E+01  0.26319240782E+03  0.28012631202E+03  0.91047616836E+02 0.  0.
         23    2    1    2    0    0  0.57858423876E+02 -0.34431837367E+02  0.18472880242E+03  0.21685202374E+03  0.91470875795E+02 0.  0.
        -13    1    4    4    0    0  0.70823430843E+02 -0.51540998041E+02  0.16861980930E+03  0.19001334933E+03  0.00000000000E+00 0.  1.
         13    1    4    4    0    0 -0.12965006968E+02  0.17109160675E+02  0.16108993117E+02  0.26838674407E+02  0.00000000000E+00 0. -1.
        -13    1    3    3    0    0 -0.10757859008E+02 -0.44306842848E+02  0.85336916051E+02  0.96753382859E+02  0.00000000000E+00 0.  1.
         13    1    3    3    0    0 -0.19158268566E+02  0.40323887970E+02  0.17785549177E+03  0.18337292916E+03  0.00000000000E+00 0. -1.
          2    1    1    2  501    0 -0.27942296302E+02  0.38414792245E+02  0.57016792452E+02  0.74211743056E+02  0.00000000000E+00 0. -1.
<scales pt_clust_5="13000.00000" pt_clust_6="13000.00000" pt_clust_7="13000.00000" pt_clust_8="13000.00000" pt_clust_9="47.50230"></scales>
<clustering>
<clus scale="   47.502">  2  9  1 -1</clus>
<clus scale="   91.048">  7  8 -1 -1</clus>
<clus scale="   91.471">  5  6 -1 -1</clus>
<clus scale="   99.704">  1  7  2 -1</clus>
<clus scale="   47.502">  2  5  1 -1</clus>
</clustering>
</event>
<event>
 9    1  0.1426358E-005  0.1389318E+03  0.7546771E-02  0.1214952E+00
          2   -1    0    0  502    0 -0.00000000000E+00  0.00000000000E+00  0.54917883044E+03  0.54917883044E+03  0.00000000000E+00 0. -1.
         21   -1    0    0  501  502  0.00000000000E+00 -0.00000000000E+00 -0.14681877375E+03  0.14681877375E+03  0.00000000000E+00 0. -1.
         23    2    1    2    0    0  0.30683838075E+02  0.10419130116E+03  0.47743649415E+03  0.49810587096E+03  0.91468724620E+02 0.  0.
         23    2    1    2    0    0 -0.27752557830E+02 -0.70495202712E+02 -0.43104253650E+01  0.11945801649E+03  0.92259741305E+02 0.  0.
        -11    1    4    4    0    0 -0.33479786862E+02 -0.15920843811E+02 -0.39577139134E+02  0.54228399736E+02  0.00000000000E+00 0. -1.
         11    1    4    4    0    0  0.57272290318E+01 -0.54574358902E+02  0.35266713769E+02  0.65229616755E+02  0.00000000000E+00 0.  1.
        -13    1    3    3    0    0 -0.92059755770E+01  0.10158806463E+03  0.33917809539E+03  0.35418450735E+03  0.00000000000E+00 0. -1.
         13    1    3    3    0    0  0.39889813652E+02  0.26032365363E+01  0.13825839876E+03  0.14392136361E+03  0.00000000000E+00 0.  1.
          2    1    1    2  501    0 -0.29312802449E+01 -0.33696098449E+02 -0.70766012089E+02  0.78433716739E+02  0.00000000000E+00 0. -1.
<scales pt_clust_5="13000.00000" pt_clust_6="13000.00000" pt_clust_7="13000.00000" pt_clust_8="13000.00000" pt_clust_9="33.82336"></scales>
<clustering>
<clus scale="   33.823">  2  9  1 -1</clus>
<clus scale="   91.469">  7  8 -1 -1</clus>
<clus scale="   92.260">  5  6 -1 -1</clus>
<clus scale="  138.408">  1  7  2 -1</clus>
<clus scale="   33.823">  2  5  1 -1</clus>
</clustering>
</event>
<event>
 9    1  0.1426358E-005  0.9814032E+02  0.7546771E-02  0.1284676E+00
          4   -1    0    0  502    0 -0.00000000000E+00  0.00000000000E+00  0.93721113733E+02  0.93721113733E+02  0.00000000000E+00 0. -1.
         21   -1    0    0  501  502  0.00000000000E+00 -0.00000000000E+00 -0.19751297467E+03  0.19751297467E+03  0.00000000000E+00 0.  1.
         23    2    1    2    0    0  0.18111494168E+01  0.38471135046E+02  0.21998803968E+02  0.10142404353E+03  0.91211735733E+02 0.  0.
         23    2    1    2    0    0 -0.28154446484E+02 -0.14952789817E+02 -0.11911673622E+03  0.15387088536E+03  0.92039088075E+02 0.  0.
        -11    1    4    4    0    0  0.19726583985E+01 -0.49575606665E+02 -0.46703832755E+02  0.68138683223E+02  0.00000000000E+00 0. -1.
         11    1    4    4    0    0 -0.30127104882E+02  0.34622816848E+02 -0.72412903460E+02  0.85732202133E+02  0.00000000000E+00 0.  1.
        -13    1    3    3    0    0  0.20991032466E+02  0.45201980043E+02 -0.20830337448E+02  0.54016158712E+02  0.00000000000E+00 0.  1.
         13    1    3    3    0    0 -0.19179883049E+02 -0.67308449970E+01  0.42829141416E+02  0.47407884815E+02  0.00000000000E+00 0. -1.
          4    1    1    2  501    0  0.26343297067E+02 -0.23518345230E+02 -0.66739286869E+01  0.35939159517E+02  0.00000000000E+00 0. -1.
<scales pt_clust_5="13000.00000" pt_clust_6="13000.00000" pt_clust_7="13000.00000" pt_clust_8="13000.00000" pt_clust_9="35.31406"></scales>
<clustering>
<clus scale="   35.314">  2  9  1 -1</clus>
<clus scale="   91.212">  7  8 -1 -1</clus>
<clus scale="   92.039">  5  6 -1 -1</clus>
<clus scale="   97.365">  1  7  2 -1</clus>
<clus scale="   35.314">  2  5  1 -1</clus>
</clustering>
</event>
<event>
 9    1  0.1426358E-005  0.9532677E+02  0.7546771E-02  0.1292571E+00
          1   -1    0    0  502    0 -0.00000000000E+00  0.00000000000E+00  0.18093131577E+03  0.18093131577E+03  0.00000000000E+00 0. -1.
         21   -1    0    0  501  502  0.00000000000E+00 -0.00000000000E+00 -0.11031605073E+03  0.11031605073E+03  0.00000000000E+00 0.  1.
         23    2    1    2    0    0  0.10945777285E+02  0.82843046963E+01  0.12123479515E+03  0.15222295591E+03  0.91024793359E+02 0.  0.
         23    2    1    2    0    0 -0.47045070585E+01  0.22545976246E+02 -0.43430362310E+02  0.10675765044E+03  0.94765743420E+02 0.  0.
        -11    1    3    3    0    0  0.45765884158E+02  0.72286603905E+01  0.10291396765E+03  0.11286298960E+03  0.00000000000E+00 0.  1.
         11    1    3    3    0    0 -0.34820106873E+02  0.10556443059E+01  0.18320827496E+02  0.39359966307E+02  0.00000000000E+00 0. -1.
        -13    1    4    4    0    0 -0.19010109805E+02  0.47357248226E+02 -0.55751379657E+02  0.75579822492E+02  0.00000000000E+00 0.  1.
         13    1    4    4    0    0  0.14305602746E+02 -0.24811271980E+02  0.12321017347E+02  0.31177827950E+02  0.00000000000E+00 0. -1.
          1    1    1    2  501    0 -0.62412702264E+01 -0.30830280942E+02 -0.71891677965E+01  0.32266760151E+02  0.00000000000E+00 0. -1.
<scales pt_clust_5="13000.00000" pt_clust_6="13000.00000" pt_clust_7="13000.00000" pt_clust_8="13000.00000" pt_clust_9="31.45568"></scales>
<clustering>
<clus scale="   31.456">  2  9  1 -1</clus>
<clus scale="   91.025">  5  6 -1 -1</clus>
<clus scale="   91.609">  1  5  2 -1</clus>
<clus scale="   94.766">  7  8 -1 -1</clus>
<clus scale="   31.456">  2  5  1 -1</clus>
</clustering>
</event>
<event>
 9    1  0.1426358E-005  0.9845863E+02  0.7546771E-02  0.1286985E+00
          3   -1    0    0  502    0 -0.00000000000E+00  0.00000000000E+00  0.17647044616E+03  0.17647044616E+03  0.00000000000E+00 0. -1.
         21   -1    0    0  501  502  0.00000000000E+00 -0.00000000000E+00 -0.66775659852E+02  0.66775659852E+02  0.00000000000E+00 0.  1.
         23    2    1    2    0    0  0.15631288314E+02 -0.26177945857E+02  0.58478830929E+02  0.11456375322E+03  0.93677413822E+02 0.  0.
         23    2    1    2    0    0 -0.32736903497E+02  0.10906412803E+02  0.33058495504E+02  0.99433162352E+02  0.87197677490E+02 0.  0.
        -11    1    3    3    0    0  0.28677176184E+02 -0.55295933305E+02  0.21907211778E+02  0.66029891730E+02  0.00000000000E+00 0.  1.
         11    1    3    3    0    0 -0.13045887870E+02  0.29117987448E+02  0.36571619152E+02  0.48533861486E+02  0.00000000000E+00 0. -1.
        -11    1    4    4    0    0 -0.18027361561E+01 -0.36617186707E+02  0.17552038708E+02  0.40646553148E+02  0.00000000000E+00 0.  1.
         11    1    4    4    0    0 -0.30934167341E+02  0.47523599510E+02  0.15506456795E+02  0.58786609205E+02  0.00000000000E+00 0. -1.
          3    1    1    2  501    0  0.17105615183E+02  0.15271533054E+02  0.18157459878E+02  0.29249190447E+02  0.00000000000E+00 0. -1.
<scales pt_clust_5="13000.00000" pt_clust_6="13000.00000" pt_clust_7="13000.00000" pt_clust_8="13000.00000" pt_clust_9="22.93082"></scales>
<clustering>
<clus scale="   22.931">  2  9  1 -1</clus>
<clus scale="   87.198">  7  8 -1 -1</clus>
<clus scale="   92.315">  2  7  1 -1</clus>
<clus scale="   93.677">  5  6 -1 -1</clus>
<clus scale="   22.931">  2  5  1 -1</clus>
</clustering>
</event>
<event>
 9    1  0.1426358E-005  0.1046268E+03  0.7546771E-02  0.1271374E+00
         21   -1    0    0  501  502  0.00000000000E+00  0.00000000000E+00  0.19482754464E+03  0.19482754464E+03  0.00000000000E+00 0. -1.
          3   -1    0    0  502    0 -0.00000000000E+00 -0.00000000000E+00 -0.46532053618E+03  0.46532053618E+03  0.00000000000E+00 0. -1.
         23    2    1    2    0    0 -0.51297129602E+02 -0.23404357901E+02 -0.36836166431E+03  0.38352374362E+03  0.90669657062E+02 0.  0.
         23    2    1    2    0    0  0.27384308794E+02  0.28727204166E+02 -0.61361562481E+02  0.11552057092E+03  0.89468476728E+02 0.  0.
        -11    1    3    3    0    0  0.24619989002E+02 -0.70903986215E+01 -0.54845473374E+02  0.60534647605E+02  0.00000000000E+00 0.  1.
         11    1    3    3    0    0 -0.75917118604E+02 -0.16313959279E+02 -0.31351619094E+03  0.32298909602E+03  0.00000000000E+00 0. -1.
        -11    1    4    4    0    0  0.17179012584E+02 -0.31745396771E+02 -0.17444692352E+02  0.40089973569E+02  0.00000000000E+00 0.  1.
         11    1    4    4    0    0  0.10205296210E+02  0.60472600936E+02 -0.43916870129E+02  0.75430597350E+02  0.00000000000E+00 0. -1.
          3    1    1    2  501    0  0.23912820808E+02 -0.53228462647E+01  0.15923023525E+03  0.16110376628E+03  0.00000000000E+00 0. -1.
<scales pt_clust_5="13000.00000" pt_clust_6="13000.00000" pt_clust_7="13000.00000" pt_clust_8="13000.00000" pt_clust_9="24.49808"></scales>
<clustering>
<clus scale="   24.498">  1  9  2 -1</clus>
<clus scale="   89.468">  7  8 -1 -1</clus>
<clus scale="   90.670">  5  6 -1 -1</clus>
<clus scale="  103.588">  1  7  2 -1</clus>
<clus scale="   24.498">  1  5  2 -1</clus>
</clustering>
</event>
<event>
 9    1  0.1426358E-005  0.9690886E+02  0.7546771E-02  0.1289662E+00
         21   -1    0    0  501  502  0.00000000000E+00  0.00000000000E+00  0.27501686297E+02  0.27501686297E+02  0.00000000000E+00 0.  1.
         -3   -1    0    0    0  501 -0.00000000000E+00 -0.00000000000E+00 -0.60069987715E+03  0.60069987715E+03  0.00000000000E+00 0.  1.
         23    2    1    2    0    0 -0.33546480242E+02 -0.27278511630E+02 -0.42452882457E+03  0.43489094911E+03  0.83880457739E+02 0.  0.
         23    2    1    2    0    0  0.27329416371E+02 -0.23370583683E+01 -0.11304463929E+03  0.14656818134E+03  0.89167160258E+02 0.  0.
        -11    1    4    4    0    0  0.56208559095E+02 -0.95478695285E+01 -0.46153721175E+02  0.73353458722E+02  0.00000000000E+00 0.  1.
         11    1    4    4    0    0 -0.28879142724E+02  0.72108111602E+01 -0.66890918114E+02  0.73214722619E+02  0.00000000000E+00 0. -1.
        -11    1    3    3    0    0 -0.60878169650E+02 -0.24061476551E+02 -0.33036434967E+03  0.33678733606E+03  0.00000000000E+00 0.  1.
         11    1    3    3    0    0  0.27331689409E+02 -0.32170350782E+01 -0.94164474898E+02  0.98103613050E+02  0.00000000000E+00 0. -1.
         -3    1    1    2    0  502  0.62170638705E+01  0.29615569998E+02 -0.35624726996E+02  0.46742433003E+02  0.00000000000E+00 0.  1.
<scales pt_clust_5="13000.00000" pt_clust_6="13000.00000" pt_clust_7="13000.00000" pt_clust_8="13000.00000" pt_clust_9="30.26109"></scales>
<clustering>
<clus scale="   30.261">  1  9  2 -1</clus>
<clus scale="   83.880">  7  8 -1 -1</clus>
<clus scale="   89.167">  5  6 -1 -1</clus>
<clus scale="   92.068">  2  7  1 -1</clus>
<clus scale="   30.261">  1  5  2 -1</clus>
</clustering>
</event>
<event>
 9    1  0.1426358E-005  0.1232346E+03  0.7546771E-02  0.1245100E+00
         21   -1    0    0  501  502  0.00000000000E+00  0.00000000000E+00  0.22532514448E+03  0.22532514448E+03  0.00000000000E+00 0. -1.
          4   -1    0    0  502    0 -0.00000000000E+00 -0.00000000000E+00 -0.21750318594E+03  0.21750318594E+03  0.00000000000E+00 0. -1.
         23    2    1    2    0    0 -0.40739223314E+02 -0.37007626447E+02 -0.13180445714E+03  0.17997355877E+03  0.10949346191E+03 0.  0.
         23    2    1    2    0    0  0.75078756960E+02 -0.35833297065E+01  0.42849462044E+01  0.11744451530E+03  0.90139854730E+02 0.  0.
        -11    1    4    4    0    0  0.73673969886E+02  0.31593155377E+02  0.12919299299E+02  0.81196610765E+02  0.00000000000E+00 0.  1.
         11    1    4    4    0    0  0.14047870744E+01 -0.35176485083E+02 -0.86343530948E+01  0.36247904531E+02  0.00000000000E+00 0. -1.
        -13    1    3    3    0    0 -0.74025661820E+02 -0.14608385522E+02 -0.11247361301E+03  0.13543824113E+03  0.00000000000E+00 0. -1.
         13    1    3    3    0    0  0.33286438506E+02 -0.22399240924E+02 -0.19330844131E+02  0.44535317639E+02  0.00000000000E+00 0.  1.
          4    1    1    2  501    0 -0.34339533646E+02  0.40590956153E+02  0.13534146948E+03  0.14541025635E+03  0.00000000000E+00 0. -1.
<scales pt_clust_5="13000.00000" pt_clust_6="13000.00000" pt_clust_7="13000.00000" pt_clust_8="13000.00000" pt_clust_9="53.16793"></scales>
<clustering>
<clus scale="   53.168">  1  9  2 -1</clus>
<clus scale="   90.140">  5  6 -1 -1</clus>
<clus scale="  106.410">  1  5  2 -1</clus>
<clus scale="  109.493">  7  8 -1 -1</clus>
<clus scale="   53.168">  1  5  2 -1</clus>
</clustering>
</event>
<event>
 9    1  0.1426358E-005  0.1381673E+03  0.7546771E-02  0.1216887E+00
          1   -1    0    0  502    0 -0.00000000000E+00  0.00000000000E+00  0.37088765333E+03  0.37088765333E+03  0.00000000000E+00 0. -1.
         21   -1    0    0  501  502  0.00000000000E+00 -0.00000000000E+00 -0.20386403703E+03  0.20386403703E+03  0.00000000000E+00 0.  1.
         23    2    1    2    0    0  0.23440330463E+02  0.10774846555E+03  0.23892953231E+03  0.27836116494E+03  0.90765829539E+02 0.  0.
         23    2    1    2    0    0 -0.43824119096E+02 -0.84271420442E+02  0.73490218896E+02  0.14770728314E+03  0.85990717533E+02 0.  0.
        -11    1    4    4    0    0 -0.20721519830E+02 -0.81754875973E+02  0.86717273789E+02  0.12096746134E+03  0.00000000000E+00 0. -1.
         11    1    4    4    0    0 -0.23102599266E+02 -0.25165444690E+01 -0.13227054893E+02  0.26739821803E+02  0.00000000000E+00 0.  1.
        -11    1    3    3    0    0 -0.19538178713E+02  0.89831650299E+02  0.12403395165E+03  0.15438875278E+03  0.00000000000E+00 0.  1.
         11    1    3    3    0    0  0.42978509177E+02  0.17916815255E+02  0.11489558067E+03  0.12397241216E+03  0.00000000000E+00 0. -1.
          1    1    1    2  501    0  0.20383788633E+02 -0.23477045112E+02 -0.14539613492E+03  0.14868324228E+03  0.00000000000E+00 0. -1.
<scales pt_clust_5="13000.00000" pt_clust_6="13000.00000" pt_clust_7="13000.00000" pt_clust_8="13000.00000" pt_clust_9="31.09132"></scales>
<clustering>
<clus scale="   31.091">  2  9  1 -1</clus>
<clus scale="   85.991">  5  6 -1 -1</clus>
<clus scale="   90.766">  7  8 -1 -1</clus>
<clus scale="  135.078">  2  5  1 -1</clus>
<clus scale="   31.091">  2  5  1 -1</clus>
</clustering>
</event>
<event>
 9    1  0.1426358E-005  0.9719375E+02  0.7546771E-02  0.1286632E+00
         21   -1    0    0  501  502  0.00000000000E+00  0.00000000000E+00  0.24879363157E+03  0.24879363157E+03  0.00000000000E+00 0. -1.
         -1   -1    0    0    0  501 -0.00000000000E+00 -0.00000000000E+00 -0.79422940263E+02  0.79422940263E+02  0.00000000000E+00 0.  1.
         23    2    1    2    0    0 -0.34077506798E+02  0.42289495453E+01 -0.40798103116E+00  0.96455411269E+02  0.90135006688E+02 0.  0.
         23    2    1    2    0    0  0.36160177582E+02  0.34738415689E+02  0.16141527282E+03  0.19185201973E+03  0.90763380317E+02 0.  0.
        -11    1    3    3    0    0  0.23265873972E+02 -0.19920412890E+02 -0.12480611503E+02  0.33073998925E+02  0.00000000000E+00 0.  1.
         11    1    3    3    0    0 -0.57343380770E+02  0.24149362436E+02  0.12072630472E+02  0.63381412344E+02  0.00000000000E+00 0. -1.
        -13    1    4    4    0    0 -0.24658602990E+02 -0.82187704869E+01  0.65200788910E+02  0.70190724204E+02  0.00000000000E+00 0.  1.
         13    1    4    4    0    0  0.60818780572E+02  0.42957186176E+02  0.96214483912E+02  0.12166129552E+03  0.00000000000E+00 0. -1.
         -1    1    1    2    0  502 -0.20826707835E+01 -0.38967365234E+02  0.83633995192E+01  0.39909140838E+02  0.00000000000E+00 0.  1.
<scales pt_clust_5="13000.00000" pt_clust_6="13000.00000" pt_clust_7="13000.00000" pt_clust_8="13000.00000" pt_clust_9="39.02300"></scales>
<clustering>
<clus scale="   39.023">  1  9  2 -1</clus>
<clus scale="   90.135">  5  6 -1 -1</clus>
<clus scale="   90.763">  7  8 -1 -1</clus>
<clus scale="   96.607">  2  5  1 -1</clus>
<clus scale="   39.023">  1  5  2 -1</clus>
</clustering>
</event>
<event>
 9    1  0.1426358E-005  0.1010188E+03  0.7546771E-02  0.1283111E+00
         21   -1    0    0  501  502  0.00000000000E+00  0.00000000000E+00  0.24809953852E+02  0.24809953852E+02  0.00000000000E+00 0. -1.
          2   -1    0    0  502    0 -0.00000000000E+00 -0.00000000000E+00 -0.72259729846E+03  0.72259729846E+03  0.00000000000E+00 0. -1.
         23    2    1    2    0    0  0.39954881395E+02  0.91225453071E+01 -0.53472824483E+03  0.54409985934E+03  0.91819103317E+02 0.  0.
         23    2    1    2    0    0 -0.37709870023E+02 -0.32611872589E+02 -0.14423369020E+03  0.17312155825E+03  0.81744406602E+02 0.  0.
        -11    1    3    3    0    0 -0.67840579888E+01  0.42345883389E+02 -0.20756211429E+03  0.21194628700E+03  0.00000000000E+00 0.  1.
         11    1    3    3    0    0  0.46738939384E+02 -0.33223338082E+02 -0.32716613054E+03  0.33215357234E+03  0.00000000000E+00 0. -1.
        -13    1    4    4    0    0 -0.15951034133E+02 -0.31627809974E+02 -0.14696160080E+03  0.15117032104E+03  0.00000000000E+00 0. -1.
         13    1    4    4    0    0 -0.21758835890E+02 -0.98406261496E+00  0.27279106052E+01  0.21951237204E+02  0.00000000000E+00 0.  1.
          2    1    1    2  501    0 -0.22450113728E+01  0.23489327281E+02 -0.18825409579E+02  0.30185834725E+02  0.00000000000E+00 0. -1.
<scales pt_clust_5="13000.00000" pt_clust_6="13000.00000" pt_clust_7="13000.00000" pt_clust_8="13000.00000" pt_clust_9="23.59637"></scales>
<clustering>
<clus scale="   23.596">  1  9  2 -1</clus>
<clus scale="   81.744">  7  8 -1 -1</clus>
<clus scale="   91.819">  5  6 -1 -1</clus>
<clus scale="   91.958">  1  7  2 -1</clus>
<clus scale="   23.596">  1  5  2 -1</clus>
</clustering>
</event>
<event>
 9    1  0.1426358E-005  0.9223493E+02  0.7546771E-02  0.1298054E+00
          1   -1    0    0  502    0 -0.00000000000E+00  0.00000000000E+00  0.63295946299E+03  0.63295946299E+03  0.00000000000E+00 0. -1.
         21   -1    0    0  501  502  0.00000000000E+00 -0.00000000000E+00 -0.16786225228E+02  0.16786225228E+02  0.00000000000E+00 0.  1.
         23    2    1    2    0    0 -0.43740910277E+01  0.15009688229E+02  0.28485384898E+03  0.29959258216E+03  0.91485390051E+02 0.  0.
         23    2    1    2    0    0 -0.14491921353E+02 -0.61566412936E+01  0.25629318775E+03  0.27228633712E+03  0.90585491557E+02 0.  0.
        -13    1    3    3    0    0  0.33606636088E+02 -0.21573020592E+02  0.11458112325E+03  0.12134098653E+03  0.00000000000E+00 0.  1.
         13    1    3    3    0    0 -0.37980727116E+02  0.36582708821E+02  0.17027272573E+03  0.17825159563E+03  0.00000000000E+00 0. -1.
        -13    1    4    4    0    0  0.24464328468E+02  0.42728086281E+01  0.18168883895E+02  0.30771230118E+02  0.00000000000E+00 0.  1.
         13    1    4    4    0    0 -0.38956249821E+02 -0.10429449922E+02  0.23812430385E+03  0.24151510700E+03  0.00000000000E+00 0. -1.
          1    1    1    2  501    0  0.18866012381E+02 -0.88530469350E+01  0.75026201035E+02  0.77866768939E+02  0.00000000000E+00 0. -1.
<scales pt_clust_5="13000.00000" pt_clust_6="13000.00000" pt_clust_7="13000.00000" pt_clust_8="13000.00000" pt_clust_9="20.83994"></scales>
<clustering>
<clus scale="   20.840">  2  9  1 -1</clus>
<clus scale="   90.585">  7  8 -1 -1</clus>
<clus scale="   91.342">  2  7  1 -1</clus>
<clus scale="   91.485">  5  6 -1 -1</clus>
<clus scale="   20.840">  2  5  1 -1</clus>
</clustering>
</event>
<event>
 9    1  0.1426358E-005  0.1164285E+03  0.7546771E-02  0.1250832E+00
         21   -1    0    0  501  502  0.00000000000E+00  0.00000000000E+00  0.41094306598E+03  0.41094306598E+03  0.00000000000E+00 0. -1.
         -3   -1    0    0    0  501 -0.00000000000E+00 -0.00000000000E+00 -0.50019807033E+02  0.50019807033E+02  0.00000000000E+00 0.  1.
         23    2    1    2    0    0 -0.48320128876E+02 -0.56773583086E+02  0.81256658778E+02  0.14586873307E+03  0.95482815734E+02 0.  0.
         23    2    1    2    0    0  0.32451309613E+02  0.44577620628E+02  0.14903211344E+03  0.18293540944E+03  0.90634107459E+02 0.  0.
        -11    1    4    4    0    0  0.40209400277E+02 -0.10330285968E+01  0.12393981376E+03  0.13030326340E+03  0.00000000000E+00 0. -1.
         11    1    4    4    0    0 -0.77580906644E+01  0.45610649225E+02  0.25092299682E+02  0.52632146041E+02  0.00000000000E+00 0.  1.
        -11    1    3    3    0    0 -0.76347694198E+02 -0.41510909522E+02  0.46049049213E+02  0.98349585419E+02  0.00000000000E+00 0. -1.
         11    1    3    3    0    0  0.28027565322E+02 -0.15262673564E+02  0.35207609564E+02  0.47519147651E+02  0.00000000000E+00 0.  1.
         -3    1    1    2    0  502  0.15868819263E+02  0.12195962457E+02  0.13063448673E+03  0.13215873050E+03  0.00000000000E+00 0.  1.
<scales pt_clust_5="13000.00000" pt_clust_6="13000.00000" pt_clust_7="13000.00000" pt_clust_8="13000.00000" pt_clust_9="20.01402"></scales>
<clustering>
<clus scale="   20.014">  1  9  2 -1</clus>
<clus scale="   90.634">  5  6 -1 -1</clus>
<clus scale="   95.483">  7  8 -1 -1</clus>
<clus scale="  112.486">  1  5  2 -1</clus>
<clus scale="   20.014">  1  5  2 -1</clus>
</clustering>
</event>
<event>
 9    1  0.1426358E-005  0.9232382E+02  0.7546771E-02  0.1297403E+00
         21   -1    0    0  501  502  0.00000000000E+00  0.00000000000E+00  0.62272652603E+02  0.62272652603E+02  0.00000000000E+00 0. -1.
         -1   -1    0    0    0  501 -0.00000000000E+00 -0.00000000000E+00 -0.19699299230E+03  0.19699299230E+03  0.00000000000E+00 0.  1.
         23    2    1    2    0    0 -0.22498875736E+02 -0.11633513625E+02 -0.77673642289E+02  0.12194152990E+03  0.90526261157E+02 0.  0.
         23    2    1    2    0    0 -0.80762335700E+01  0.20602765735E+02 -0.42631573071E+02  0.10235154572E+03  0.90380796548E+02 0.  0.
        -13    1    4    4    0    0 -0.46857556042E+02  0.15893273181E+02 -0.79544997867E+01  0.50114875610E+02  0.00000000000E+00 0. -1.
         13    1    4    4    0    0  0.38781322472E+02  0.47094925541E+01 -0.34677073285E+02  0.52236670112E+02  0.00000000000E+00 0.  1.
        -13    1    3    3    0    0  0.17005638922E+02 -0.41132220153E+02 -0.32981216161E+02  0.55396858298E+02  0.00000000000E+00 0.  1.
         13    1    3    3    0    0 -0.39504514658E+02  0.29498706528E+02 -0.44692426128E+02  0.66544671600E+02  0.00000000000E+00 0. -1.
         -1    1    1    2    0  502  0.30575109306E+02 -0.89692521098E+01 -0.14415124336E+02  0.34972569281E+02  0.00000000000E+00 0.  1.
<scales pt_clust_5="13000.00000" pt_clust_6="13000.00000" pt_clust_7="13000.00000" pt_clust_8="13000.00000" pt_clust_9="31.86353"></scales>
<clustering>
<clus scale="   31.864">  1  9  2 -1</clus>
<clus scale="   90.381">  5  6 -1 -1</clus>
<clus scale="   90.526">  7  8 -1 -1</clus>
<clus scale="   92.181">  1  5  2 -1</clus>
<clus scale="   31.864">  1  5  2 -1</clus>
</clustering>
</event>
<event>
 9    1  0.1426358E-005  0.2649258E+03  0.7546771E-02  0.1104323E+00
          2   -1    0    0  502    0 -0.00000000000E+00  0.00000000000E+00  0.54486124473E+03  0.54486124473E+03  0.00000000000E+00 0. -1.
         21   -1    0    0  501  502  0.00000000000E+00 -0.00000000000E+00 -0.22029678411E+03  0.22029678411E+03  0.00000000000E+00 0. -1.
         23    2    1    2    0    0  0.20382525559E+03  0.18547360791E+03  0.30232543959E+03  0.41880281511E+03  0.89721415877E+02 0.  0.
         23    2    1    2    0    0 -0.12722974426E+03 -0.17113428735E+03  0.84037709426E+02  0.24689885970E+03  0.91773406736E+02 0.  0.
        -11    1    3    3    0    0  0.17161216324E+03  0.10778417925E+03  0.18463367475E+03  0.27414915232E+03  0.00000000000E+00 0. -1.
         11    1    3    3    0    0  0.32213092356E+02  0.77689428667E+02  0.11769176484E+03  0.14465366279E+03  0.00000000000E+00 0.  1.
        -13    1    4    4    0    0 -0.53864584456E+02 -0.14360532536E+03  0.48533280837E+02  0.16087063834E+03  0.00000000000E+00 0. -1.
         13    1    4    4    0    0 -0.73365159805E+02 -0.27528961993E+02  0.35504428589E+02  0.86028221364E+02  0.00000000000E+00 0.  1.
          2    1    1    2  501    0 -0.76595511332E+02 -0.14339320560E+02 -0.61798688393E+02  0.99456354033E+02  0.00000000000E+00 0. -1.
<scales pt_clust_5="13000.00000" pt_clust_6="13000.00000" pt_clust_7="13000.00000" pt_clust_8="13000.00000" pt_clust_9="77.92617"></scales>
<clustering>
<clus scale="   77.926">  2  9  1 -1</clus>
<clus scale="   89.721">  5  6 -1 -1</clus>
<clus scale="   91.773">  7  8 -1 -1</clus>
<clus scale="  264.222">  1  5  2 -1</clus>
<clus scale="   77.926">  2  5  1 -1</clus>
</clustering>
</event>
<event>
 9    1  0.1426358E-005  0.3354111E+03  0.7546771E-02  0.1068879E+00
         21   -1    0    0  501  502  0.00000000000E+00  0.00000000000E+00  0.99511782252E+02  0.99511782252E+02  0.00000000000E+00 0. -1.
          2   -1    0    0  502    0 -0.00000000000E+00 -0.00000000000E+00 -0.14375969119E+04  0.14375969119E+04  0.00000000000E+00 0. -1.
         23    2    1    2    0    0  0.33144815343E+03 -0.81087010707E+02 -0.78754780493E+03  0.86275781772E+03  0.87672830867E+02 0.  0.
         23    2    1    2    0    0 -0.30182162959E+03  0.19583085323E+02 -0.49028619478E+03  0.58329780172E+03  0.91520376840E+02 0.  0.
        -11    1    4    4    0    0 -0.51437981466E+02  0.37716757492E+02 -0.80167417301E+02  0.10244625191E+03  0.00000000000E+00 0.  1.
         11    1    4    4    0    0 -0.25038364812E+03 -0.18133672169E+02 -0.41011877748E+03  0.48085154981E+03  0.00000000000E+00 0. -1.
        -13    1    3    3    0    0  0.46286151519E+02  0.19628794202E+01 -0.18867499955E+03  0.19427947955E+03  0.00000000000E+00 0.  1.
         13    1    3    3    0    0  0.28516200192E+03 -0.83049890127E+02 -0.59887280538E+03  0.66847833817E+03  0.00000000000E+00 0. -1.
          2    1    1    2  501    0 -0.29626523845E+02  0.61503925384E+02 -0.60251129894E+02  0.91053074667E+02  0.00000000000E+00 0. -1.
<scales pt_clust_5="13000.00000" pt_clust_6="13000.00000" pt_clust_7="13000.00000" pt_clust_8="13000.00000" pt_clust_9="68.26759"></scales>
<clustering>
<clus scale="   68.268">  1  9  2 -1</clus>
<clus scale="   87.673">  7  8 -1 -1</clus>
<clus scale="   91.520">  5  6 -1 -1</clus>
<clus scale="  334.382">  2  7  1 -1</clus>
<clus scale="   68.268">  1  5  2 -1</clus>
</clustering>
</event>
<event>
 9    1  0.1426358E-005  0.1552600E+03  0.7546771E-02  0.1195160E+00
         21   -1    0    0  501  502  0.00000000000E+00  0.00000000000E+00  0.55888934063E+02  0.55888934063E+02  0.00000000000E+00 0.  1.
          1   -1    0    0  502    0 -0.00000000000E+00 -0.00000000000E+00 -0.80686557690E+03  0.80686557690E+03  0.00000000000E+00 0. -1.
         23    2    1    2    0    0  0.35423099011E+02 -0.10912018729E+03 -0.52520300620E+03  0.54489960282E+03  0.88968355111E+02 0.  0.
         23    2    1    2    0    0 -0.39557615510E+02  0.14457092255E+03 -0.21862443674E+03  0.28145490930E+03  0.94629091901E+02 0.  0.
        -13    1    3    3    0    0 -0.13243782236E+01 -0.83842119454E+02 -0.44764728220E+03  0.45543313914E+03  0.00000000000E+00 0. -1.
         13    1    3    3    0    0  0.36747477234E+02 -0.25278067834E+02 -0.77555724002E+02  0.89466463672E+02  0.00000000000E+00 0.  1.
        -13    1    4    4    0    0  0.29424303611E+02  0.22545937075E+02 -0.47226364222E+02  0.60036975267E+02  0.00000000000E+00 0. -1.
         13    1    4    4    0    0 -0.68981919121E+02  0.12202498548E+03 -0.17139807252E+03  0.22141793403E+03  0.00000000000E+00 0.  1.
          1    1    1    2  501    0  0.41345164994E+01 -0.35450735265E+02 -0.71491999036E+01  0.36399998857E+02  0.00000000000E+00 0. -1.
<scales pt_clust_5="13000.00000" pt_clust_6="13000.00000" pt_clust_7="13000.00000" pt_clust_8="13000.00000" pt_clust_9="35.69102"></scales>
<clustering>
<clus scale="   35.691">  1  9  2 -1</clus>
<clus scale="   88.968">  5  6 -1 -1</clus>
<clus scale="   94.629">  7  8 -1 -1</clus>
<clus scale="  151.876">  2  5  1 -1</clus>
<clus scale="   35.691">  1  5  2 -1</clus>
</clustering>
</event>
<event>
 9    1  0.1426358E-005  0.1015668E+03  0.7546771E-02  0.1279305E+00
         -1   -1    0    0    0  501 -0.00000000000E+00  0.00000000000E+00  0.59912867447E+02  0.59912867447E+02  0.00000000000E+00 0.  1.
         21   -1    0    0  501  502  0.00000000000E+00 -0.00000000000E+00 -0.25314956212E+03  0.25314956212E+03  0.00000000000E+00 0.  1.
         23    2    1    2    0    0  0.30668623566E+02 -0.21786453835E+02 -0.27897214535E+02  0.10263935357E+03  0.91331091533E+02 0.  0.
         23    2    1    2    0    0 -0.30940943391E+02 -0.40045413815E+01 -0.10922082875E+03  0.14866101138E+03  0.95903746231E+02 0.  0.
        -11    1    3    3    0    0 -0.19675351446E+01 -0.48915607615E+02 -0.34222683048E+02  0.59731063090E+02  0.00000000000E+00 0.  1.
         11    1    3    3    0    0  0.32636158711E+02  0.27129153779E+02  0.63254685125E+01  0.42908290482E+02  0.00000000000E+00 0. -1.
        -13    1    4    4    0    0 -0.67558997360E+00 -0.33546023491E+02 -0.22444459427E+01  0.33627810685E+02  0.00000000000E+00 0.  1.
         13    1    4    4    0    0 -0.30265353418E+02  0.29541482110E+02 -0.10697638281E+03  0.11503320069E+03  0.00000000000E+00 0. -1.
         -1    1    1    2    0  502  0.27231982506E+00  0.25790995217E+02 -0.56118651385E+02  0.61762064616E+02  0.00000000000E+00 0.  1.
<scales pt_clust_5="13000.00000" pt_clust_6="13000.00000" pt_clust_7="13000.00000" pt_clust_8="13000.00000" pt_clust_9="25.79243"></scales>
<clustering>
<clus scale="   25.792">  2  9  1 -1</clus>
<clus scale="   91.331">  5  6 -1 -1</clus>
<clus scale="   95.904">  7  8 -1 -1</clus>
<clus scale="   97.261">  1  5  2 -1</clus>
<clus scale="   25.792">  2  5  1 -1</clus>
</clustering>
</event>
<event>
 9    1  0.1426358E-005  0.1000140E+03  0.7546771E-02  0.1284278E+00
         -2   -1    0    0    0  501 -0.00000000000E+00  0.00000000000E+00  0.29536253708E+03  0.29536253708E+03  0.00000000000E+00 0.  1.
         21   -1    0    0  501  502  0.00000000000E+00 -0.00000000000E+00 -0.89488667066E+02  0.89488667066E+02  0.00000000000E+00 0.  1.
         23    2    1    2    0    0  0.27336158074E+02  0.16812637184E+02  0.16839318849E+03  0.19824053772E+03  0.99564625039E+02 0.  0.
         23    2    1    2    0    0  0.39574423880E+02  0.22076877913E+02  0.37062590028E+02  0.10921819159E+03  0.92203330905E+02 0.  0.
        -11    1    4    4    0    0  0.32376045734E+02  0.57824954994E+02  0.23823715530E+02  0.70423740167E+02  0.00000000000E+00 0.  1.
         11    1    4    4    0    0  0.71983781460E+01 -0.35748077081E+02  0.13238874498E+02  0.38794451419E+02  0.00000000000E+00 0. -1.
        -13    1    3    3    0    0 -0.21097018821E+02  0.36323472782E+02  0.33938259586E+02  0.54002632730E+02  0.00000000000E+00 0.  1.
         13    1    3    3    0    0  0.48433176895E+02 -0.19510835598E+02  0.13445492890E+03  0.14423790499E+03  0.00000000000E+00 0. -1.
         -2    1    1    2    0  502 -0.66910581954E+02 -0.38889515096E+02  0.41809150175E+00  0.77392474843E+02  0.00000000000E+00 0.  1.
<scales pt_clust_5="13000.00000" pt_clust_6="13000.00000" pt_clust_7="13000.00000" pt_clust_8="13000.00000" pt_clust_9="77.39135"></scales>
<clustering>
<clus scale="   77.391">  2  9  1 -1</clus>
<clus scale="   92.203">  5  6 -1 -1</clus>
<clus scale="   92.688">  2  5  1 -1</clus>
<clus scale="   99.565">  7  8 -1 -1</clus>
<clus scale="   77.391">  2  5  1 -1</clus>
</clustering>
</event>
<event>
 9    1  0.1426358E-005  0.9097531E+02  0.7546771E-02  0.1300901E+00
         21   -1    0    0  501  502  0.00000000000E+00  0.00000000000E+00  0.60412110643E+02  0.60412110643E+02  0.00000000000E+00 0. -1.
          2   -1    0    0  502    0 -0.00000000000E+00 -0.00000000000E+00 -0.37549436168E+03  0.37549436168E+03  0.00000000000E+00 0. -1.
         23    2    1    2    0    0  0.53014720889E+01  0.98916871595E+01 -0.28148700601E+03  0.29599191507E+03  0.90831317035E+02 0.  0.
         23    2    1    2    0    0  0.20210098965E+02  0.14563963993E+02 -0.43562109882E+02  0.10319593083E+03  0.90173086761E+02 0.  0.
        -11    1    4    4    0    0 -0.31416893250E+02  0.25848335175E+02 -0.17858974790E+02  0.44430851819E+02  0.00000000000E+00 0.  1.
         11    1    4    4    0    0  0.51626992215E+02 -0.11284371182E+02 -0.25703135092E+02  0.58765079016E+02  0.00000000000E+00 0. -1.
        -13    1    3    3    0    0 -0.36924976023E+02 -0.66650615617E+01 -0.19238749471E+03  0.19601230834E+03  0.00000000000E+00 0.  1.
         13    1    3    3    0    0  0.42226448112E+02  0.16556748721E+02 -0.89099511295E+02  0.99979606727E+02  0.00000000000E+00 0. -1.
          2    1    1    2  501    0 -0.25511571054E+02 -0.24455651152E+02  0.99668648540E+01  0.36718626417E+02  0.00000000000E+00 0. -1.
<scales pt_clust_5="13000.00000" pt_clust_6="13000.00000" pt_clust_7="13000.00000" pt_clust_8="13000.00000" pt_clust_9="35.34005"></scales>
<clustering>
<clus scale="   35.340">  1  9  2 -1</clus>
<clus scale="   90.173">  5  6 -1 -1</clus>
<clus scale="   90.318">  1  5  2 -1</clus>
<clus scale="   90.831">  7  8 -1 -1</clus>
<clus scale="   35.340">  1  5  2 -1</clus>
</clustering>
</event>
<event>
 9    1  0.1426358E-005  0.1585027E+03  0.7546771E-02  0.1207215E+00
         21   -1    0    0  501  502  0.00000000000E+00  0.00000000000E+00  0.30536810847E+03  0.30536810847E+03  0.00000000000E+00 0.  1.
         -1   -1    0    0    0  501 -0.00000000000E+00 -0.00000000000E+00 -0.19974768895E+03  0.19974768895E+03  0.00000000000E+00 0.  1.
         23    2    1    2    0    0 -0.38370192213E+02 -0.57363479645E+02  0.62868387952E+01  0.11009976564E+03  0.85554623513E+02 0.  0.
         23    2    1    2    0    0  0.13296777570E+03  0.13149387785E+03 -0.39433304167E+02  0.21143970684E+03  0.90447193793E+02 0.  0.
        -11    1    3    3    0    0 -0.39428465480E+01 -0.59781221755E+02  0.31187311048E+02  0.67542496873E+02  0.00000000000E+00 0.  1.
         11    1    3    3    0    0 -0.34427345665E+02  0.24177421099E+01 -0.24900472253E+02  0.42557268767E+02  0.00000000000E+00 0. -1.
        -13    1    4    4    0    0  0.12230414018E+03  0.11448238834E+03 -0.64334001356E+02  0.17945301245E+03  0.00000000000E+00 0.  1.
         13    1    4    4    0    0  0.10663635517E+02  0.17011489508E+02  0.24900697189E+02  0.31986694393E+02  0.00000000000E+00 0. -1.
         -1    1    1    2    0  502 -0.94597583485E+02 -0.74130398205E+02  0.13876688489E+03  0.18357632495E+03  0.00000000000E+00 0.  1.
<scales pt_clust_5="13000.00000" pt_clust_6="13000.00000" pt_clust_7="13000.00000" pt_clust_8="13000.00000" pt_clust_9="130.16299"></scales>
<clustering>
<clus scale="   85.555">  5  6 -1 -1</clus>
<clus scale="   90.447">  7  8 -1 -1</clus>
<clus scale="  109.920">  2  5  1 -1</clus>
<clus scale="  130.163">  1  9  2 -1</clus>
<clus scale="  130.163">  1  5  2 -1</clus>
</clustering>
</event>
<event>
 9    1  0.1426358E-005  0.1248859E+03  0.7546771E-02  0.1236242E+00
         21   -1    0    0  501  502  0.00000000000E+00  0.00000000000E+00  0.29231313998E+03  0.29231313998E+03  0.00000000000E+00 0.  1.
          3   -1    0    0  502    0 -0.00000000000E+00 -0.00000000000E+00 -0.97211741934E+02  0.97211741934E+02  0.00000000000E+00 0. -1.
         23    2    1    2    0    0  0.70559016532E+02 -0.57026446145E+01  0.15326325239E+02  0.11490176453E+03  0.89198790785E+02 0.  0.
         23    2    1    2    0    0 -0.10684185536E+03 -0.80551490716E+01  0.69581690388E+02  0.15779716646E+03  0.92618932308E+02 0.  0.
        -13    1    3    3    0    0 -0.39279777929E+01  0.30259431128E+02  0.96089754830E+01  0.31990539095E+02  0.00000000000E+00 0.  1.
         13    1    3    3    0    0  0.74486994325E+02 -0.35962075742E+02  0.57173497565E+01  0.82911225437E+02  0.00000000000E+00 0. -1.
        -13    1    4    4    0    0 -0.74562198005E+02 -0.32852187919E+02  0.81641567507E+02  0.11534354411E+03  0.00000000000E+00 0.  1.
         13    1    4    4    0    0 -0.32279657355E+02  0.24797038848E+02 -0.12059877119E+02  0.42453622351E+02  0.00000000000E+00 0. -1.
          3    1    1    2  501    0  0.36282838828E+02  0.13757793686E+02  0.11019338242E+03  0.11682595092E+03  0.00000000000E+00 0. -1.
<scales pt_clust_5="13000.00000" pt_clust_6="13000.00000" pt_clust_7="13000.00000" pt_clust_8="13000.00000" pt_clust_9="38.80362"></scales>
<clustering>
<clus scale="   38.804">  1  9  2 -1</clus>
<clus scale="   89.199">  5  6 -1 -1</clus>
<clus scale="   92.619">  7  8 -1 -1</clus>
<clus scale="  122.371">  2  5  1 -1</clus>
<clus scale="   38.804">  1  5  2 -1</clus>
</clustering>
</event>
<event>
 9    1  0.1426358E-005  0.2536359E+03  0.7546771E-02  0.1111058E+00
          1   -1    0    0  502    0 -0.00000000000E+00  0.00000000000E+00  0.12839231113E+03  0.12839231113E+03  0.00000000000E+00 0. -1.
         21   -1    0    0  501  502  0.00000000000E+00 -0.00000000000E+00 -0.64073361001E+03  0.64073361001E+03  0.00000000000E+00 0. -1.
         23    2    1    2    0    0  0.24684755460E+03 -0.41974845483E+02 -0.16244772057E+03  0.31226007612E+03  0.91768678497E+02 0.  0.
         23    2    1    2    0    0 -0.22004213988E+03  0.14763464646E+02 -0.23163397687E+03  0.33259065507E+03  0.91245500668E+02 0.  0.
        -11    1    4    4    0    0 -0.67936720534E+02  0.47349123327E+02 -0.72595850693E+02  0.11012490642E+03  0.00000000000E+00 0. -1.
         11    1    4    4    0    0 -0.15210541934E+03 -0.32585658682E+02 -0.15903812617E+03  0.22246574865E+03  0.00000000000E+00 0.  1.
        -13    1    3    3    0    0  0.16466326506E+03  0.15592913728E+02 -0.11365142830E+03  0.20068327527E+03  0.00000000000E+00 0.  1.
         13    1    3    3    0    0  0.82184289540E+02 -0.57567759211E+02 -0.48796292265E+02  0.11157680084E+03  0.00000000000E+00 0. -1.
          1    1    1    2  501    0 -0.26805414721E+02  0.27211380837E+02 -0.11825960144E+03  0.12427518995E+03  0.00000000000E+00 0. -1.
<scales pt_clust_5="13000.00000" pt_clust_6="13000.00000" pt_clust_7="13000.00000" pt_clust_8="13000.00000" pt_clust_9="38.19672"></scales>
<clustering>
<clus scale="   38.197">  2  9  1 -1</clus>
<clus scale="   91.246">  5  6 -1 -1</clus>
<clus scale="   91.769">  7  8 -1 -1</clus>
<clus scale="  253.447">  2  5  1 -1</clus>
<clus scale="   38.197">  2  5  1 -1</clus>
</clustering>
</event>
<event>
 9    1  0.1426358E-005  0.9782659E+02  0.7546771E-02  0.1285479E+00
          2   -1    0    0  502    0 -0.00000000000E+00  0.00000000000E+00  0.25845613320E+03  0.25845613320E+03  0.00000000000E+00 0. -1.
         21   -1    0    0  501  502  0.00000000000E+00 -0.00000000000E+00 -0.35749597713E+03  0.35749597713E+03  0.00000000000E+00 0. -1.
         23    2    1    2    0    0  0.11377997839E+02  0.26155274446E+02  0.14498681561E+03  0.17547884151E+03  0.94647186445E+02 0.  0.
         23    2    1    2    0    0  0.73722680016E+02  0.89312166606E+01  0.51006783733E+02  0.13141353369E+03  0.95671441250E+02 0.  0.
        -11    1    4    4    0    0  0.63084984960E+02  0.48798896393E+02  0.31173538569E+02  0.85631986568E+02  0.00000000000E+00 0. -1.
         11    1    4    4    0    0  0.10637695057E+02 -0.39867679733E+02  0.19833245164E+02  0.45781547124E+02  0.00000000000E+00 0.  1.
        -13    1    3    3    0    0 -0.22223841574E+02  0.31693414915E+02  0.13432879630E+03  0.13979483967E+03  0.00000000000E+00 0.  1.
         13    1    3    3    0    0  0.33601839413E+02 -0.55381404697E+01  0.10658019310E+02  0.35684001842E+02  0.00000000000E+00 0. -1.
          2    1    1    2  501    0 -0.85100677855E+02 -0.35086491106E+02 -0.29503344327E+03  0.30905973512E+03  0.00000000000E+00 0. -1.
<scales pt_clust_5="13000.00000" pt_clust_6="13000.00000" pt_clust_7="13000.00000" pt_clust_8="13000.00000" pt_clust_9="92.04992"></scales>
<clustering>
<clus scale="   92.050">  2  9  1 -1</clus>
<clus scale="   94.647">  7  8 -1 -1</clus>
<clus scale="   95.671">  5  6 -1 -1</clus>
<clus scale="   96.825">  1  7  2 -1</clus>
<clus scale="   92.050">  2  5  1 -1</clus>
</clustering>
</event>
<event>
 9    1  0.1426358E-005  0.9139602E+02  0.7546771E-02  0.1300051E+00
         -3   -1    0    0    0  501 -0.00000000000E+00  0.00000000000E+00  0.18186666405E+03  0.18186666405E+03  0.00000000000E+00 0.  1.
         21   -1    0    0  501  502  0.00000000000E+00 -0.00000000000E+00 -0.59785682258E+02  0.59785682258E+02  0.00000000000E+00 0. -1.
         23    2    1    2    0    0 -0.46571996138E+00 -0.65289757763E+01  0.58995273607E+02  0.10834345583E+03  0.90636734790E+02 0.  0.
         23    2    1    2    0    0 -0.22758466034E+02  0.21528176316E+01  0.57637110610E+02  0.10905603929E+03  0.89713994372E+02 0.  0.
        -11    1    3    3    0    0 -0.43146494570E+02 -0.70634381481E+01  0.13041734377E+02  0.45624543699E+02  0.00000000000E+00 0.  1.
         11    1    3    3    0    0  0.42680774608E+02  0.53446237183E+00  0.45953539230E+02  0.62718912131E+02  0.00000000000E+00 0. -1.
        -13    1    4    4    0    0  0.16421516094E+02 -0.24860140958E+02 -0.51867572471E+01  0.30242275874E+02  0.00000000000E+00 0. -1.
         13    1    4    4    0    0 -0.39179982128E+02  0.27012958590E+02  0.62823867858E+02  0.78813763417E+02  0.00000000000E+00 0.  1.
         -3    1    1    2    0  502  0.23224185995E+02  0.43761581447E+01  0.54485975762E+01  0.24252851189E+02  0.00000000000E+00 0.  1.
<scales pt_clust_5="13000.00000" pt_clust_6="13000.00000" pt_clust_7="13000.00000" pt_clust_8="13000.00000" pt_clust_9="23.63289"></scales>
<clustering>
<clus scale="   23.633">  2  9  1 -1</clus>
<clus scale="   89.714">  7  8 -1 -1</clus>
<clus scale="   90.481">  2  7  1 -1</clus>
<clus scale="   90.637">  5  6 -1 -1</clus>
<clus scale="   23.633">  2  5  1 -1</clus>
</clustering>
</event>
<event>
 9    1  0.1426358E-005  0.1688861E+03  0.7546771E-02  0.1205132E+00
         -3   -1    0    0    0  501 -0.00000000000E+00  0.00000000000E+00  0.21218048409E+03  0.21218048409E+03  0.00000000000E+00 0.  1.
         21   -1    0    0  501  502  0.00000000000E+00 -0.00000000000E+00 -0.11128303761E+04  0.11128303761E+04  0.00000000000E+00 0.  1.
         23    2    1    2    0    0  0.23768825566E+02 -0.57154213093E+01 -0.87657682361E+02  0.12928185260E+03  0.91827583141E+02 0.  0.
         23    2    1    2    0    0  0.11815318299E+03 -0.47694358526E+01  0.15603842575E+03  0.21630460465E+03  0.91960695472E+02 0.  0.
        -11    1    4    4    0    0  0.41221524168E+02 -0.92552657216E+01 -0.29430053138E-01  0.42247779402E+02  0.00000000000E+00 0. -1.
         11    1    4    4    0    0  0.76931658818E+02  0.44858298689E+01  0.15606785581E+03  0.17405682524E+03  0.00000000000E+00 0.  1.
        -11    1    3    3    0    0  0.56150847133E+02 -0.15323135154E+02 -0.70420330071E+02  0.91360489228E+02  0.00000000000E+00 0.  1.
         11    1    3    3    0    0 -0.32382021567E+02  0.96077138448E+01 -0.17237352290E+02  0.37921363373E+02  0.00000000000E+00 0. -1.
         -3    1    1    2    0  502 -0.14192200855E+03  0.10484857162E+02 -0.96903063538E+03  0.97942440292E+03  0.00000000000E+00 0.  1.
<scales pt_clust_5="13000.00000" pt_clust_6="13000.00000" pt_clust_7="13000.00000" pt_clust_8="13000.00000" pt_clust_9="141.65366"></scales>
<clustering>
<clus scale="   91.828">  7  8 -1 -1</clus>
<clus scale="   91.961">  5  6 -1 -1</clus>
<clus scale="   95.026">  1  7  2 -1</clus>
<clus scale="  141.654">  2  9  1 -1</clus>
<clus scale="  141.654">  2  5  1 -1</clus>
</clustering>
</event>
<event>
 9    1  0.1426358E-005  0.1017595E+03  0.7546771E-02  0.1277817E+00
         21   -1    0    0  501  502  0.00000000000E+00  0.00000000000E+00  0.31545027247E+02  0.31545027247E+02  0.00000000000E+00 0. -1.
          2   -1    0    0  502    0 -0.00000000000E+00 -0.00000000000E+00 -0.61830174190E+03  0.61830174190E+03  0.00000000000E+00 0. -1.
         23    2    1    2    0    0  0.26714615927E+02 -0.17885296893E+02 -0.33130250094E+03  0.34596201973E+03  0.94312339676E+02 0.  0.
         23    2    1    2    0    0 -0.11439429623E+02  0.64400418100E+02 -0.15039341585E+03  0.18797634133E+03  0.91862130220E+02 0.  0.
        -13    1    4    4    0    0 -0.28615051114E+02  0.75334864108E+02 -0.75727173408E+02  0.11058375872E+03  0.00000000000E+00 0. -1.
         13    1    4    4    0    0  0.17175621492E+02 -0.10934446008E+02 -0.74666242441E+02  0.77392582612E+02  0.00000000000E+00 0.  1.
        -13    1    3    3    0    0  0.51595090545E+02  0.16921091122E+02 -0.22298258606E+03  0.22949860649E+03  0.00000000000E+00 0. -1.
         13    1    3    3    0    0 -0.24880474619E+02 -0.34806388015E+02 -0.10831991488E+03  0.11646341324E+03  0.00000000000E+00 0.  1.
          2    1    1    2  501    0 -0.15275186304E+02 -0.46515121207E+02 -0.10506079786E+03  0.11590840808E+03  0.00000000000E+00 0. -1.
<scales pt_clust_5="13000.00000" pt_clust_6="13000.00000" pt_clust_7="13000.00000" pt_clust_8="13000.00000" pt_clust_9="48.95907"></scales>
<clustering>
<clus scale="   48.959">  1  9  2 -1</clus>
<clus scale="   91.862">  5  6 -1 -1</clus>
<clus scale="   94.312">  7  8 -1 -1</clus>
<clus scale="   99.493">  1  5  2 -1</clus>
<clus scale="   48.959">  1  5  2 -1</clus>
</clustering>
</event>
<event>
 9    1  0.1426358E-005  0.9610385E+02  0.7546771E-02  0.1291111E+00
         -1   -1    0    0    0  501 -0.00000000000E+00  0.00000000000E+00  0.49531889308E+03  0.49531889308E+03  0.00000000000E+00 0.  1.
         21   -1    0    0  501  502  0.00000000000E+00 -0.00000000000E+00 -0.65358098502E+02  0.65358098502E+02  0.00000000000E+00 0.  1.
         23    2    1    2    0    0  0.69005622010E+01 -0.24292168954E+02  0.29219868113E+03  0.30624424476E+03  0.88134788620E+02 0.  0.
         23    2    1    2    0    0 -0.28963634469E+02  0.15952351591E+02  0.18055929229E+03  0.20556629383E+03  0.92533634334E+02 0.  0.
        -11    1    4    4    0    0  0.12266564962E+02  0.43985903605E+02  0.62445087702E+02  0.77360308363E+02  0.00000000000E+00 0. -1.
         11    1    4    4    0    0 -0.41230199432E+02 -0.28033552014E+02  0.11811420459E+03  0.12820598547E+03  0.00000000000E+00 0.  1.
        -13    1    3    3    0    0 -0.35866834681E+02  0.18137878703E+01  0.72536115387E+02  0.80939531083E+02  0.00000000000E+00 0. -1.
         13    1    3    3    0    0  0.42767396882E+02 -0.26105956824E+02  0.21966256574E+03  0.22530471368E+03  0.00000000000E+00 0.  1.
         -1    1    1    2    0  502  0.22063072268E+02  0.83398173625E+01 -0.42797178839E+02  0.48866452993E+02  0.00000000000E+00 0.  1.
<scales pt_clust_5="13000.00000" pt_clust_6="13000.00000" pt_clust_7="13000.00000" pt_clust_8="13000.00000" pt_clust_9="23.58669"></scales>
<clustering>
<clus scale="   23.587">  2  9  1 -1</clus>
<clus scale="   88.135">  7  8 -1 -1</clus>
<clus scale="   91.876">  1  7  2 -1</clus>
<clus scale="   92.534">  5  6 -1 -1</clus>
<clus scale="   23.587">  2  5  1 -1</clus>
</clustering>
</event>
<event>
 9    1  0.1426358E-005  0.1055043E+03  0.7546771E-02  0.1269504E+00
          1   -1    0    0  502    0 -0.00000000000E+00  0.00000000000E+00  0.21025895675E+03  0.21025895675E+03  0.00000000000E+00 0. -1.
         21   -1    0    0  501  502  0.00000000000E+00 -0.00000000000E+00 -0.22595968534E+03  0.22595968534E+03  0.00000000000E+00 0.  1.
         23    2    1    2    0    0  0.28906334655E+02  0.42048105144E+02  0.15620581351E+03  0.18879183012E+03  0.92943421593E+02 0.  0.
         23    2    1    2    0    0 -0.34993958557E+01 -0.16039859111E+02 -0.18557625268E+03  0.20858350639E+03  0.93803042216E+02 0.  0.
        -11    1    3    3    0    0  0.56822361888E+02  0.38170375006E+02  0.14106960679E+03  0.15680048565E+03  0.00000000000E+00 0.  1.
         11    1    3    3    0    0 -0.27916027233E+02  0.38777301381E+01  0.15136206715E+02  0.31991344474E+02  0.00000000000E+00 0. -1.
        -11    1    4    4    0    0  0.43407568825E+02 -0.20441795366E+02 -0.88065213443E+02  0.10028741620E+03  0.00000000000E+00 0.  1.
         11    1    4    4    0    0 -0.46906964681E+02  0.44019362550E+01 -0.97511039234E+02  0.10829609019E+03  0.00000000000E+00 0. -1.
          1    1    1    2  501    0 -0.25406938799E+02 -0.26008246033E+02  0.13669710586E+02  0.38843305580E+02  0.00000000000E+00 0. -1.
<scales pt_clust_5="13000.00000" pt_clust_6="13000.00000" pt_clust_7="13000.00000" pt_clust_8="13000.00000" pt_clust_9="36.35853"></scales>
<clustering>
<clus scale="   36.359">  2  9  1 -1</clus>
<clus scale="   92.943">  5  6 -1 -1</clus>
<clus scale="   93.803">  7  8 -1 -1</clus>
<clus scale="  104.741">  1  5  2 -1</clus>
<clus scale="   36.359">  2  5  1 -1</clus>
</clustering>
</event>
<event>
 9    1  0.1426358E-005  0.9525834E+02  0.7546771E-02  0.1291265E+00
          3   -1    0    0  502    0 -0.00000000000E+00  0.00000000000E+00  0.77045991992E+02  0.77045991992E+02  0.00000000000E+00 0. -1.
         21   -1    0    0  501  502  0.00000000000E+00 -0.00000000000E+00 -0.19193815918E+03  0.19193815918E+03  0.00000000000E+00 0. -1.
         23    2    1    2    0    0 -0.21809951502E+01  0.98758225290E+01  0.38278860334E+01  0.95205971141E+02  0.94589828306E+02 0.  0.
         23    2    1    2    0    0  0.27129304561E+02  0.40856460573E+01 -0.82248654268E+02  0.12743701378E+03  0.93395180193E+02 0.  0.
        -11    1    3    3    0    0 -0.38575060420E+02 -0.37996552285E+01 -0.25594279698E+02  0.46449325286E+02  0.00000000000E+00 0.  1.
         11    1    3    3    0    0  0.36394065270E+02  0.13675477758E+02  0.29422165731E+02  0.48756645855E+02  0.00000000000E+00 0. -1.
        -13    1    4    4    0    0  0.53392144926E+02 -0.22449519252E+02 -0.62462377110E+02  0.85183628760E+02  0.00000000000E+00 0. -1.
         13    1    4    4    0    0 -0.26262840366E+02  0.26535165310E+02 -0.19786277158E+02  0.42253385023E+02  0.00000000000E+00 0.  1.
          3    1    1    2  501    0 -0.24948309411E+02 -0.13961468586E+02 -0.36471398949E+02  0.46341166244E+02  0.00000000000E+00 0. -1.
<scales pt_clust_5="13000.00000" pt_clust_6="13000.00000" pt_clust_7="13000.00000" pt_clust_8="13000.00000" pt_clust_9="28.58917"></scales>
<clustering>
<clus scale="   28.589">  2  9  1 -1</clus>
<clus scale="   93.395">  7  8 -1 -1</clus>
<clus scale="   94.072">  2  7  1 -1</clus>
<clus scale="   94.590">  5  6 -1 -1</clus>
<clus scale="   28.589">  2  5  1 -1</clus>
</clustering>
</event>
<event>
 9    1  0.1426358E-005  0.9417740E+02  0.7546771E-02  0.1297472E+00
         21   -1    0    0  501  502  0.00000000000E+00  0.00000000000E+00  0.47566562484E+02  0.47566562484E+02  0.00000000000E+00 0. -1.
          1   -1    0    0  502    0 -0.00000000000E+00 -0.00000000000E+00 -0.27324944130E+03  0.27324944130E+03  0.00000000000E+00 0. -1.
         23    2    1    2    0    0 -0.24638647953E+02  0.16413845590E+02 -0.12291170756E+03  0.15211551366E+03  0.84589386691E+02 0.  0.
         23    2    1    2    0    0 -0.12817282454E+02 -0.17228365564E+02 -0.85009375088E+02  0.12723856098E+03  0.92206063993E+02 0.  0.
        -11    1    3    3    0    0 -0.42322865492E+01  0.39723938377E+02 -0.20066249152E+02  0.44705233303E+02  0.00000000000E+00 0.  1.
         11    1    3    3    0    0 -0.20406361404E+02 -0.23310092787E+02 -0.10284545840E+03  0.10741028036E+03  0.00000000000E+00 0. -1.
        -13    1    4    4    0    0  0.38225822463E+02 -0.16682674822E+01 -0.20132907286E+02  0.43235755748E+02  0.00000000000E+00 0.  1.
         13    1    4    4    0    0 -0.51043104917E+02 -0.15560098082E+02 -0.64876467802E+02  0.84002805229E+02  0.00000000000E+00 0. -1.
          1    1    1    2  501    0  0.37455930407E+02  0.81451997375E+00 -0.17761796170E+02  0.41461929147E+02  0.00000000000E+00 0. -1.
<scales pt_clust_5="13000.00000" pt_clust_6="13000.00000" pt_clust_7="13000.00000" pt_clust_8="13000.00000" pt_clust_9="37.46479"></scales>
<clustering>
<clus scale="   37.465">  1  9  2 -1</clus>
<clus scale="   84.589">  5  6 -1 -1</clus>
<clus scale="   86.734">  2  5  1 -1</clus>
<clus scale="   92.206">  7  8 -1 -1</clus>
<clus scale="   37.465">  1  5  2 -1</clus>
</clustering>
</event>
<event>
 9    1  0.1426358E-005  0.9351623E+02  0.7546771E-02  0.1295585E+00
         -2   -1    0    0    0  501 -0.00000000000E+00  0.00000000000E+00  0.44732237386E+03  0.44732237386E+03  0.00000000000E+00 0.  1.
         21   -1    0    0  501  502  0.00000000000E+00 -0.00000000000E+00 -0.47175137508E+02  0.47175137508E+02  0.00000000000E+00 0.  1.
         23    2    1    2    0    0  0.19732237011E+02 -0.43980922193E+01  0.30458346228E+03  0.31793967455E+03  0.88914828750E+02 0.  0.
         23    2    1    2    0    0 -0.18233900360E+02  0.32302777937E+02  0.10809750979E+03  0.14593087111E+03  0.90745814978E+02 0.  0.
        -11    1    4    4    0    0 -0.34448592223E+02  0.48485000909E+02  0.34297656467E+02  0.68657337979E+02  0.00000000000E+00 0. -1.
         11    1    4    4    0    0  0.16214691863E+02 -0.16182222971E+02  0.73799853319E+02  0.77273533130E+02  0.00000000000E+00 0.  1.
        -13    1    3    3    0    0  0.43847631037E+02  0.13426599867E+02  0.26123594373E+03  0.26523028980E+03  0.00000000000E+00 0.  1.
         13    1    3    3    0    0 -0.24115394026E+02 -0.17824692086E+02  0.43347518543E+02  0.52709384751E+02  0.00000000000E+00 0. -1.
         -2    1    1    2    0  502 -0.14983366510E+01 -0.27904685718E+02 -0.12533735706E+02  0.30626965708E+02  0.00000000000E+00 0.  1.
<scales pt_clust_5="13000.00000" pt_clust_6="13000.00000" pt_clust_7="13000.00000" pt_clust_8="13000.00000" pt_clust_9="27.94488"></scales>
<clustering>
<clus scale="   27.945">  2  9  1 -1</clus>
<clus scale="   88.915">  7  8 -1 -1</clus>
<clus scale="   90.746">  5  6 -1 -1</clus>
<clus scale="   91.741">  1  7  2 -1</clus>
<clus scale="   27.945">  2  5  1 -1</clus>
</clustering>
</event>
<event>
 9    1  0.1426358E-005  0.1599893E+03  0.7546771E-02  0.1207122E+00
         21   -1    0    0  501  502  0.00000000000E+00  0.00000000000E+00  0.10609048074E+03  0.10609048074E+03  0.00000000000E+00 0. -1.
          2   -1    0    0  502    0 -0.00000000000E+00 -0.00000000000E+00 -0.40877759246E+03  0.40877759246E+03  0.00000000000E+00 0. -1.
         23    2    1    2    0    0 -0.42553396286E+02  0.36540256425E+02 -0.52800767263E+02  0.11940677418E+03  0.91236367861E+02 0.  0.
         23    2    1    2    0    0  0.15803843953E+03 -0.41889381914E+02 -0.17995046562E+03  0.26034492140E+03  0.93093712647E+02 0.  0.
        -13    1    4    4    0    0  0.31888020973E+02  0.29143654215E+02 -0.46069335672E+02  0.63155222681E+02  0.00000000000E+00 0.  1.
         13    1    4    4    0    0  0.12615041855E+03 -0.71033036130E+02 -0.13388112995E+03  0.19718969872E+03  0.00000000000E+00 0. -1.
        -13    1    3    3    0    0 -0.21188364111E+02  0.59204543260E+02 -0.60566270989E+02  0.87306345118E+02  0.00000000000E+00 0. -1.
         13    1    3    3    0    0 -0.21365032175E+02 -0.22664286836E+02  0.77655037258E+01  0.32100429058E+02  0.00000000000E+00 0.  1.
          2    1    1    2  501    0 -0.11548504324E+03  0.53491254895E+01 -0.69935878830E+02  0.13511637763E+03  0.00000000000E+00 0. -1.
<scales pt_clust_5="13000.00000" pt_clust_6="13000.00000" pt_clust_7="13000.00000" pt_clust_8="13000.00000" pt_clust_9="130.11591"></scales>
<clustering>
<clus scale="   91.236">  7  8 -1 -1</clus>
<clus scale="   93.094">  5  6 -1 -1</clus>
<clus scale="  107.098">  2  7  1 -1</clus>
<clus scale="  130.116">  1  9  2 -1</clus>
<clus scale="  130.116">  1  5  2 -1</clus>
</clustering>
</event>
<event>
 9    1  0.1426358E-005  0.1342754E+03  0.7546771E-02  0.1221402E+00
         -1   -1    0    0    0  501 -0.00000000000E+00  0.00000000000E+00  0.35113222629E+03  0.35113222629E+03  0.00000000000E+00 0.  1.
         21   -1    0    0  501  502  0.00000000000E+00 -0.00000000000E+00 -0.68612279189E+02  0.68612279189E+02  0.00000000000E+00 0.  1.
         23    2    1    2    0    0  0.48991900413E+02  0.70005749572E+02  0.14795017310E+03  0.19493485014E+03  0.93858035350E+02 0.  0.
         23    2    1    2    0    0 -0.70491967565E+02 -0.82723335051E+02  0.13816725974E+03  0.19957214809E+03  0.94480595770E+02 0.  0.
        -13    1    4    4    0    0 -0.45255457058E+02 -0.10216890133E+03  0.10105545838E+03  0.15066103166E+03  0.00000000000E+00 0.  1.
         13    1    4    4    0    0 -0.25236510508E+02  0.19445566279E+02  0.37111801361E+02  0.48911116434E+02  0.00000000000E+00 0. -1.
        -13    1    3    3    0    0  0.65208316884E+01  0.45982474069E+02  0.85257189961E+01  0.47218609168E+02  0.00000000000E+00 0.  1.
         13    1    3    3    0    0  0.42471068724E+02  0.24023275503E+02  0.13942445411E+03  0.14771624097E+03  0.00000000000E+00 0. -1.
         -1    1    1    2    0  502  0.21500067152E+02  0.12717585479E+02 -0.35974857468E+01  0.25237507240E+02  0.00000000000E+00 0.  1.
<scales pt_clust_5="13000.00000" pt_clust_6="13000.00000" pt_clust_7="13000.00000" pt_clust_8="13000.00000" pt_clust_9="24.97979"></scales>
<clustering>
<clus scale="   24.980">  2  9  1 -1</clus>
<clus scale="   93.858">  7  8 -1 -1</clus>
<clus scale="   94.481">  5  6 -1 -1</clus>
<clus scale="  133.838">  1  7  2 -1</clus>
<clus scale="   24.980">  2  5  1 -1</clus>
</clustering>
</event>
<event>
 9    1  0.1426358E-005  0.1154644E+03  0.7546771E-02  0.1252026E+00
          1   -1    0    0  502    0 -0.00000000000E+00  0.00000000000E+00  0.32399576008E+03  0.32399576008E+03  0.00000000000E+00 0. -1.
         21   -1    0    0  501  502  0.00000000000E+00 -0.00000000000E+00 -0.92742679412E+02  0.92742679412E+02  0.00000000000E+00 0. -1.
         23    2    1    2    0    0  0.40029277308E+02 -0.49163438024E+02  0.24130415615E+03  0.26663994968E+03  0.94073270960E+02 0.  0.
         23    2    1    2    0    0 -0.58203347910E+02  0.60044974923E+02  0.61758965990E+01  0.12341479985E+03  0.90554085507E+02 0.  0.
        -11    1    4    4    0    0 -0.22984433643E+02 -0.27249862703E+01 -0.33889867870E+02  0.41039406481E+02  0.00000000000E+00 0.  1.
         11    1    4    4    0    0 -0.35218914268E+02  0.62769961193E+02  0.40065764469E+02  0.82375393370E+02  0.00000000000E+00 0. -1.
        -13    1    3    3    0    0  0.67127654920E+02 -0.46694684967E+02  0.20885353212E+03  0.22429068982E+03  0.00000000000E+00 0. -1.
         13    1    3    3    0    0 -0.27098377613E+02 -0.24687530570E+01  0.32450624028E+02  0.42349259860E+02  0.00000000000E+00 0.  1.
          1    1    1    2  501    0  0.18174070603E+02 -0.10881536899E+02 -0.16226972075E+02  0.26683689968E+02  0.00000000000E+00 0. -1.
<scales pt_clust_5="13000.00000" pt_clust_6="13000.00000" pt_clust_7="13000.00000" pt_clust_8="13000.00000" pt_clust_9="21.18265"></scales>
<clustering>
<clus scale="   21.183">  2  9  1 -1</clus>
<clus scale="   90.554">  5  6 -1 -1</clus>
<clus scale="   94.073">  7  8 -1 -1</clus>
<clus scale="  112.616">  2  5  1 -1</clus>
<clus scale="   21.183">  2  5  1 -1</clus>
</clustering>
</event>
<event>
 9    1  0.1426358E-005  0.1060730E+03  0.7546771E-02  0.1268743E+00
         -2   -1    0    0    0  501 -0.00000000000E+00  0.00000000000E+00  0.41199399273E+03  0.41199399273E+03  0.00000000000E+00 0.  1.
         21   -1    0    0  501  502  0.00000000000E+00 -0.00000000000E+00 -0.61630868103E+02  0.61630868103E+02  0.00000000000E+00 0. -1.
         23    2    1    2    0    0  0.50355910094E+02 -0.54450270151E+02  0.10516367348E+03  0.15791208040E+03  0.91522004553E+02 0.  0.
         23    2    1    2    0    0 -0.43712091512E+02 -0.80737914945E+01  0.52729029035E+02  0.11323250485E+03  0.89807107725E+02 0.  0.
        -11    1    3    3    0    0  0.36624768759E+02  0.82354796922E+01  0.81117847113E+02  0.89382895079E+02  0.00000000000E+00 0. -1.
         11    1    3    3    0    0  0.13731141335E+02 -0.62685749843E+02  0.24045826362E+02  0.68529185324E+02  0.00000000000E+00 0.  1.
        -13    1    4    4    0    0  0.10896287015E+01 -0.41087655053E+02  0.37245109139E+02  0.55466934684E+02  0.00000000000E+00 0.  1.
         13    1    4    4    0    0 -0.44801720213E+02  0.33013863559E+02  0.15483919896E+02  0.57765570165E+02  0.00000000000E+00 0. -1.
         -2    1    1    2    0  502 -0.66438185821E+01  0.62524061645E+02  0.19247042212E+03  0.20248027558E+03  0.00000000000E+00 0.  1.
<scales pt_clust_5="13000.00000" pt_clust_6="13000.00000" pt_clust_7="13000.00000" pt_clust_8="13000.00000" pt_clust_9="62.87609"></scales>
<clustering>
<clus scale="   62.876">  2  9  1 -1</clus>
<clus scale="   89.807">  7  8 -1 -1</clus>
<clus scale="   91.522">  5  6 -1 -1</clus>
<clus scale="  104.597">  2  7  1 -1</clus>
<clus scale="   62.876">  2  5  1 -1</clus>
</clustering>
</event>
<event>
 9    1  0.1426358E-005  0.9943310E+02  0.7546771E-02  0.1281941E+00
         21   -1    0    0  501  502  0.00000000000E+00  0.00000000000E+00  0.36580258070E+02  0.36580258070E+02  0.00000000000E+00 0. -1.
          4   -1    0    0  502    0 -0.00000000000E+00 -0.00000000000E+00 -0.57790744416E+03  0.57790744416E+03  0.00000000000E+00 0. -1.
         23    2    1    2    0    0 -0.25879470111E+02 -0.73515604483E+01 -0.29655439321E+03  0.31116593600E+03  0.90310238539E+02 0.  0.
         23    2    1    2    0    0  0.60728804453E+02  0.69625419631E+00 -0.24439187115E+03  0.26784058380E+03  0.91228938304E+02 0.  0.
        -11    1    3    3    0    0 -0.49297229524E+01  0.40446561409E+02 -0.10496971719E+03  0.11260047969E+03  0.00000000000E+00 0.  1.
         11    1    3    3    0    0 -0.20949747158E+02 -0.47798121858E+02 -0.19158467602E+03  0.19856545632E+03  0.00000000000E+00 0. -1.
        -13    1    4    4    0    0 -0.23872377722E+02  0.54160710148E+01 -0.45896509683E+02  0.52016476663E+02  0.00000000000E+00 0.  1.
         13    1    4    4    0    0  0.84601182174E+02 -0.47198168185E+01 -0.19849536147E+03  0.21582410713E+03  0.00000000000E+00 0. -1.
          4    1    1    2  501    0 -0.34849334342E+02  0.66553062520E+01 -0.38092173627E+00  0.35481182431E+02  0.00000000000E+00 0. -1.
<scales pt_clust_5="13000.00000" pt_clust_6="13000.00000" pt_clust_7="13000.00000" pt_clust_8="13000.00000" pt_clust_9="35.47914"></scales>
<clustering>
<clus scale="   35.479">  1  9  2 -1</clus>
<clus scale="   90.310">  5  6 -1 -1</clus>
<clus scale="   91.229">  7  8 -1 -1</clus>
<clus scale="   98.591">  2  5  1 -1</clus>
<clus scale="   35.479">  1  5  2 -1</clus>
</clustering>
</event>
<event>
 9    1  0.1426358E-005  0.1207911E+03  0.7546771E-02  0.1241971E+00
         21   -1    0    0  501  502  0.00000000000E+00  0.00000000000E+00  0.68904476996E+03  0.68904476996E+03  0.00000000000E+00 0.  1.
         -1   -1    0    0    0  501 -0.00000000000E+00 -0.00000000000E+00 -0.11093448981E+03  0.11093448981E+03  0.00000000000E+00 0.  1.
         23    2    1    2    0    0  0.73702303207E+02  0.19286872016E+02 -0.61167256595E+02  0.13420377476E+03  0.92006559279E+02 0.  0.
         23    2    1    2    0    0 -0.10845003570E+03  0.40862872096E+01  0.44691860409E+03  0.46891089078E+03  0.91449859611E+02 0.  0.
        -11    1    4    4    0    0 -0.11698665880E+03 -0.17096594024E+02  0.35376200994E+03  0.37299561866E+03  0.00000000000E+00 0.  1.
         11    1    4    4    0    0  0.85366231038E+01  0.21182881234E+02  0.93156594150E+02  0.95915272115E+02  0.00000000000E+00 0. -1.
        -11    1    3    3    0    0  0.38375742253E+02  0.56378608521E+02 -0.36445319530E+02  0.77327268204E+02  0.00000000000E+00 0. -1.
         11    1    3    3    0    0  0.35326560954E+02 -0.37091736505E+02 -0.24721937065E+02  0.56876506556E+02  0.00000000000E+00 0.  1.
         -1    1    1    2    0  502  0.34747732494E+02 -0.23373159226E+02  0.19235893266E+03  0.19686459423E+03  0.00000000000E+00 0.  1.
<scales pt_clust_5="13000.00000" pt_clust_6="13000.00000" pt_clust_7="13000.00000" pt_clust_8="13000.00000" pt_clust_9="41.87731"></scales>
<clustering>
<clus scale="   41.877">  1  9  2 -1</clus>
<clus scale="   91.450">  5  6 -1 -1</clus>
<clus scale="   92.007">  7  8 -1 -1</clus>
<clus scale="  120.368">  1  5  2 -1</clus>
<clus scale="   41.877">  1  5  2 -1</clus>
</clustering>
</event>
<event>
 9    1  0.1426358E-005  0.9726069E+02  0.7546771E-02  0.1286810E+00
         -4   -1    0    0    0  501 -0.00000000000E+00  0.00000000000E+00  0.80453932752E+02  0.80453932752E+02  0.00000000000E+00 0.  1.
         21   -1    0    0  501  502  0.00000000000E+00 -0.00000000000E+00 -0.15820304849E+03  0.15820304849E+03  0.00000000000E+00 0. -1.
         23    2    1    2    0    0 -0.21026828183E+02  0.54156490687E+01 -0.24047280493E+02  0.98265117223E+02  0.92770171960E+02 0.  0.
         23    2    1    2    0    0  0.29017961001E+02 -0.24668541733E+02 -0.20580648443E+02  0.10125690401E+03  0.91535886447E+02 0.  0.
        -13    1    3    3    0    0 -0.54571910740E+02  0.18993647603E+02 -0.22606387601E+02  0.62047569263E+02  0.00000000000E+00 0.  1.
         13    1    3    3    0    0  0.33545082557E+02 -0.13577998534E+02 -0.14408928925E+01  0.36217547961E+02  0.00000000000E+00 0. -1.
        -13    1    4    4    0    0  0.11871233509E+01 -0.36129518158E+02  0.26886566536E+02  0.45051512786E+02  0.00000000000E+00 0.  1.
         13    1    4    4    0    0  0.27830837650E+02  0.11460976425E+02 -0.47467214979E+02  0.56205391225E+02  0.00000000000E+00 0. -1.
         -4    1    1    2    0  502 -0.79911328183E+01  0.19252892664E+02 -0.33121186804E+02  0.39134960010E+02  0.00000000000E+00 0.  1.
<scales pt_clust_5="13000.00000" pt_clust_6="13000.00000" pt_clust_7="13000.00000" pt_clust_8="13000.00000" pt_clust_9="20.84543"></scales>
<clustering>
<clus scale="   20.845">  2  9  1 -1</clus>
<clus scale="   91.536">  7  8 -1 -1</clus>
<clus scale="   92.770">  5  6 -1 -1</clus>
<clus scale="   96.084">  2  7  1 -1</clus>
<clus scale="   20.845">  2  5  1 -1</clus>
</clustering>
</event>
<event>
 9    1  0.1426358E-005  0.1824434E+03  0.7546771E-02  0.1195217E+00
         21   -1    0    0  501  502  0.00000000000E+00  0.00000000000E+00  0.13783680828E+03  0.13783680828E+03  0.00000000000E+00 0. -1.
          2   -1    0    0  502    0 -0.00000000000E+00 -0.00000000000E+00 -0.51548739421E+03  0.51548739421E+03  0.00000000000E+00 0. -1.
         23    2    1    2    0    0 -0.28895316085E+02  0.19446475643E+01  0.35085232890E+02  0.99851401681E+02  0.88885363840E+02 0.  0.
         23    2    1    2    0    0  0.16271547470E+03  0.63055298209E+02 -0.32435791211E+03  0.38043094982E+03  0.95222665827E+02 0.  0.
        -11    1    4    4    0    0  0.98714261893E+02  0.67831638627E+02 -0.27338938322E+03  0.29847511045E+03  0.00000000000E+00 0. -1.
         11    1    4    4    0    0  0.64001212807E+02 -0.47763404175E+01 -0.50968528892E+02  0.81955839365E+02  0.00000000000E+00 0.  1.
        -13    1    3    3    0    0 -0.47254458871E+02  0.11106235875E+02 -0.10674748621E+02  0.49701937755E+02  0.00000000000E+00 0.  1.
         13    1    3    3    0    0  0.18359142786E+02 -0.91615883109E+01  0.45759981511E+02  0.50149463926E+02  0.00000000000E+00 0. -1.
          2    1    1    2  501    0 -0.13382015861E+03 -0.64999945773E+02 -0.88377906704E+02  0.17304185099E+03  0.00000000000E+00 0. -1.
<scales pt_clust_5="13000.00000" pt_clust_6="13000.00000" pt_clust_7="13000.00000" pt_clust_8="13000.00000" pt_clust_9="155.62209"></scales>
<clustering>
<clus scale="   88.885">  7  8 -1 -1</clus>
<clus scale="   93.484">  2  7  1 -1</clus>
<clus scale="   95.223">  5  6 -1 -1</clus>
<clus scale="  155.622">  1  9  2 -1</clus>
<clus scale="  155.622">  1  5  2 -1</clus>
</clustering>
</event>
<event>
 9    1  0.1426358E-005  0.9244996E+02  0.7546771E-02  0.1297040E+00
         21   -1    0    0  501  502  0.00000000000E+00  0.00000000000E+00  0.11311241890E+03  0.11311241890E+03  0.00000000000E+00 0. -1.
          2   -1    0    0  502    0 -0.00000000000E+00 -0.00000000000E+00 -0.41856737955E+03  0.41856737955E+03  0.00000000000E+00 0. -1.
         23    2    1    2    0    0  0.12358008342E+02 -0.54632932007E+01 -0.28833071143E+03  0.30247283058E+03  0.90402688805E+02 0.  0.
         23    2    1    2    0    0 -0.39028877230E+02 -0.12057414948E+02 -0.99710336911E+02  0.14067012615E+03  0.90428416938E+02 0.  0.
        -11    1    3    3    0    0 -0.61573044762E+01 -0.44859936613E+02 -0.18262590923E+03  0.18815565108E+03  0.00000000000E+00 0. -1.
         11    1    3    3    0    0  0.18515312819E+02  0.39396643412E+02 -0.10570480220E+03  0.11431717951E+03  0.00000000000E+00 0.  1.
        -13    1    4    4    0    0 -0.34892875720E+02  0.28682975232E+02 -0.16788165199E+02  0.48187844265E+02  0.00000000000E+00 0.  1.
         13    1    4    4    0    0 -0.41360015105E+01 -0.40740390180E+02 -0.82922171712E+02  0.92482281881E+02  0.00000000000E+00 0. -1.
          2    1    1    2  501    0  0.26670868888E+02  0.17520708149E+02  0.82586087696E+02  0.88536841723E+02  0.00000000000E+00 0. -1.
<scales pt_clust_5="13000.00000" pt_clust_6="13000.00000" pt_clust_7="13000.00000" pt_clust_8="13000.00000" pt_clust_9="31.91098"></scales>
<clustering>
<clus scale="   31.911">  1  9  2 -1</clus>
<clus scale="   90.403">  5  6 -1 -1</clus>
<clus scale="   90.428">  7  8 -1 -1</clus>
<clus scale="   92.425">  2  5  1 -1</clus>
<clus scale="   31.911">  1  5  2 -1</clus>
</clustering>
</event>
<event>
 9    1  0.1426358E-005  0.9448750E+02  0.7546771E-02  0.1292487E+00
         -1   -1    0    0    0  501 -0.00000000000E+00  0.00000000000E+00  0.17794531593E+03  0.17794531593E+03  0.00000000000E+00 0.  1.
         21   -1    0    0  501  502  0.00000000000E+00 -0.00000000000E+00 -0.91891703397E+02  0.91891703397E+02  0.00000000000E+00 0.  1.
         23    2    1    2    0    0 -0.54756726040E+00  0.13916176407E+02  0.94353056158E+02  0.13225831439E+03  0.91628613010E+02 0.  0.
         23    2    1    2    0    0  0.50774774515E+01 -0.39693930308E+02  0.16423731371E+02  0.10157525977E+03  0.91904328329E+02 0.  0.
        -11    1    4    4    0    0  0.37328970876E+02 -0.39857763380E+02  0.34509253128E+02  0.64598621655E+02  0.00000000000E+00 0.  1.
         11    1    4    4    0    0 -0.32251493425E+02  0.16383307211E+00 -0.18085521757E+02  0.36976638120E+02  0.00000000000E+00 0. -1.
        -13    1    3    3    0    0  0.41835469916E+02 -0.35736023409E+01  0.24234176625E+02  0.48479609048E+02  0.00000000000E+00 0.  1.
         13    1    3    3    0    0 -0.42383037177E+02  0.17489778748E+02  0.70118879533E+02  0.83778705337E+02  0.00000000000E+00 0. -1.
         -1    1    1    2    0  502 -0.45299101911E+01  0.25777753900E+02 -0.24723174991E+02  0.36003445170E+02  0.00000000000E+00 0.  1.
<scales pt_clust_5="13000.00000" pt_clust_6="13000.00000" pt_clust_7="13000.00000" pt_clust_8="13000.00000" pt_clust_9="26.17275"></scales>
<clustering>
<clus scale="   26.173">  2  9  1 -1</clus>
<clus scale="   91.629">  7  8 -1 -1</clus>
<clus scale="   91.904">  5  6 -1 -1</clus>
<clus scale="   94.219">  1  7  2 -1</clus>
<clus scale="   26.173">  2  5  1 -1</clus>
</clustering>
</event>
<event>
 9    1  0.1426358E-005  0.1175347E+03  0.7546771E-02  0.1247255E+00
         21   -1    0    0  501  502  0.00000000000E+00  0.00000000000E+00  0.32529924937E+03  0.32529924937E+03  0.00000000000E+00 0. -1.
         -3   -1    0    0    0  501 -0.00000000000E+00 -0.00000000000E+00 -0.61681702042E+02  0.61681702042E+02  0.00000000000E+00 0.  1.
         23    2    1    2    0    0 -0.14145048731E+02  0.70896066488E+02  0.66099919064E+02  0.13404483116E+03  0.91501272191E+02 0.  0.
         23    2    1    2    0    0 -0.54596085836E+01 -0.76795383796E+02  0.10828290506E+03  0.16138296434E+03  0.91607507071E+02 0.  0.
        -13    1    3    3    0    0  0.13229494925E+02  0.56960929743E+02 -0.28662230370E+01  0.58547265416E+02  0.00000000000E+00 0.  1.
         13    1    3    3    0    0 -0.27374543656E+02  0.13935136745E+02  0.68966142101E+02  0.75497565741E+02  0.00000000000E+00 0. -1.
        -13    1    4    4    0    0 -0.12869448364E+02 -0.41657057213E+02  0.11663130253E+03  0.12451423150E+03  0.00000000000E+00 0. -1.
         13    1    4    4    0    0  0.74098397808E+01 -0.35138326583E+02 -0.83483974687E+01  0.36868732836E+02  0.00000000000E+00 0.  1.
         -3    1    1    2    0  502  0.19604657314E+02  0.58993173079E+01  0.89234723205E+02  0.91553155919E+02  0.00000000000E+00 0.  1.
<scales pt_clust_5="13000.00000" pt_clust_6="13000.00000" pt_clust_7="13000.00000" pt_clust_8="13000.00000" pt_clust_9="20.47302"></scales>
<clustering>
<clus scale="   20.473">  1  9  2 -1</clus>
<clus scale="   91.501">  5  6 -1 -1</clus>
<clus scale="   91.608">  7  8 -1 -1</clus>
<clus scale="  117.452">  2  5  1 -1</clus>
<clus scale="   20.473">  1  5  2 -1</clus>
</clustering>
</event>
<event>
 9    1  0.1426358E-005  0.1441212E+03  0.7546771E-02  0.1217885E+00
         21   -1    0    0  501  502  0.00000000000E+00  0.00000000000E+00  0.10752233507E+03  0.10752233507E+03  0.00000000000E+00 0.  1.
          2   -1    0    0  502    0 -0.00000000000E+00 -0.00000000000E+00 -0.35360424466E+03  0.35360424466E+03  0.00000000000E+00 0. -1.
         23    2    1    2    0    0  0.51500804148E+02 -0.52403143480E+02 -0.44665707713E+02  0.12480528750E+03  0.90459449849E+02 0.  0.
         23    2    1    2    0    0  0.77231574271E+02  0.24142254031E+02 -0.15295787069E+03  0.19589724520E+03  0.91826227065E+02 0.  0.
        -11    1    3    3    0    0  0.45113796225E+02  0.48212973352E+01  0.88162761460E+01  0.46219327590E+02  0.00000000000E+00 0.  1.
         11    1    3    3    0    0  0.63870079228E+01 -0.57224440815E+02 -0.53481983859E+02  0.78585959905E+02  0.00000000000E+00 0. -1.
        -13    1    4    4    0    0  0.88691130358E+02 -0.54577015320E+01 -0.96880098218E+02  0.13145971452E+03  0.00000000000E+00 0.  1.
         13    1    4    4    0    0 -0.11459556087E+02  0.29599955563E+02 -0.56077772473E+02  0.64437530684E+02  0.00000000000E+00 0. -1.
          2    1    1    2  501    0 -0.12873237842E+03  0.28260889449E+02 -0.48458331183E+02  0.14042404704E+03  0.00000000000E+00 0. -1.
<scales pt_clust_5="13000.00000" pt_clust_6="13000.00000" pt_clust_7="13000.00000" pt_clust_8="13000.00000" pt_clust_9="111.08047"></scales>
<clustering>
<clus scale="   90.459">  5  6 -1 -1</clus>
<clus scale="   91.826">  7  8 -1 -1</clus>
<clus scale="  116.539">  2  5  1 -1</clus>
<clus scale="  111.080">  1  9  2 -1</clus>
<clus scale="  111.080">  1  5  2 -1</clus>
</clustering>
</event>
<event>
 9    1  0.1426358E-005  0.1507589E+03  0.7546771E-02  0.1200294E+00
         21   -1    0    0  501  502  0.00000000000E+00  0.00000000000E+00  0.51168973219E+02  0.51168973219E+02  0.00000000000E+00 0. -1.
         -1   -1    0    0    0  501 -0.00000000000E+00 -0.00000000000E+00 -0.60170197077E+03  0.60170197077E+03  0.00000000000E+00 0.  1.
         23    2    1    2    0    0 -0.77416161506E+02 -0.10694937184E+03 -0.31242489710E+03  0.35077933982E+03  0.89472893764E+02 0.  0.
         23    2    1    2    0    0  0.71756266556E+02  0.76244159386E+02 -0.23064819090E+03  0.26999028437E+03  0.93456043446E+02 0.  0.
        -13    1    3    3    0    0 -0.96908480817E+02 -0.81398545119E+02 -0.26231962301E+03  0.29125343160E+03  0.00000000000E+00 0. -1.
         13    1    3    3    0    0  0.19492319311E+02 -0.25550826717E+02 -0.50105274090E+02  0.59525908222E+02  0.00000000000E+00 0.  1.
        -13    1    4    4    0    0  0.52926615562E+02 -0.39431016360E+01 -0.57506501226E+02  0.78254535770E+02  0.00000000000E+00 0. -1.
         13    1    4    4    0    0  0.18829650994E+02  0.80187261022E+02 -0.17314168967E+03  0.19173574859E+03  0.00000000000E+00 0.  1.
         -1    1    1    2    0  502  0.56598949504E+01  0.30705212450E+02 -0.74599095507E+01  0.32101319801E+02  0.00000000000E+00 0.  1.
<scales pt_clust_5="13000.00000" pt_clust_6="13000.00000" pt_clust_7="13000.00000" pt_clust_8="13000.00000" pt_clust_9="31.22250"></scales>
<clustering>
<clus scale="   31.222">  1  9  2 -1</clus>
<clus scale="   89.473">  5  6 -1 -1</clus>
<clus scale="   93.456">  7  8 -1 -1</clus>
<clus scale="  148.323">  2  5  1 -1</clus>
<clus scale="   31.222">  1  5  2 -1</clus>
</clustering>
</event>
<event>
 9    1  0.1426358E-005  0.1431152E+03  0.7546771E-02  0.1209293E+00
         21   -1    0    0  501  502  0.00000000000E+00  0.00000000000E+00  0.17430916718E+03  0.17430916718E+03  0.00000000000E+00 0. -1.
         -3   -1    0    0    0  501 -0.00000000000E+00 -0.00000000000E+00 -0.44862970877E+03  0.44862970877E+03  0.00000000000E+00 0.  1.
         23    2    1    2    0    0  0.10803295340E+03  0.22112638462E+02 -0.36612474485E+03  0.39409336300E+03  0.95405252321E+02 0.  0.
         23    2    1    2    0    0 -0.88866340522E+02 -0.16174860430E+02 -0.38389612020E+01  0.13112022878E+03  0.94968016636E+02 0.  0.
        -13    1    3    3    0    0  0.76707669612E+02 -0.22992123706E+02 -0.13893618438E+03  0.16036198945E+03  0.00000000000E+00 0. -1.
         13    1    3    3    0    0  0.31325283791E+02  0.45104762168E+02 -0.22718856048E+03  0.23373137356E+03  0.00000000000E+00 0.  1.
        -13    1    4    4    0    0 -0.49809351216E+02 -0.36574434267E+02  0.36170302465E+02  0.71602733823E+02  0.00000000000E+00 0. -1.
         13    1    4    4    0    0 -0.39056989306E+02  0.20399573837E+02 -0.40009263667E+02  0.59517494954E+02  0.00000000000E+00 0.  1.
         -3    1    1    2    0  502 -0.19166612881E+02 -0.59377780321E+01  0.95643164462E+02  0.97725284168E+02  0.00000000000E+00 0.  1.
<scales pt_clust_5="13000.00000" pt_clust_6="13000.00000" pt_clust_7="13000.00000" pt_clust_8="13000.00000" pt_clust_9="20.06530"></scales>
<clustering>
<clus scale="   20.065">  1  9  2 -1</clus>
<clus scale="   94.968">  7  8 -1 -1</clus>
<clus scale="   95.405">  5  6 -1 -1</clus>
<clus scale="  142.824">  1  7  2 -1</clus>
<clus scale="   20.065">  1  5  2 -1</clus>
</clustering>
</event>
<event>
 9    1  0.1426358E-005  0.1484785E+03  0.7546771E-02  0.1203139E+00
         21   -1    0    0  501  502  0.00000000000E+00  0.00000000000E+00  0.74647393478E+02  0.74647393478E+02  0.00000000000E+00 0.  1.
         -1   -1    0    0    0  501 -0.00000000000E+00 -0.00000000000E+00 -0.64280881503E+03  0.64280881503E+03  0.00000000000E+00 0.  1.
         23    2    1    2    0    0 -0.11428808019E+03  0.28700872152E+02 -0.51771047245E+03  0.53866641667E+03  0.90839803137E+02 0.  0.
         23    2    1    2    0    0  0.10564796706E+03 -0.51186399484E+02 -0.34701884967E+02  0.15000987669E+03  0.86701798415E+02 0.  0.
        -11    1    4    4    0    0  0.60913002002E+02 -0.62761340213E+02  0.70347206155E+01  0.87743187384E+02  0.00000000000E+00 0.  1.
         11    1    4    4    0    0  0.44734965062E+02  0.11574940729E+02 -0.41736605582E+02  0.62266689309E+02  0.00000000000E+00 0. -1.
        -13    1    3    3    0    0 -0.12391145821E+03  0.90740560341E+01 -0.39681604997E+03  0.41581169474E+03  0.00000000000E+00 0.  1.
         13    1    3    3    0    0  0.96233780173E+01  0.19626816118E+02 -0.12089442248E+03  0.12285472193E+03  0.00000000000E+00 0. -1.
         -1    1    1    2    0  502  0.86401131256E+01  0.22485527332E+02 -0.15749064133E+02  0.28779915136E+02  0.00000000000E+00 0.  1.
<scales pt_clust_5="13000.00000" pt_clust_6="13000.00000" pt_clust_7="13000.00000" pt_clust_8="13000.00000" pt_clust_9="24.08839"></scales>
<clustering>
<clus scale="   24.088">  1  9  2 -1</clus>
<clus scale="   86.702">  5  6 -1 -1</clus>
<clus scale="   90.840">  7  8 -1 -1</clus>
<clus scale="  145.984">  1  5  2 -1</clus>
<clus scale="   24.088">  1  5  2 -1</clus>
</clustering>
</event>
<event>
 9    1  0.1426358E-005  0.1443890E+03  0.7546771E-02  0.1207671E+00
         21   -1    0    0  501  502  0.00000000000E+00  0.00000000000E+00  0.69366898206E+02  0.69366898206E+02  0.00000000000E+00 0. -1.
          2   -1    0    0  502    0 -0.00000000000E+00 -0.00000000000E+00 -0.78905123275E+03  0.78905123275E+03  0.00000000000E+00 0. -1.
         23    2    1    2    0    0  0.10415391416E+03 -0.10187120839E+03 -0.45527584018E+03  0.48607562195E+03  0.88134208309E+02 0.  0.
         23    2    1    2    0    0 -0.93262927667E+02  0.98277932769E+01 -0.24601504604E+03  0.27784953152E+03  0.88782881751E+02 0.  0.
        -11    1    4    4    0    0  0.60657710631E+00  0.29191116219E+02 -0.91269004510E+02  0.95825468359E+02  0.00000000000E+00 0.  1.
         11    1    4    4    0    0 -0.93869504773E+02 -0.19363322942E+02 -0.15474604153E+03  0.18202406316E+03  0.00000000000E+00 0. -1.
        -13    1    3    3    0    0  0.27156509430E+02 -0.81616923242E+02 -0.29227903181E+03  0.30467331783E+03  0.00000000000E+00 0.  1.
         13    1    3    3    0    0  0.76997404731E+02 -0.20254285147E+02 -0.16299680837E+03  0.18140230412E+03  0.00000000000E+00 0. -1.
          2    1    1    2  501    0 -0.10890986494E+02  0.92043415112E+02 -0.18393448332E+02  0.94492977484E+02  0.00000000000E+00 0. -1.
<scales pt_clust_5="13000.00000" pt_clust_6="13000.00000" pt_clust_7="13000.00000" pt_clust_8="13000.00000" pt_clust_9="92.68551"></scales>
<clustering>
<clus scale="   88.134">  7  8 -1 -1</clus>
<clus scale="   88.783">  5  6 -1 -1</clus>
<clus scale="   92.686">  1  9  2 -1</clus>
<clus scale="  143.991">  2  7  1 -1</clus>
<clus scale="   92.686">  1  5  2 -1</clus>
</clustering>
</event>
<event>
 9    1  0.1426358E-005  0.1086719E+03  0.7546771E-02  0.1265442E+00
         -3   -1    0    0    0  501 -0.00000000000E+00  0.00000000000E+00  0.13163967503E+03  0.13163967503E+03  0.00000000000E+00 0.  1.
         21   -1    0    0  501  502  0.00000000000E+00 -0.00000000000E+00 -0.13664635211E+03  0.13664635211E+03  0.00000000000E+00 0. -1.
         23    2    1    2    0    0  0.14172692520E+02  0.56773896883E+02  0.41931155245E+02  0.11628494609E+03  0.91322649584E+02 0.  0.
         23    2    1    2    0    0 -0.30383219580E+02 -0.24744091141E+02 -0.18410874275E+02  0.10614830601E+03  0.96917967881E+02 0.  0.
        -11    1    4    4    0    0 -0.82681788073E+01  0.35842790685E+02  0.58363623066E+01  0.37244214985E+02  0.00000000000E+00 0.  1.
         11    1    4    4    0    0 -0.22115040772E+02 -0.60586881826E+02 -0.24247236582E+02  0.68904091022E+02  0.00000000000E+00 0. -1.
        -13    1    3    3    0    0 -0.28327585398E+02  0.24121204052E+02 -0.13121739465E+02  0.39452054775E+02  0.00000000000E+00 0. -1.
         13    1    3    3    0    0  0.42500277918E+02  0.32652692832E+02  0.55052894711E+02  0.76832891318E+02  0.00000000000E+00 0.  1.
         -3    1    1    2    0  502  0.16210527060E+02 -0.32029805742E+02 -0.28526958049E+02  0.45852775041E+02  0.00000000000E+00 0.  1.
<scales pt_clust_5="13000.00000" pt_clust_6="13000.00000" pt_clust_7="13000.00000" pt_clust_8="13000.00000" pt_clust_9="35.89832"></scales>
<clustering>
<clus scale="   35.898">  2  9  1 -1</clus>
<clus scale="   91.323">  7  8 -1 -1</clus>
<clus scale="   96.918">  5  6 -1 -1</clus>
<clus scale="  103.713">  1  7  2 -1</clus>
<clus scale="   35.898">  2  5  1 -1</clus>
</clustering>
</event>
<event>
 9    1  0.1426358E-005  0.1615135E+03  0.7546771E-02  0.1208370E+00
         21   -1    0    0  501  502  0.00000000000E+00  0.00000000000E+00  0.23728753235E+03  0.23728753235E+03  0.00000000000E+00 0. -1.
         -2   -1    0    0    0  501 -0.00000000000E+00 -0.00000000000E+00 -0.26020194877E+03  0.26020194877E+03  0.00000000000E+00 0.  1.
         23    2    1    2    0    0  0.35814726289E+02 -0.25317564603E+02 -0.57363007477E+02  0.11645380638E+03  0.91363563290E+02 0.  0.
         23    2    1    2    0    0 -0.11401383937E+03  0.12514869736E+03 -0.81996065661E+02  0.20887088614E+03  0.90787335429E+02 0.  0.
        -13    1    4    4    0    0 -0.84383109794E+02  0.27023449732E+02 -0.48647567334E+02  0.10108096686E+03  0.00000000000E+00 0. -1.
         13    1    4    4    0    0 -0.29630729573E+02  0.98125247631E+02 -0.33348498327E+02  0.10778991928E+03  0.00000000000E+00 0.  1.
        -13    1    3    3    0    0 -0.29149678965E+02 -0.13425770263E+02 -0.33073958504E+02  0.46085158371E+02  0.00000000000E+00 0. -1.
         13    1    3    3    0    0  0.64964405254E+02 -0.11891794340E+02 -0.24289048973E+02  0.70368648009E+02  0.00000000000E+00 0.  1.
         -2    1    1    2    0  502  0.78199113078E+02 -0.99831132760E+02  0.11644465672E+03  0.17216478860E+03  0.00000000000E+00 0.  1.
<scales pt_clust_5="13000.00000" pt_clust_6="13000.00000" pt_clust_7="13000.00000" pt_clust_8="13000.00000" pt_clust_9="133.58246"></scales>
<clustering>
<clus scale="   90.787">  5  6 -1 -1</clus>
<clus scale="   91.364">  7  8 -1 -1</clus>
<clus scale="  101.346">  2  7  1 -1</clus>
<clus scale="  133.582">  1  9  2 -1</clus>
<clus scale="  133.582">  1  5  2 -1</clus>
</clustering>
</event>
<event>
 9    1  0.1426358E-005  0.1042941E+03  0.7546771E-02  0.1272486E+00
         21   -1    0    0  501  502  0.00000000000E+00  0.00000000000E+00  0.23466280081E+03  0.23466280081E+03  0.00000000000E+00 0. -1.
         -3   -1    0    0    0  501 -0.00000000000E+00 -0.00000000000E+00 -0.96412904772E+02  0.96412904772E+02  0.00000000000E+00 0.  1.
         23    2    1    2    0    0 -0.13869013831E+02  0.43258923345E+02 -0.34924439195E+02  0.10870443718E+03  0.92375614837E+02 0.  0.
         23    2    1    2    0    0  0.40878820026E+02 -0.50526702472E+02  0.14450069886E+03  0.18231471254E+03  0.90189671520E+02 0.  0.
        -11    1    3    3    0    0 -0.42030664701E+02  0.10107838953E+01  0.72945139911E+01  0.42670931484E+02  0.00000000000E+00 0.  1.
         11    1    3    3    0    0  0.28161650871E+02  0.42248139450E+02 -0.42218953187E+02  0.66033505699E+02  0.00000000000E+00 0. -1.
        -13    1    4    4    0    0  0.15585731838E+02  0.25229414212E+02  0.26159508400E+02  0.39544383396E+02  0.00000000000E+00 0.  1.
         13    1    4    4    0    0  0.25293088188E+02 -0.75756116684E+02  0.11834119046E+03  0.14277032915E+03  0.00000000000E+00 0. -1.
         -3    1    1    2    0  502 -0.27009806195E+02  0.72677791273E+01  0.28673636372E+02  0.40056555855E+02  0.00000000000E+00 0.  1.
<scales pt_clust_5="13000.00000" pt_clust_6="13000.00000" pt_clust_7="13000.00000" pt_clust_8="13000.00000" pt_clust_9="27.97052"></scales>
<clustering>
<clus scale="   27.971">  1  9  2 -1</clus>
<clus scale="   90.190">  7  8 -1 -1</clus>
<clus scale="   92.376">  5  6 -1 -1</clus>
<clus scale="  102.363">  1  7  2 -1</clus>
<clus scale="   27.971">  1  5  2 -1</clus>
</clustering>
</event>
<event>
 9    1  0.1426358E-005  0.9133968E+02  0.7546771E-02  0.1303673E+00
         21   -1    0    0  501  502  0.00000000000E+00  0.00000000000E+00  0.20522888003E+02  0.20522888003E+02  0.00000000000E+00 0. -1.
          1   -1    0    0  502    0 -0.00000000000E+00 -0.00000000000E+00 -0.59117424351E+03  0.59117424351E+03  0.00000000000E+00 0. -1.
         23    2    1    2    0    0  0.10531364680E+02  0.19995649214E+02 -0.27206103575E+03  0.28761515761E+03  0.90523676899E+02 0.  0.
         23    2    1    2    0    0  0.20014161892E+02 -0.25601596462E+01 -0.24694519643E+03  0.26159802194E+03  0.83931364524E+02 0.  0.
        -11    1    4    4    0    0 -0.28542299611E+02 -0.16876931259E+02 -0.68377325384E+02  0.75993106940E+02  0.00000000000E+00 0.  1.
         11    1    4    4    0    0  0.48556461503E+02  0.14316771613E+02 -0.17856787105E+03  0.18560491500E+03  0.00000000000E+00 0. -1.
        -11    1    3    3    0    0 -0.49373118059E+01  0.52610243800E+02 -0.11654226846E+03  0.12796216291E+03  0.00000000000E+00 0. -1.
         11    1    3    3    0    0  0.15468676486E+02 -0.32614594586E+02 -0.15551876730E+03  0.15965299469E+03  0.00000000000E+00 0.  1.
          1    1    1    2  501    0 -0.30545526572E+02 -0.17435489568E+02 -0.51645123317E+02  0.62483951959E+02  0.00000000000E+00 0. -1.
<scales pt_clust_5="13000.00000" pt_clust_6="13000.00000" pt_clust_7="13000.00000" pt_clust_8="13000.00000" pt_clust_9="35.17137"></scales>
<clustering>
<clus scale="   35.171">  1  9  2 -1</clus>
<clus scale="   83.931">  5  6 -1 -1</clus>
<clus scale="   84.811">  1  5  2 -1</clus>
<clus scale="   90.524">  7  8 -1 -1</clus>
<clus scale="   35.171">  1  5  2 -1</clus>
</clustering>
</event>
<event>
 9    1  0.1426358E-005  0.1179945E+03  0.7546771E-02  0.1246833E+00
         21   -1    0    0  501  502  0.00000000000E+00  0.00000000000E+00  0.31378310163E+03  0.31378310163E+03  0.00000000000E+00 0. -1.
          1   -1    0    0  502    0 -0.00000000000E+00 -0.00000000000E+00 -0.65477977032E+02  0.65477977032E+02  0.00000000000E+00 0. -1.
         23    2    1    2    0    0  0.27916229966E+02  0.64011491757E+02  0.51863255868E+02  0.12681576934E+03  0.92280307069E+02 0.  0.
         23    2    1    2    0    0 -0.55323371625E+02 -0.63855946705E+02  0.18476094647E+03  0.22265236463E+03  0.91100004147E+02 0.  0.
        -11    1    3    3    0    0  0.51455729503E+02  0.54488082463E+02  0.64109636299E+02  0.98623976271E+02  0.00000000000E+00 0. -1.
         11    1    3    3    0    0 -0.23539499537E+02  0.95234092939E+01 -0.12246380431E+02  0.28191793073E+02  0.00000000000E+00 0.  1.
        -11    1    4    4    0    0  0.65909229468E+01 -0.54378451210E+02  0.50514611619E+02  0.74512966712E+02  0.00000000000E+00 0.  1.
         11    1    4    4    0    0 -0.61914294572E+02 -0.94774954953E+01  0.13424633486E+03  0.14813939792E+03  0.00000000000E+00 0. -1.
          1    1    1    2  501    0  0.27407141660E+02 -0.15554505115E+00  0.11680922251E+02  0.29792944682E+02  0.00000000000E+00 0. -1.
<scales pt_clust_5="13000.00000" pt_clust_6="13000.00000" pt_clust_7="13000.00000" pt_clust_8="13000.00000" pt_clust_9="27.40760"></scales>
<clustering>
<clus scale="   27.408">  1  9  2 -1</clus>
<clus scale="   91.100">  7  8 -1 -1</clus>
<clus scale="   92.280">  5  6 -1 -1</clus>
<clus scale="  117.074">  1  7  2 -1</clus>
<clus scale="   27.408">  1  5  2 -1</clus>
</clustering>
</event>
<event>
 9    1  0.1426358E-005  0.1233127E+03  0.7546771E-02  0.1246133E+00
          1   -1    0    0  502    0 -0.00000000000E+00  0.00000000000E+00  0.39208531664E+03  0.39208531664E+03  0.00000000000E+00 0. -1.
         21   -1    0    0  501  502  0.00000000000E+00 -0.00000000000E+00 -0.18323790254E+03  0.18323790254E+03  0.00000000000E+00 0.  1.
         23    2    1    2    0    0  0.34252594350E+02  0.35208350543E+02  0.35431683282E+03  0.37542774929E+03  0.11398556378E+03 0.  0.
         23    2    1    2    0    0 -0.16335083879E+02 -0.81443425269E+01 -0.13680533953E+03  0.16630136357E+03  0.92775413327E+02 0.  0.
        -11    1    4    4    0    0  0.32468193307E+01 -0.32996310078E+02 -0.12970380530E+03  0.13387447637E+03  0.00000000000E+00 0.  1.
         11    1    4    4    0    0 -0.19581903210E+02  0.24851967551E+02 -0.71015342322E+01  0.32426887191E+02  0.00000000000E+00 0. -1.
        -13    1    3    3    0    0 -0.30305611488E+01 -0.39562695698E+02  0.93999492633E+02  0.10203085713E+03  0.00000000000E+00 0.  1.
         13    1    3    3    0    0  0.37283155499E+02  0.74771046240E+02  0.26031734019E+03  0.27339689216E+03  0.00000000000E+00 0. -1.
          1    1    1    2  501    0 -0.17917510471E+02 -0.27064008016E+02 -0.86640791821E+01  0.33594106320E+02  0.00000000000E+00 0. -1.
<scales pt_clust_5="13000.00000" pt_clust_6="13000.00000" pt_clust_7="13000.00000" pt_clust_8="13000.00000" pt_clust_9="32.45763"></scales>
<clustering>
<clus scale="   32.458">  2  9  1 -1</clus>
<clus scale="   92.775">  5  6 -1 -1</clus>
<clus scale="  104.022">  2  5  1 -1</clus>
<clus scale="  113.986">  7  8 -1 -1</clus>
<clus scale="   32.458">  2  5  1 -1</clus>
</clustering>
</event>
<event>
 9    1  0.1426358E-005  0.1459002E+03  0.7546771E-02  0.1206310E+00
          4   -1    0    0  502    0 -0.00000000000E+00  0.00000000000E+00  0.68751218561E+02  0.68751218561E+02  0.00000000000E+00 0. -1.
         21   -1    0    0  501  502  0.00000000000E+00 -0.00000000000E+00 -0.46299445837E+03  0.46299445837E+03  0.00000000000E+00 0.  1.
         23    2    1    2    0    0  0.85153055825E+02  0.40378970228E+02 -0.15478668289E+03  0.20284760577E+03  0.91141262947E+02 0.  0.
         23    2    1    2    0    0 -0.11191747260E+03 -0.77306302894E+02 -0.22807428314E+03  0.28189256021E+03  0.94571410770E+02 0.  0.
        -13    1    3    3    0    0  0.19556694339E+02  0.77966609869E+01 -0.11987537171E+03  0.12171013499E+03  0.00000000000E+00 0.  1.
         13    1    3    3    0    0  0.65596361487E+02  0.32582309242E+02 -0.34911311179E+02  0.81137470777E+02  0.00000000000E+00 0. -1.
        -13    1    4    4    0    0 -0.81589918649E+02 -0.98456162414E+02 -0.18803033403E+03  0.22738939566E+03  0.00000000000E+00 0.  1.
         13    1    4    4    0    0 -0.30327553953E+02  0.21149859520E+02 -0.40043949103E+02  0.54503164552E+02  0.00000000000E+00 0. -1.
          4    1    1    2  501    0  0.26764416776E+02  0.36927332665E+02 -0.11382273779E+02  0.47005510948E+02  0.00000000000E+00 0. -1.
<scales pt_clust_5="13000.00000" pt_clust_6="13000.00000" pt_clust_7="13000.00000" pt_clust_8="13000.00000" pt_clust_9="45.60662"></scales>
<clustering>
<clus scale="   45.607">  2  9  1 -1</clus>
<clus scale="   91.141">  5  6 -1 -1</clus>
<clus scale="   94.571">  7  8 -1 -1</clus>
<clus scale="  143.701">  1  5  2 -1</clus>
<clus scale="   45.607">  2  5  1 -1</clus>
</clustering>
</event>
<event>
 9    1  0.1426358E-005  0.1012866E+03  0.7546771E-02  0.1278027E+00
         21   -1    0    0  501  502  0.00000000000E+00  0.00000000000E+00  0.43242048217E+02  0.43242048217E+02  0.00000000000E+00 0. -1.
          3   -1    0    0  502    0 -0.00000000000E+00 -0.00000000000E+00 -0.64694971099E+03  0.64694971099E+03  0.00000000000E+00 0. -1.
         23    2    1    2    0    0  0.25557675900E+02 -0.12741345890E+02 -0.33708861441E+03  0.35012964464E+03  0.90257949237E+02 0.  0.
         23    2    1    2    0    0 -0.55560364758E+02  0.51239679785E+02 -0.26609650054E+03  0.29125068038E+03  0.91143580710E+02 0.  0.
        -11    1    4    4    0    0 -0.12200065435E+02  0.48407643424E+02 -0.49368585985E+02  0.70209677542E+02  0.00000000000E+00 0.  1.
         11    1    4    4    0    0 -0.43360299322E+02  0.28320363618E+01 -0.21672791455E+03  0.22104100283E+03  0.00000000000E+00 0. -1.
        -13    1    3    3    0    0 -0.81012239781E+01 -0.46078742146E+02 -0.18562173072E+03  0.19142702845E+03  0.00000000000E+00 0.  1.
         13    1    3    3    0    0  0.33658899878E+02  0.33337396256E+02 -0.15146688369E+03  0.15870261619E+03  0.00000000000E+00 0. -1.
          3    1    1    2  501    0  0.30002688858E+02 -0.38498333896E+02 -0.52254782671E+00  0.48811434190E+02  0.00000000000E+00 0. -1.
<scales pt_clust_5="13000.00000" pt_clust_6="13000.00000" pt_clust_7="13000.00000" pt_clust_8="13000.00000" pt_clust_9="48.80864"></scales>
<clustering>
<clus scale="   48.809">  1  9  2 -1</clus>
<clus scale="   90.258">  7  8 -1 -1</clus>
<clus scale="   91.144">  5  6 -1 -1</clus>
<clus scale="  100.490">  2  7  1 -1</clus>
<clus scale="   48.809">  1  5  2 -1</clus>
</clustering>
</event>
<event>
 9    1  0.1426358E-005  0.1450745E+03  0.7546771E-02  0.1225271E+00
         21   -1    0    0  501  502  0.00000000000E+00  0.00000000000E+00  0.60335941294E+03  0.60335941294E+03  0.00000000000E+00 0.  1.
          1   -1    0    0  502    0 -0.00000000000E+00 -0.00000000000E+00 -0.74321258821E+02  0.74321258821E+02  0.00000000000E+00 0. -1.
         23    2    1    2    0    0 -0.26638830292E+02 -0.22821837211E+02  0.73680119589E+02  0.12251502520E+03  0.91382207484E+02 0.  0.
         23    2    1    2    0    0 -0.35318296772E+02  0.11782098153E+03  0.99411512136E+02  0.18158640487E+03  0.89228963414E+02 0.  0.
        -11    1    4    4    0    0 -0.53245436458E+02  0.95902524897E+02  0.41789510014E+02  0.11738285195E+03  0.00000000000E+00 0.  1.
         11    1    4    4    0    0  0.17927139686E+02  0.21918456637E+02  0.57622002122E+02  0.64203552918E+02  0.00000000000E+00 0. -1.
        -13    1    3    3    0    0  0.32187787541E+02 -0.12675431567E+02  0.11841390015E+02  0.36564173034E+02  0.00000000000E+00 0. -1.
         13    1    3    3    0    0 -0.58826617833E+02 -0.10146405644E+02  0.61838729574E+02  0.85950852168E+02  0.00000000000E+00 0.  1.
          1    1    1    2  501    0  0.61957127064E+02 -0.94999144323E+02  0.35594652240E+03  0.37357924169E+03  0.00000000000E+00 0. -1.
<scales pt_clust_5="13000.00000" pt_clust_6="13000.00000" pt_clust_7="13000.00000" pt_clust_8="13000.00000" pt_clust_9="114.38885"></scales>
<clustering>
<clus scale="   89.229">  5  6 -1 -1</clus>
<clus scale="   91.382">  7  8 -1 -1</clus>
<clus scale="   97.883">  2  7  1 -1</clus>
<clus scale="  114.389">  1  9  2 -1</clus>
<clus scale="  114.389">  1  5  2 -1</clus>
</clustering>
</event>
<event>
 9    1  0.1426358E-005  0.2865959E+03  0.7546771E-02  0.1118006E+00
          2   -1    0    0  502    0 -0.00000000000E+00  0.00000000000E+00  0.13310649812E+04  0.13310649812E+04  0.00000000000E+00 0.  1.
         21   -1    0    0  501  502  0.00000000000E+00 -0.00000000000E+00 -0.36021450185E+03  0.36021450185E+03  0.00000000000E+00 0.  1.
         23    2    1    2    0    0 -0.34976551847E+02 -0.11081955463E+03 -0.88048936691E+02  0.17169151474E+03  0.90669885375E+02 0.  0.
         23    2    1    2    0    0  0.97971085255E+02  0.36697160391E+03  0.11699024342E+04  0.12333994752E+04  0.91302071572E+02 0.  0.
        -11    1    3    3    0    0  0.27098474268E+01 -0.10048857704E+03 -0.36370797998E+02  0.10690244308E+03  0.00000000000E+00 0.  1.
         11    1    3    3    0    0 -0.37686399273E+02 -0.10330977590E+02 -0.51678138693E+02  0.64789071663E+02  0.00000000000E+00 0. -1.
        -13    1    4    4    0    0  0.43407146434E+01  0.16491327886E+03  0.42402782306E+03  0.45498881973E+03  0.00000000000E+00 0. -1.
         13    1    4    4    0    0  0.93630370611E+02  0.20205832506E+03  0.74587461113E+03  0.77841065547E+03  0.00000000000E+00 0.  1.
          2    1    1    2  501    0 -0.62994533408E+02 -0.25615204928E+03 -0.11100301810E+03  0.28618849316E+03  0.00000000000E+00 0.  1.
<scales pt_clust_5="13000.00000" pt_clust_6="13000.00000" pt_clust_7="13000.00000" pt_clust_8="13000.00000" pt_clust_9="271.66369"></scales>
<clustering>
<clus scale="   90.670">  5  6 -1 -1</clus>
<clus scale="   91.302">  7  8 -1 -1</clus>
<clus scale="  147.395">  1  5  2 -1</clus>
<clus scale="  271.664">  2  9  1 -1</clus>
<clus scale="  271.664">  2  5  1 -1</clus>
</clustering>
</event>
<event>
 9    1  0.1426358E-005  0.9556543E+02  0.7546771E-02  0.1290113E+00
         21   -1    0    0  501  502  0.00000000000E+00  0.00000000000E+00  0.36364680094E+03  0.36364680094E+03  0.00000000000E+00 0.  1.
          4   -1    0    0  502    0 -0.00000000000E+00 -0.00000000000E+00 -0.45650847685E+02  0.45650847685E+02  0.00000000000E+00 0. -1.
         23    2    1    2    0    0  0.18139659101E+02 -0.35359444024E+02  0.54467739623E+02  0.11304151296E+03  0.90732086267E+02 0.  0.
         23    2    1    2    0    0 -0.98223197436E+00  0.25050106742E+01  0.22648136318E+03  0.24385136275E+03  0.90346219554E+02 0.  0.
        -11    1    3    3    0    0  0.35558766582E+02  0.10556788896E+02 -0.32778571852E+01  0.37237293408E+02  0.00000000000E+00 0. -1.
         11    1    3    3    0    0 -0.17419107481E+02 -0.45916232920E+02  0.57745596809E+02  0.75804219551E+02  0.00000000000E+00 0.  1.
        -13    1    4    4    0    0  0.43239601474E+02  0.11207311528E+02  0.98168724926E+02  0.10785344464E+03  0.00000000000E+00 0. -1.
         13    1    4    4    0    0 -0.44221833448E+02 -0.87023008534E+01  0.12831263825E+03  0.13599791811E+03  0.00000000000E+00 0.  1.
          4    1    1    2  501    0 -0.17157427127E+02  0.32854433350E+02  0.37046850455E+02  0.52404772922E+02  0.00000000000E+00 0. -1.
<scales pt_clust_5="13000.00000" pt_clust_6="13000.00000" pt_clust_7="13000.00000" pt_clust_8="13000.00000" pt_clust_9="37.06471"></scales>
<clustering>
<clus scale="   37.065">  1  9  2 -1</clus>
<clus scale="   90.346">  7  8 -1 -1</clus>
<clus scale="   90.732">  5  6 -1 -1</clus>
<clus scale="   95.199">  1  7  2 -1</clus>
<clus scale="   37.065">  1  5  2 -1</clus>
</clustering>
</event>
<event>
 9    1  0.1426358E-005  0.1747476E+03  0.7546771E-02  0.1173072E+00
         -1   -1    0    0    0  501 -0.00000000000E+00  0.00000000000E+00  0.40562271518E+03  0.40562271518E+03  0.00000000000E+00 0.  1.
         21   -1    0    0  501  502  0.00000000000E+00 -0.00000000000E+00 -0.19672271819E+03  0.19672271819E+03  0.00000000000E+00 0. -1.
         23    2    1    2    0    0 -0.13797617687E+03  0.36649580964E+02  0.23887502244E+03  0.29285060613E+03  0.91211753588E+02 0.  0.
         23    2    1    2    0    0  0.16588243812E+03 -0.57913812118E+01  0.69207974015E+02  0.20193900317E+03  0.91864541376E+02 0.  0.
        -11    1    3    3    0    0 -0.68580090769E+02  0.11593892413E+02  0.19494649905E+03  0.20698257096E+03  0.00000000000E+00 0.  1.
         11    1    3    3    0    0 -0.69396086104E+02  0.25055688551E+02  0.43928523393E+02  0.85868035163E+02  0.00000000000E+00 0. -1.
        -13    1    4    4    0    0  0.23154766046E+02  0.34345325803E+02  0.16444571949E+02  0.44566450854E+02  0.00000000000E+00 0. -1.
         13    1    4    4    0    0  0.14272767208E+03 -0.40136707015E+02  0.52763402066E+02  0.15737255232E+03  0.00000000000E+00 0.  1.
         -1    1    1    2    0  502 -0.27906261249E+02 -0.30858199752E+02 -0.99182999467E+02  0.10755582407E+03  0.00000000000E+00 0.  1.
<scales pt_clust_5="13000.00000" pt_clust_6="13000.00000" pt_clust_7="13000.00000" pt_clust_8="13000.00000" pt_clust_9="41.60514"></scales>
<clustering>
<clus scale="   41.605">  2  9  1 -1</clus>
<clus scale="   91.212">  5  6 -1 -1</clus>
<clus scale="   91.865">  7  8 -1 -1</clus>
<clus scale="  174.405">  1  5  2 -1</clus>
<clus scale="   41.605">  2  5  1 -1</clus>
</clustering>
</event>
<event>
 9    1  0.1426358E-005  0.2508485E+03  0.7546771E-02  0.1125394E+00
         21   -1    0    0  501  502  0.00000000000E+00  0.00000000000E+00  0.76245002139E+03  0.76245002139E+03  0.00000000000E+00 0. -1.
          1   -1    0    0  502    0 -0.00000000000E+00 -0.00000000000E+00 -0.27645457754E+03  0.27645457754E+03  0.00000000000E+00 0. -1.
         23    2    1    2    0    0  0.90877328369E+02  0.12966615592E+03 -0.61963039719E+02  0.19304972634E+03  0.91415413069E+02 0.  0.
         23    2    1    2    0    0 -0.18766955098E+03 -0.31115586053E+03  0.16228199506E+03  0.40875808580E+03  0.93326828292E+02 0.  0.
        -11    1    3    3    0    0  0.18527065640E+02  0.10439998220E+03 -0.40054655079E+02  0.11334453599E+03  0.00000000000E+00 0.  1.
         11    1    3    3    0    0  0.72350262729E+02  0.25266173714E+02 -0.21908384641E+02  0.79705190350E+02  0.00000000000E+00 0. -1.
        -13    1    4    4    0    0 -0.43300216164E+02 -0.16007444682E+03  0.80797748968E+02  0.18446412519E+03  0.00000000000E+00 0.  1.
         13    1    4    4    0    0 -0.14436933481E+03 -0.15108141371E+03  0.81484246089E+02  0.22429396060E+03  0.00000000000E+00 0. -1.
          1    1    1    2  501    0  0.96792222610E+02  0.18148970461E+03  0.38567648851E+03  0.43709678680E+03  0.00000000000E+00 0. -1.
<scales pt_clust_5="13000.00000" pt_clust_6="13000.00000" pt_clust_7="13000.00000" pt_clust_8="13000.00000" pt_clust_9="232.84129"></scales>
<clustering>
<clus scale="   91.415">  5  6 -1 -1</clus>
<clus scale="   93.327">  7  8 -1 -1</clus>
<clus scale="  182.835">  2  5  1 -1</clus>
<clus scale="  232.841">  1  9  2 -1</clus>
<clus scale="  232.841">  1  5  2 -1</clus>
</clustering>
</event>
<event>
 9    1  0.1426358E-005  0.1524422E+03  0.7546771E-02  0.1197754E+00
          4   -1    0    0  502    0 -0.00000000000E+00  0.00000000000E+00  0.84101543017E+03  0.84101543017E+03  0.00000000000E+00 0. -1.
         21   -1    0    0  501  502  0.00000000000E+00 -0.00000000000E+00 -0.54296551108E+02  0.54296551108E+02  0.00000000000E+00 0.  1.
         23    2    1    2    0    0 -0.43195419068E+01 -0.15913674389E+03  0.36071149243E+03  0.40530377973E+03  0.93889357226E+02 0.  0.
         23    2    1    2    0    0 -0.46465224394E+02  0.75297515567E+02  0.15054055374E+03  0.19762132647E+03  0.92536465375E+02 0.  0.
        -13    1    3    3    0    0 -0.48531512859E+02 -0.82478558651E+02  0.20404534476E+03  0.22537196608E+03  0.00000000000E+00 0.  1.
         13    1    3    3    0    0  0.44211970952E+02 -0.76658185238E+02  0.15666614767E+03  0.17993181365E+03  0.00000000000E+00 0. -1.
        -13    1    4    4    0    0 -0.57213016871E+02  0.41120454755E+02  0.14520884631E+03  0.16139959772E+03  0.00000000000E+00 0.  1.
         13    1    4    4    0    0  0.10747792477E+02  0.34177060812E+02  0.53317074329E+01  0.36221728741E+02  0.00000000000E+00 0. -1.
          4    1    1    2  501    0  0.50784766301E+02  0.83839228323E+02  0.27546683289E+03  0.29238687507E+03  0.00000000000E+00 0. -1.
<scales pt_clust_5="13000.00000" pt_clust_6="13000.00000" pt_clust_7="13000.00000" pt_clust_8="13000.00000" pt_clust_9="98.02101"></scales>
<clustering>
<clus scale="   92.536">  7  8 -1 -1</clus>
<clus scale="   93.889">  5  6 -1 -1</clus>
<clus scale="   98.021">  2  9  1 -1</clus>
<clus scale="  151.613">  2  7  1 -1</clus>
<clus scale="   98.021">  2  5  1 -1</clus>
</clustering>
</event>
<event>
 9    1  0.1426358E-005  0.1028570E+03  0.7546771E-02  0.1279540E+00
         21   -1    0    0  501  502  0.00000000000E+00  0.00000000000E+00  0.81489590049E+02  0.81489590049E+02  0.00000000000E+00 0. -1.
         -1   -1    0    0    0  501 -0.00000000000E+00 -0.00000000000E+00 -0.27965939230E+03  0.27965939230E+03  0.00000000000E+00 0.  1.
         23    2    1    2    0    0 -0.12161854835E+01 -0.44151296086E+02 -0.20446836148E+03  0.22802469442E+03  0.90758660027E+02 0.  0.
         23    2    1    2    0    0  0.16820172871E+02  0.65547415424E+02 -0.42350413613E+01  0.10462454957E+03  0.79680480125E+02 0.  0.
        -11    1    4    4    0    0  0.49051689190E+02  0.42202150874E+02 -0.39019723305E+01  0.64825266207E+02  0.00000000000E+00 0.  1.
         11    1    4    4    0    0 -0.32231516319E+02  0.23345264550E+02 -0.33306903083E+00  0.39799283361E+02  0.00000000000E+00 0. -1.
        -13    1    3    3    0    0 -0.21956461839E+02 -0.64498143436E+02 -0.16872623955E+03  0.18196329475E+03  0.00000000000E+00 0.  1.
         13    1    3    3    0    0  0.20740276356E+02  0.20346847350E+02 -0.35742121928E+02  0.46061399679E+02  0.00000000000E+00 0. -1.
         -1    1    1    2    0  502 -0.15603987388E+02 -0.21396119338E+02  0.10533600585E+02  0.28499738357E+02  0.00000000000E+00 0.  1.
<scales pt_clust_5="13000.00000" pt_clust_6="13000.00000" pt_clust_7="13000.00000" pt_clust_8="13000.00000" pt_clust_9="26.48166"></scales>
<clustering>
<clus scale="   26.482">  1  9  2 -1</clus>
<clus scale="   79.680">  5  6 -1 -1</clus>
<clus scale="   90.759">  7  8 -1 -1</clus>
<clus scale="   93.228">  1  5  2 -1</clus>
<clus scale="   26.482">  1  5  2 -1</clus>
</clustering>
</event>
<event>
 9    1  0.1426358E-005  0.1017611E+03  0.7546771E-02  0.1277143E+00
         21   -1    0    0  501  502  0.00000000000E+00  0.00000000000E+00  0.10073292488E+03  0.10073292488E+03  0.00000000000E+00 0.  1.
         -3   -1    0    0    0  501 -0.00000000000E+00 -0.00000000000E+00 -0.24522892291E+03  0.24522892291E+03  0.00000000000E+00 0.  1.
         23    2    1    2    0    0  0.37302909199E+01  0.35070941744E+02 -0.76395408969E+02  0.12531488633E+03  0.92863750722E+02 0.  0.
         23    2    1    2    0    0 -0.65160339513E+02 -0.59635895351E+01 -0.93778773987E+02  0.14798157766E+03  0.93928987164E+02 0.  0.
        -11    1    4    4    0    0 -0.60856121958E+02 -0.29021023081E+02 -0.10272775481E+03  0.12287668196E+03  0.00000000000E+00 0.  1.
         11    1    4    4    0    0 -0.43042175553E+01  0.23057433545E+02  0.89489808210E+01  0.25104895702E+02  0.00000000000E+00 0. -1.
        -11    1    3    3    0    0 -0.80590296538E+01  0.65613231939E+02 -0.56823690506E+02  0.87172105442E+02  0.00000000000E+00 0.  1.
         11    1    3    3    0    0  0.11789320574E+02 -0.30542290195E+02 -0.19571718463E+02  0.38142780884E+02  0.00000000000E+00 0. -1.
         -3    1    1    2    0  502  0.61430048593E+02 -0.29107352209E+02  0.25678184922E+02  0.72665383806E+02  0.00000000000E+00 0.  1.
<scales pt_clust_5="13000.00000" pt_clust_6="13000.00000" pt_clust_7="13000.00000" pt_clust_8="13000.00000" pt_clust_9="67.97712"></scales>
<clustering>
<clus scale="   67.977">  1  9  2 -1</clus>
<clus scale="   92.864">  7  8 -1 -1</clus>
<clus scale="   93.929">  5  6 -1 -1</clus>
<clus scale="  100.779">  2  7  1 -1</clus>
<clus scale="   67.977">  1  5  2 -1</clus>
</clustering>
</event>
<event>
 9    1  0.1426358E-005  0.1217057E+03  0.7546771E-02  0.1241236E+00
          1   -1    0    0  502    0 -0.00000000000E+00  0.00000000000E+00  0.66005331904E+03  0.66005331904E+03  0.00000000000E+00 0. -1.
         21   -1    0    0  501  502  0.00000000000E+00 -0.00000000000E+00 -0.48236602893E+02  0.48236602893E+02  0.00000000000E+00 0.  1.
         23    2    1    2    0    0  0.61151356032E+02  0.35088913025E+02  0.41085785993E+03  0.42688970319E+03  0.91977809605E+02 0.  0.
         23    2    1    2    0    0 -0.98491245980E+02 -0.33251323102E+02  0.97051109213E+02  0.17097167169E+03  0.94901099557E+02 0.  0.
        -13    1    4    4    0    0 -0.96303543563E+02 -0.57648666232E+02  0.93775047610E+02  0.14625833575E+03  0.00000000000E+00 0.  1.
         13    1    4    4    0    0 -0.21877024173E+01  0.24397343130E+02  0.32760616031E+01  0.24713335940E+02  0.00000000000E+00 0. -1.
        -13    1    3    3    0    0  0.23757852353E+02  0.63923579987E+02  0.22347104110E+03  0.23364495680E+03  0.00000000000E+00 0. -1.
         13    1    3    3    0    0  0.37393503679E+02 -0.28834666961E+02  0.18738681883E+03  0.19324474639E+03  0.00000000000E+00 0.  1.
          1    1    1    2  501    0  0.37339889948E+02 -0.18375899231E+01  0.10390774701E+03  0.11042854706E+03  0.00000000000E+00 0. -1.
<scales pt_clust_5="13000.00000" pt_clust_6="13000.00000" pt_clust_7="13000.00000" pt_clust_8="13000.00000" pt_clust_9="37.38510"></scales>
<clustering>
<clus scale="   37.385">  2  9  1 -1</clus>
<clus scale="   91.978">  7  8 -1 -1</clus>
<clus scale="   94.901">  5  6 -1 -1</clus>
<clus scale="  119.440">  1  7  2 -1</clus>
<clus scale="   37.385">  2  5  1 -1</clus>
</clustering>
</event>
<event>
 9    1  0.1426358E-005  0.1156841E+03  0.7546771E-02  0.1254751E+00
         -1   -1    0    0    0  501 -0.00000000000E+00  0.00000000000E+00  0.27361235455E+03  0.27361235455E+03  0.00000000000E+00 0.  1.
         21   -1    0    0  501  502  0.00000000000E+00 -0.00000000000E+00 -0.11078506478E+03  0.11078506478E+03  0.00000000000E+00 0.  1.
         23    2    1    2    0    0  0.71366312894E+00  0.60100049943E+02  0.50249434482E+02  0.12300119201E+03  0.94824903124E+02 0.  0.
         23    2    1    2    0    0 -0.96296439193E+02 -0.27853681722E+02  0.89659638544E+02  0.15794991273E+03  0.82828089206E+02 0.  0.
        -11    1    3    3    0    0 -0.19551727939E+02  0.31734275501E+02  0.72586727920E+02  0.81597594186E+02  0.00000000000E+00 0.  1.
         11    1    3    3    0    0  0.20265391068E+02  0.28365774442E+02 -0.22337293437E+02  0.41403597826E+02  0.00000000000E+00 0. -1.
        -13    1    4    4    0    0 -0.64431884863E+02  0.38677538189E+01  0.84156160840E+01  0.65094161801E+02  0.00000000000E+00 0. -1.
         13    1    4    4    0    0 -0.31864554331E+02 -0.31721435541E+02  0.81244022460E+02  0.92855750931E+02  0.00000000000E+00 0.  1.
         -1    1    1    2    0  502  0.95582776064E+02 -0.32246368220E+02  0.22918216747E+02  0.10344631459E+03  0.00000000000E+00 0.  1.
<scales pt_clust_5="13000.00000" pt_clust_6="13000.00000" pt_clust_7="13000.00000" pt_clust_8="13000.00000" pt_clust_9="100.87564"></scales>
<clustering>
<clus scale="   82.828">  7  8 -1 -1</clus>
<clus scale="   94.825">  5  6 -1 -1</clus>
<clus scale="  100.876">  2  9  1 -1</clus>
<clus scale="  106.073">  2  7  1 -1</clus>
<clus scale="  100.876">  2  5  1 -1</clus>
</clustering>
</event>
<event>
 9    1  0.1426358E-005  0.1294886E+03  0.7546771E-02  0.1228238E+00
         21   -1    0    0  501  502  0.00000000000E+00  0.00000000000E+00  0.30989156208E+02  0.30989156208E+02  0.00000000000E+00 0.  1.
          2   -1    0    0  502    0 -0.00000000000E+00 -0.00000000000E+00 -0.86944803189E+03  0.86944803189E+03  0.00000000000E+00 0. -1.
         23    2    1    2    0    0 -0.73392248874E+02 -0.21537965012E+02 -0.40559844871E+03  0.42280819168E+03  0.91686199755E+02 0.  0.
         23    2    1    2    0    0  0.11480548012E+03  0.12469416140E+02 -0.39164995192E+03  0.41850541775E+03  0.91767724404E+02 0.  0.
        -11    1    4    4    0    0  0.29072394224E+02 -0.34901407842E+02 -0.82100073592E+02  0.93828217819E+02  0.00000000000E+00 0.  1.
         11    1    4    4    0    0  0.85733085891E+02  0.47370823981E+02 -0.30954987833E+03  0.32467719993E+03  0.00000000000E+00 0. -1.
        -13    1    3    3    0    0 -0.89284548337E+01 -0.44643268118E+02 -0.22723107483E+03  0.23174706053E+03  0.00000000000E+00 0.  1.
         13    1    3    3    0    0 -0.64463794041E+02  0.23105303106E+02 -0.17836737388E+03  0.19106113116E+03  0.00000000000E+00 0. -1.
          2    1    1    2  501    0 -0.41413231241E+02  0.90685488727E+01 -0.41210475050E+02  0.59123578666E+02  0.00000000000E+00 0. -1.
<scales pt_clust_5="13000.00000" pt_clust_6="13000.00000" pt_clust_7="13000.00000" pt_clust_8="13000.00000" pt_clust_9="42.39451"></scales>
<clustering>
<clus scale="   42.395">  1  9  2 -1</clus>
<clus scale="   91.686">  7  8 -1 -1</clus>
<clus scale="   91.768">  5  6 -1 -1</clus>
<clus scale="  129.431">  2  7  1 -1</clus>
<clus scale="   42.395">  1  5  2 -1</clus>
</clustering>
</event>
<event>
 9    1  0.1426358E-005  0.9216566E+02  0.7546771E-02  0.1298019E+00
         21   -1    0    0  501  502  0.00000000000E+00  0.00000000000E+00  0.15495158864E+03  0.15495158864E+03  0.00000000000E+00 0.  1.
         -1   -1    0    0    0  501 -0.00000000000E+00 -0.00000000000E+00 -0.42685856005E+03  0.42685856005E+03  0.00000000000E+00 0.  1.
         23    2    1    2    0    0  0.82983267833E+01  0.76032153042E+01 -0.31239742896E+03  0.32570025997E+03  0.91443067587E+02 0.  0.
         23    2    1    2    0    0  0.19936438244E+02  0.20158334337E+01 -0.85166130804E+02  0.12696150022E+03  0.92002323603E+02 0.  0.
        -11    1    3    3    0    0  0.27337609592E+01 -0.38236760338E+02 -0.20862598825E+03  0.21211866081E+03  0.00000000000E+00 0.  1.
         11    1    3    3    0    0  0.55645658241E+01  0.45839975643E+02 -0.10377144071E+03  0.11358159916E+03  0.00000000000E+00 0. -1.
        -13    1    4    4    0    0 -0.30451002536E+02  0.96659839504E+01 -0.64475376212E+02  0.71956715732E+02  0.00000000000E+00 0. -1.
         13    1    4    4    0    0  0.50387440780E+02 -0.76501505167E+01 -0.20690754591E+02  0.55004784490E+02  0.00000000000E+00 0.  1.
         -1    1    1    2    0  502 -0.28234765027E+02 -0.96190487379E+01  0.12565658835E+03  0.12914838850E+03  0.00000000000E+00 0.  1.
<scales pt_clust_5="13000.00000" pt_clust_6="13000.00000" pt_clust_7="13000.00000" pt_clust_8="13000.00000" pt_clust_9="29.82831"></scales>
<clustering>
<clus scale="   29.828">  1  9  2 -1</clus>
<clus scale="   91.443">  5  6 -1 -1</clus>
<clus scale="   91.607">  2  5  1 -1</clus>
<clus scale="   92.002">  7  8 -1 -1</clus>
<clus scale="   29.828">  1  5  2 -1</clus>
</clustering>
</event>
<event>
 9    1  0.1426358E-005  0.1021612E+03  0.7546771E-02  0.1276072E+00
         21   -1    0    0  501  502  0.00000000000E+00  0.00000000000E+00  0.92513035520E+02  0.92513035520E+02  0.00000000000E+00 0. -1.
          2   -1    0    0  502    0 -0.00000000000E+00 -0.00000000000E+00 -0.18285639513E+03  0.18285639513E+03  0.00000000000E+00 0. -1.
         23    2    1    2    0    0 -0.38219491896E+02  0.37388456872E+02 -0.10983766154E+03  0.15205122392E+03  0.90535277848E+02 0.  0.
         23    2    1    2    0    0  0.30792111620E+02 -0.12955354092E+02  0.12099016934E+02  0.96731880744E+02  0.89970412936E+02 0.  0.
        -11    1    3    3    0    0  0.12965160531E+02  0.25786638171E+02 -0.92312610531E+02  0.96719512814E+02  0.00000000000E+00 0.  1.
         11    1    3    3    0    0 -0.51184652427E+02  0.11601818700E+02 -0.17525051010E+02  0.55331711107E+02  0.00000000000E+00 0. -1.
        -13    1    4    4    0    0 -0.30720477581E+02 -0.64804083481E+01 -0.66643806970E+01  0.32096065261E+02  0.00000000000E+00 0.  1.
         13    1    4    4    0    0  0.61512589201E+02 -0.64749457434E+01  0.18763397631E+02  0.64635815483E+02  0.00000000000E+00 0. -1.
          2    1    1    2  501    0  0.74273802759E+01 -0.24433102780E+02  0.73952849962E+01  0.26586325985E+02  0.00000000000E+00 0. -1.
<scales pt_clust_5="13000.00000" pt_clust_6="13000.00000" pt_clust_7="13000.00000" pt_clust_8="13000.00000" pt_clust_9="25.53708"></scales>
<clustering>
<clus scale="   25.537">  1  9  2 -1</clus>
<clus scale="   89.970">  7  8 -1 -1</clus>
<clus scale="   90.535">  5  6 -1 -1</clus>
<clus scale="  101.661">  1  7  2 -1</clus>
<clus scale="   25.537">  1  5  2 -1</clus>
</clustering>
</event>
<event>
 9    1  0.1426358E-005  0.9493296E+02  0.7546771E-02  0.1296161E+00
         21   -1    0    0  501  502  0.00000000000E+00  0.00000000000E+00  0.85384890339E+02  0.85384890339E+02  0.00000000000E+00 0.  1.
         -3   -1    0    0    0  501 -0.00000000000E+00 -0.00000000000E+00 -0.20405760520E+03  0.20405760520E+03  0.00000000000E+00 0.  1.
         23    2    1    2    0    0 -0.11242553328E+01  0.13224950695E+02 -0.31473977420E+02  0.90636856787E+02  0.83953947392E+02 0.  0.
         23    2    1    2    0    0 -0.36009685967E+02  0.45475091049E+02 -0.56910840426E+02  0.12302977714E+03  0.92373161234E+02 0.  0.
        -11    1    3    3    0    0  0.25501512190E+02  0.20472553608E+02  0.15474858771E+02  0.36179052353E+02  0.00000000000E+00 0.  1.
         11    1    3    3    0    0 -0.26625767523E+02 -0.72476029124E+01 -0.46948836191E+02  0.54457804434E+02  0.00000000000E+00 0. -1.
        -13    1    4    4    0    0 -0.62736750616E+02  0.86170601500E+01 -0.29225379160E+02  0.69744364579E+02  0.00000000000E+00 0. -1.
         13    1    4    4    0    0  0.26727064649E+02  0.36858030899E+02 -0.27685461266E+02  0.53285412563E+02  0.00000000000E+00 0.  1.
         -3    1    1    2    0  502  0.37133941300E+02 -0.58700041744E+02 -0.30287897019E+02  0.75775861612E+02  0.00000000000E+00 0.  1.
<scales pt_clust_5="13000.00000" pt_clust_6="13000.00000" pt_clust_7="13000.00000" pt_clust_8="13000.00000" pt_clust_9="69.45952"></scales>
<clustering>
<clus scale="   69.460">  1  9  2 -1</clus>
<clus scale="   83.954">  5  6 -1 -1</clus>
<clus scale="   86.762">  2  5  1 -1</clus>
<clus scale="   92.373">  7  8 -1 -1</clus>
<clus scale="   69.460">  1  5  2 -1</clus>
</clustering>
</event>
<event>
 9    1  0.1426358E-005  0.9640051E+02  0.7546771E-02  0.1297513E+00
         -4   -1    0    0    0  501 -0.00000000000E+00  0.00000000000E+00  0.24278128442E+03  0.24278128442E+03  0.00000000000E+00 0.  1.
         21   -1    0    0  501  502  0.00000000000E+00 -0.00000000000E+00 -0.58408581128E+02  0.58408581128E+02  0.00000000000E+00 0. -1.
         23    2    1    2    0    0  0.24215716222E+02 -0.91318990086E+01  0.86930996917E+02  0.11924954590E+03  0.77418754070E+02 0.  0.
         23    2    1    2    0    0 -0.18177126483E+02 -0.31102572331E+02  0.99424236595E+02  0.14120694664E+03  0.93575878437E+02 0.  0.
        -11    1    4    4    0    0  0.35588786512E+02  0.28076842605E+01  0.45613319270E+02  0.57922531981E+02  0.00000000000E+00 0.  1.
         11    1    4    4    0    0 -0.53765912995E+02 -0.33910256591E+02  0.53810917325E+02  0.83284414663E+02  0.00000000000E+00 0. -1.
        -11    1    3    3    0    0  0.11052636147E+02  0.30953138926E+02  0.62186048592E+02  0.70337487975E+02  0.00000000000E+00 0.  1.
         11    1    3    3    0    0  0.13163080075E+02 -0.40085037934E+02  0.24744948326E+02  0.48912057930E+02  0.00000000000E+00 0. -1.
         -4    1    1    2    0  502 -0.60385897387E+01  0.40234471339E+02 -0.19825302182E+01  0.40733373001E+02  0.00000000000E+00 0.  1.
<scales pt_clust_5="13000.00000" pt_clust_6="13000.00000" pt_clust_7="13000.00000" pt_clust_8="13000.00000" pt_clust_9="40.68510"></scales>
<clustering>
<clus scale="   40.685">  2  9  1 -1</clus>
<clus scale="   77.419">  7  8 -1 -1</clus>
<clus scale="   80.810">  1  7  2 -1</clus>
<clus scale="   93.576">  5  6 -1 -1</clus>
<clus scale="   40.685">  2  5  1 -1</clus>
</clustering>
</event>
<event>
 9    1  0.1426358E-005  0.1000762E+03  0.7546771E-02  0.1281225E+00
         21   -1    0    0  501  502  0.00000000000E+00  0.00000000000E+00  0.42583343218E+02  0.42583343218E+02  0.00000000000E+00 0.  1.
          1   -1    0    0  502    0 -0.00000000000E+00 -0.00000000000E+00 -0.32049393794E+03  0.32049393794E+03  0.00000000000E+00 0. -1.
         23    2    1    2    0    0  0.48436975524E+02 -0.10236194864E+02 -0.16662860838E+03  0.19711926788E+03  0.92951559183E+02 0.  0.
         23    2    1    2    0    0 -0.18453750003E+02  0.99469049552E+01 -0.84761319674E+02  0.12592773397E+03  0.90740459895E+02 0.  0.
        -11    1    3    3    0    0 -0.26102393101E+02  0.76361093686E+01 -0.30270521411E+02  0.40693360127E+02  0.00000000000E+00 0.  1.
         11    1    3    3    0    0  0.74539368625E+02 -0.17872304233E+02 -0.13635808697E+03  0.15642590775E+03  0.00000000000E+00 0. -1.
        -13    1    4    4    0    0  0.89282829370E+01 -0.36762554819E+02 -0.44784844854E+02  0.58624926453E+02  0.00000000000E+00 0. -1.
         13    1    4    4    0    0 -0.27382032940E+02  0.46709459774E+02 -0.39976474820E+02  0.67302807515E+02  0.00000000000E+00 0.  1.
          1    1    1    2  501    0 -0.29983225521E+02  0.28928990870E+00 -0.26520666666E+02  0.40030279311E+02  0.00000000000E+00 0. -1.
<scales pt_clust_5="13000.00000" pt_clust_6="13000.00000" pt_clust_7="13000.00000" pt_clust_8="13000.00000" pt_clust_9="29.98462"></scales>
<clustering>
<clus scale="   29.985">  1  9  2 -1</clus>
<clus scale="   90.740">  7  8 -1 -1</clus>
<clus scale="   92.952">  5  6 -1 -1</clus>
<clus scale="   98.026">  1  7  2 -1</clus>
<clus scale="   29.985">  1  5  2 -1</clus>
</clustering>
</event>
<event>
 9    1  0.1426358E-005  0.1171919E+03  0.7546771E-02  0.1251546E+00
         21   -1    0    0  501  502  0.00000000000E+00  0.00000000000E+00  0.71303286421E+02  0.71303286421E+02  0.00000000000E+00 0.  1.
          1   -1    0    0  502    0 -0.00000000000E+00 -0.00000000000E+00 -0.24894231572E+03  0.24894231572E+03  0.00000000000E+00 0. -1.
         23    2    1    2    0    0 -0.51865650969E+01  0.52295785641E+02 -0.11126200435E+03  0.15252351224E+03  0.90124572231E+02 0.  0.
         23    2    1    2    0    0  0.17146919193E+02 -0.76344241301E+02 -0.52815143811E+02  0.13763383788E+03  0.10015574819E+03 0.  0.
        -11    1    4    4    0    0 -0.10469975151E+02 -0.79110785461E+02 -0.21089907950E+01  0.79828469847E+02  0.00000000000E+00 0.  1.
         11    1    4    4    0    0  0.27616894344E+02  0.27665441599E+01 -0.50706153016E+02  0.57805368034E+02  0.00000000000E+00 0. -1.
        -13    1    3    3    0    0 -0.35563737071E+02  0.26783496672E+02 -0.12729374075E+02  0.46305205461E+02  0.00000000000E+00 0.  1.
         13    1    3    3    0    0  0.30377171974E+02  0.25512288970E+02 -0.98532630273E+02  0.10621830677E+03  0.00000000000E+00 0. -1.
          1    1    1    2  501    0 -0.11960354096E+02  0.24048455660E+02 -0.13561881135E+02  0.30088252020E+02  0.00000000000E+00 0. -1.
<scales pt_clust_5="13000.00000" pt_clust_6="13000.00000" pt_clust_7="13000.00000" pt_clust_8="13000.00000" pt_clust_9="26.85849"></scales>
<clustering>
<clus scale="   26.858">  1  9  2 -1</clus>
<clus scale="   90.125">  7  8 -1 -1</clus>
<clus scale="  100.156">  5  6 -1 -1</clus>
<clus scale="  108.744">  2  7  1 -1</clus>
<clus scale="   26.858">  1  5  2 -1</clus>
</clustering>
</event>
<event>
 9    1  0.1426358E-005  0.8966954E+02  0.7546771E-02  0.1316324E+00
         21   -1    0    0  501  502  0.00000000000E+00  0.00000000000E+00  0.15979803743E+02  0.15979803743E+02  0.00000000000E+00 0.  1.
          1   -1    0    0  502    0 -0.00000000000E+00 -0.00000000000E+00 -0.80403026473E+03  0.80403026473E+03  0.00000000000E+00 0. -1.
         23    2    1    2    0    0  0.34117152303E+01  0.15747604875E+02 -0.25248474644E+03  0.26830363707E+03  0.89323387861E+02 0.  0.
         23    2    1    2    0    0  0.38796142941E+01  0.27501374313E+02 -0.21303184871E+03  0.22620415446E+03  0.70812244224E+02 0.  0.
        -11    1    3    3    0    0 -0.30725521208E+02  0.33636445262E+02 -0.18560056746E+03  0.19111001738E+03  0.00000000000E+00 0.  1.
         11    1    3    3    0    0  0.34137236438E+02 -0.17888840387E+02 -0.66884178985E+02  0.77193619688E+02  0.00000000000E+00 0. -1.
        -13    1    4    4    0    0 -0.27650453108E+02  0.29543961365E+02 -0.82319737648E+02  0.91727489973E+02  0.00000000000E+00 0.  1.
         13    1    4    4    0    0  0.31530067402E+02 -0.20425870520E+01 -0.13071211106E+03  0.13447666448E+03  0.00000000000E+00 0. -1.
          1    1    1    2  501    0 -0.72913295245E+01 -0.43248979188E+02 -0.32253386583E+03  0.32550227694E+03  0.00000000000E+00 0. -1.
<scales pt_clust_5="13000.00000" pt_clust_6="13000.00000" pt_clust_7="13000.00000" pt_clust_8="13000.00000" pt_clust_9="43.85932"></scales>
<clustering>
<clus scale="   43.859">  1  9  2 -1</clus>
<clus scale="   70.812">  7  8 -1 -1</clus>
<clus scale="   71.248">  1  7  2 -1</clus>
<clus scale="   89.323">  5  6 -1 -1</clus>
<clus scale="   43.859">  1  5  2 -1</clus>
</clustering>
</event>
<event>
 9    1  0.1426358E-005  0.1149974E+03  0.7546771E-02  0.1256124E+00
         21   -1    0    0  501  502  0.00000000000E+00  0.00000000000E+00  0.74396788724E+03  0.74396788724E+03  0.00000000000E+00 0. -1.
         -3   -1    0    0    0  501 -0.00000000000E+00 -0.00000000000E+00 -0.22057259676E+02  0.22057259676E+02  0.00000000000E+00 0.  1.
         23    2    1    2    0    0 -0.73487091191E+02  0.35870995948E+02  0.31744492571E+03  0.33719203318E+03  0.78994338149E+02 0.  0.
         23    2    1    2    0    0  0.53782567660E+02 -0.14949571076E+02  0.36167465580E+03  0.37728655334E+03  0.91763459078E+02 0.  0.
        -13    1    4    4    0    0  0.58500240928E+02  0.27469831959E+02  0.22567663584E+03  0.23474840536E+03  0.00000000000E+00 0.  1.
         13    1    4    4    0    0 -0.47176732683E+01 -0.42419403036E+02  0.13599801997E+03  0.14253814798E+03  0.00000000000E+00 0. -1.
        -13    1    3    3    0    0 -0.48813723079E+02 -0.17340117224E+02  0.10952713662E+03  0.12115961737E+03  0.00000000000E+00 0. -1.
         13    1    3    3    0    0 -0.24673368112E+02  0.53211113172E+02  0.20791778909E+03  0.21603241581E+03  0.00000000000E+00 0.  1.
         -3    1    1    2    0  502  0.19704523531E+02 -0.20921424872E+02  0.42791046048E+02  0.51546560391E+02  0.00000000000E+00 0.  1.
<scales pt_clust_5="13000.00000" pt_clust_6="13000.00000" pt_clust_7="13000.00000" pt_clust_8="13000.00000" pt_clust_9="28.73978"></scales>
<clustering>
<clus scale="   28.740">  1  9  2 -1</clus>
<clus scale="   78.994">  7  8 -1 -1</clus>
<clus scale="   91.763">  5  6 -1 -1</clus>
<clus scale="  105.090">  2  7  1 -1</clus>
<clus scale="   28.740">  1  5  2 -1</clus>
</clustering>
</event>
<event>
 9    1  0.1426358E-005  0.9866721E+02  0.7546771E-02  0.1284090E+00
         21   -1    0    0  501  502  0.00000000000E+00  0.00000000000E+00  0.64685492447E+03  0.64685492447E+03  0.00000000000E+00 0. -1.
          3   -1    0    0  502    0 -0.00000000000E+00 -0.00000000000E+00 -0.93690211289E+02  0.93690211289E+02  0.00000000000E+00 0. -1.
         23    2    1    2    0    0 -0.39549268093E+02  0.45431397980E+02  0.53093028918E+01  0.11107553681E+03  0.93174189837E+02 0.  0.
         23    2    1    2    0    0 -0.34367193435E+02 -0.17315362722E+02  0.27040253359E+02  0.10268446019E+03  0.91279774828E+02 0.  0.
        -11    1    4    4    0    0  0.27597445894E+01  0.29016336657E+02  0.31781545664E+02  0.43123434789E+02  0.00000000000E+00 0.  1.
         11    1    4    4    0    0 -0.37126938024E+02 -0.46331699379E+02 -0.47412923051E+01  0.59561025404E+02  0.00000000000E+00 0. -1.
        -11    1    3    3    0    0 -0.15893585956E+02  0.55134302622E+02  0.38559037586E+02  0.69131734969E+02  0.00000000000E+00 0.  1.
         11    1    3    3    0    0 -0.23655682137E+02 -0.97029046426E+01 -0.33249734694E+02  0.41943801844E+02  0.00000000000E+00 0. -1.
          3    1    1    2  501    0  0.73916461528E+02 -0.28116035258E+02  0.52081515693E+03  0.52678513875E+03  0.00000000000E+00 0. -1.
<scales pt_clust_5="13000.00000" pt_clust_6="13000.00000" pt_clust_7="13000.00000" pt_clust_8="13000.00000" pt_clust_9="79.08321"></scales>
<clustering>
<clus scale="   79.083">  1  9  2 -1</clus>
<clus scale="   91.280">  5  6 -1 -1</clus>
<clus scale="   93.174">  7  8 -1 -1</clus>
<clus scale="   96.880">  1  5  2 -1</clus>
<clus scale="   79.083">  1  5  2 -1</clus>
</clustering>
</event>
<event>
 9    1  0.1426358E-005  0.1392424E+03  0.7546771E-02  0.1233088E+00
          2   -1    0    0  502    0 -0.00000000000E+00  0.00000000000E+00  0.44369158234E+03  0.44369158234E+03  0.00000000000E+00 0. -1.
         21   -1    0    0  501  502  0.00000000000E+00 -0.00000000000E+00 -0.86213831829E+02  0.86213831829E+02  0.00000000000E+00 0. -1.
         23    2    1    2    0    0  0.25411490616E+02 -0.32746946350E+02  0.12512693927E+02  0.95011118235E+02  0.84572091900E+02 0.  0.
         23    2    1    2    0    0  0.81001805989E+02 -0.39732533645E+02  0.12151456370E+03  0.17700442121E+03  0.91786759029E+02 0.  0.
        -13    1    4    4    0    0  0.47024474306E+02 -0.67220674658E+02  0.60408931021E+02  0.10187815876E+03  0.00000000000E+00 0. -1.
         13    1    4    4    0    0  0.33977331683E+02  0.27488141012E+02  0.61105632677E+02  0.75126262448E+02  0.00000000000E+00 0.  1.
        -13    1    3    3    0    0 -0.27455266863E+02 -0.29524970058E+02  0.11920349904E+02  0.42042957524E+02  0.00000000000E+00 0.  1.
         13    1    3    3    0    0  0.52866757480E+02 -0.32219762914E+01  0.59234402218E+00  0.52968160711E+02  0.00000000000E+00 0. -1.
          2    1    1    2  501    0 -0.10641329661E+03  0.72479479995E+02  0.22345049289E+03  0.25788987473E+03  0.00000000000E+00 0. -1.
<scales pt_clust_5="13000.00000" pt_clust_6="13000.00000" pt_clust_7="13000.00000" pt_clust_8="13000.00000" pt_clust_9="104.70748"></scales>
<clustering>
<clus scale="   84.572">  7  8 -1 -1</clus>
<clus scale="   91.787">  5  6 -1 -1</clus>
<clus scale="   94.184">  1  7  2 -1</clus>
<clus scale="  104.707">  2  9  1 -1</clus>
<clus scale="  104.707">  2  5  1 -1</clus>
</clustering>
</event>
<event>
 9    1  0.1426358E-005  0.1014199E+03  0.7546771E-02  0.1277476E+00
         -4   -1    0    0    0  501 -0.00000000000E+00  0.00000000000E+00  0.84574281189E+02  0.84574281189E+02  0.00000000000E+00 0.  1.
         21   -1    0    0  501  502  0.00000000000E+00 -0.00000000000E+00 -0.17326099606E+03  0.17326099606E+03  0.00000000000E+00 0. -1.
         23    2    1    2    0    0  0.19478190831E+02 -0.40259204972E+02 -0.19544444431E+02  0.10351190731E+03  0.91282671649E+02 0.  0.
         23    2    1    2    0    0 -0.45213460030E+02  0.18870738492E+02 -0.45724903733E+02  0.11348045571E+03  0.91578847276E+02 0.  0.
        -11    1    4    4    0    0  0.28152791371E+02  0.98117558345E+01 -0.10657940349E+02  0.31661363001E+02  0.00000000000E+00 0.  1.
         11    1    4    4    0    0 -0.73366251401E+02  0.90589826579E+01 -0.35066963384E+02  0.81819092713E+02  0.00000000000E+00 0. -1.
        -13    1    3    3    0    0  0.55882280597E+01 -0.19540071026E+02  0.36718284130E+02  0.41967547676E+02  0.00000000000E+00 0.  1.
         13    1    3    3    0    0  0.13889962771E+02 -0.20719133947E+02 -0.56262728561E+02  0.61544359631E+02  0.00000000000E+00 0. -1.
         -4    1    1    2    0  502  0.25735269199E+02  0.21388466480E+02 -0.23417366705E+02  0.40842914226E+02  0.00000000000E+00 0.  1.
<scales pt_clust_5="13000.00000" pt_clust_6="13000.00000" pt_clust_7="13000.00000" pt_clust_8="13000.00000" pt_clust_9="33.46297"></scales>
<clustering>
<clus scale="   33.463">  2  9  1 -1</clus>
<clus scale="   91.283">  7  8 -1 -1</clus>
<clus scale="   91.579">  5  6 -1 -1</clus>
<clus scale="  101.153">  1  7  2 -1</clus>
<clus scale="   33.463">  2  5  1 -1</clus>
</clustering>
</event>
<event>
 9    1  0.1426358E-005  0.1271008E+03  0.7546771E-02  0.1232782E+00
          2   -1    0    0  502    0 -0.00000000000E+00  0.00000000000E+00  0.56478067664E+03  0.56478067664E+03  0.00000000000E+00 0. -1.
         21   -1    0    0  501  502  0.00000000000E+00 -0.00000000000E+00 -0.55097578446E+02  0.55097578446E+02  0.00000000000E+00 0. -1.
         23    2    1    2    0    0  0.85936966993E+02  0.17769242013E+02  0.34836206415E+03  0.37129417347E+03  0.93820718717E+02 0.  0.
         23    2    1    2    0    0 -0.71263477611E+02 -0.49248496639E+02  0.17153810240E+03  0.21238127443E+03  0.90424485026E+02 0.  0.
        -11    1    4    4    0    0 -0.53299629695E+01 -0.57871830415E+02  0.69613500041E+02  0.90684048480E+02  0.00000000000E+00 0. -1.
         11    1    4    4    0    0 -0.65933514641E+02  0.86233337762E+01  0.10192460236E+03  0.12169722595E+03  0.00000000000E+00 0.  1.
        -13    1    3    3    0    0  0.79220525941E+02  0.49503740992E+02  0.22239820277E+03  0.24122079657E+03  0.00000000000E+00 0. -1.
         13    1    3    3    0    0  0.67164410516E+01 -0.31734498979E+02  0.12596386138E+03  0.13007337690E+03  0.00000000000E+00 0.  1.
          2    1    1    2  501    0 -0.14673489382E+02  0.31479254626E+02 -0.10217068348E+02  0.36202807185E+02  0.00000000000E+00 0. -1.
<scales pt_clust_5="13000.00000" pt_clust_6="13000.00000" pt_clust_7="13000.00000" pt_clust_8="13000.00000" pt_clust_9="34.73118"></scales>
<clustering>
<clus scale="   34.731">  2  9  1 -1</clus>
<clus scale="   90.424">  5  6 -1 -1</clus>
<clus scale="   93.821">  7  8 -1 -1</clus>
<clus scale="  124.615">  2  5  1 -1</clus>
<clus scale="   34.731">  2  5  1 -1</clus>
</clustering>
</event>
<event>
 9    1  0.1426358E-005  0.1335994E+03  0.7546771E-02  0.1222228E+00
         -2   -1    0    0    0  501 -0.00000000000E+00  0.00000000000E+00  0.45035150426E+03  0.45035150426E+03  0.00000000000E+00 0.  1.
         21   -1    0    0  501  502  0.00000000000E+00 -0.00000000000E+00 -0.75402665452E+02  0.75402665452E+02  0.00000000000E+00 0.  1.
         23    2    1    2    0    0  0.63440536595E+01  0.90431235233E+02  0.18660214874E+03  0.22628939069E+03  0.90379594483E+02 0.  0.
         23    2    1    2    0    0 -0.68319015754E+02 -0.95488216486E+02  0.18527411478E+03  0.23720797454E+03  0.90308572018E+02 0.  0.
        -11    1    4    4    0    0 -0.13135986510E+01 -0.49544838684E+02  0.20775438376E+02  0.53740444931E+02  0.00000000000E+00 0. -1.
         11    1    4    4    0    0 -0.67005417103E+02 -0.45943377802E+02  0.16449867640E+03  0.18346752961E+03  0.00000000000E+00 0.  1.
        -11    1    3    3    0    0  0.48275551396E+02  0.42882570412E+02  0.97057061262E+02  0.11657408309E+03  0.00000000000E+00 0. -1.
         11    1    3    3    0    0 -0.41931497736E+02  0.47548664821E+02  0.89545087480E+02  0.10971530759E+03  0.00000000000E+00 0.  1.
         -2    1    1    2    0  502  0.61974962095E+02  0.50569812532E+01  0.30725752935E+01  0.62256804487E+02  0.00000000000E+00 0.  1.
<scales pt_clust_5="13000.00000" pt_clust_6="13000.00000" pt_clust_7="13000.00000" pt_clust_8="13000.00000" pt_clust_9="62.18094"></scales>
<clustering>
<clus scale="   62.181">  2  9  1 -1</clus>
<clus scale="   90.309">  5  6 -1 -1</clus>
<clus scale="   90.380">  7  8 -1 -1</clus>
<clus scale="  133.551">  2  5  1 -1</clus>
<clus scale="   62.181">  2  5  1 -1</clus>
</clustering>
</event>
<event>
 9    1  0.1426358E-005  0.1259406E+03  0.7546771E-02  0.1234791E+00
          4   -1    0    0  502    0 -0.00000000000E+00  0.00000000000E+00  0.11675628071E+03  0.11675628071E+03  0.00000000000E+00 0. -1.
         21   -1    0    0  501  502  0.00000000000E+00 -0.00000000000E+00 -0.27585666137E+03  0.27585666137E+03  0.00000000000E+00 0. -1.
         23    2    1    2    0    0 -0.61607259022E+02  0.55103605895E+02 -0.99519515791E+01  0.12409870403E+03  0.92030349642E+02 0.  0.
         23    2    1    2    0    0 -0.41461064579E+01 -0.10232607722E+03 -0.77237943592E+02  0.16023411617E+03  0.96028411300E+02 0.  0.
        -11    1    4    4    0    0 -0.25564846584E+02 -0.56824903189E+02  0.64024830888E+01  0.62638828158E+02  0.00000000000E+00 0.  1.
         11    1    4    4    0    0  0.21418740126E+02 -0.45501174026E+02 -0.83640426681E+02  0.97595288010E+02  0.00000000000E+00 0. -1.
        -13    1    3    3    0    0 -0.84306158215E+02  0.32089291883E+02  0.23371962331E+00  0.90207015200E+02  0.00000000000E+00 0. -1.
         13    1    3    3    0    0  0.22698899192E+02  0.23014314012E+02 -0.10185671202E+02  0.33891688831E+02  0.00000000000E+00 0.  1.
          4    1    1    2  501    0  0.65753365480E+02  0.47222471320E+02 -0.71910485489E+02  0.10828012187E+03  0.00000000000E+00 0. -1.
<scales pt_clust_5="13000.00000" pt_clust_6="13000.00000" pt_clust_7="13000.00000" pt_clust_8="13000.00000" pt_clust_9="80.95349"></scales>
<clustering>
<clus scale="   80.953">  2  9  1 -1</clus>
<clus scale="   92.030">  7  8 -1 -1</clus>
<clus scale="   96.028">  5  6 -1 -1</clus>
<clus scale="  122.919">  1  7  2 -1</clus>
<clus scale="   80.953">  2  5  1 -1</clus>
</clustering>
</event>
<event>
 9    1  0.1426358E-005  0.1454479E+03  0.7546771E-02  0.1206253E+00
         -1   -1    0    0    0  501 -0.00000000000E+00  0.00000000000E+00  0.22748395109E+03  0.22748395109E+03  0.00000000000E+00 0.  1.
         21   -1    0    0  501  502  0.00000000000E+00 -0.00000000000E+00 -0.23864219482E+03  0.23864219482E+03  0.00000000000E+00 0.  1.
         23    2    1    2    0    0  0.11777394142E+03  0.78301049539E+01  0.16390773514E+03  0.22153532431E+03  0.90995288102E+02 0.  0.
         23    2    1    2    0    0 -0.81310301857E+02 -0.24209720303E+02 -0.15764468157E+03  0.20098588600E+03  0.91356472137E+02 0.  0.
        -13    1    4    4    0    0 -0.54375957162E+02 -0.66693562678E+01 -0.15964333277E+03  0.16878157106E+03  0.00000000000E+00 0.  1.
         13    1    4    4    0    0 -0.26934344696E+02 -0.17540364035E+02  0.19986512026E+01  0.32204314949E+02  0.00000000000E+00 0. -1.
        -13    1    3    3    0    0  0.44348201565E+02 -0.18413641328E+02  0.10068322983E+02  0.49063186777E+02  0.00000000000E+00 0. -1.
         13    1    3    3    0    0  0.73425739854E+02  0.26243746282E+02  0.15383941215E+03  0.17247213753E+03  0.00000000000E+00 0.  1.
         -1    1    1    2    0  502 -0.36463639562E+02  0.16379615349E+02 -0.17421297294E+02  0.43604935598E+02  0.00000000000E+00 0.  1.
<scales pt_clust_5="13000.00000" pt_clust_6="13000.00000" pt_clust_7="13000.00000" pt_clust_8="13000.00000" pt_clust_9="39.97360"></scales>
<clustering>
<clus scale="   39.974">  2  9  1 -1</clus>
<clus scale="   90.995">  7  8 -1 -1</clus>
<clus scale="   91.356">  5  6 -1 -1</clus>
<clus scale="  145.221">  1  7  2 -1</clus>
<clus scale="   39.974">  2  5  1 -1</clus>
</clustering>
</event>
<event>
 9    1  0.1426358E-005  0.1023672E+03  0.7546771E-02  0.1276845E+00
          2   -1    0    0  502    0 -0.00000000000E+00  0.00000000000E+00  0.10913613725E+03  0.10913613725E+03  0.00000000000E+00 0. -1.
         21   -1    0    0  501  502  0.00000000000E+00 -0.00000000000E+00 -0.26393805968E+03  0.26393805968E+03  0.00000000000E+00 0.  1.
         23    2    1    2    0    0  0.27499736239E+02  0.42569224163E+02  0.13373544550E+02  0.10309595964E+03  0.88778098999E+02 0.  0.
         23    2    1    2    0    0 -0.37456884631E+02 -0.19064610411E+02 -0.12092124976E+01  0.10107192655E+03  0.91910796782E+02 0.  0.
        -11    1    4    4    0    0 -0.61160006276E+02 -0.43171553173E+01 -0.23179017361E+02  0.65547319118E+02  0.00000000000E+00 0.  1.
         11    1    4    4    0    0  0.23703121645E+02 -0.14747455093E+02  0.21969804863E+02  0.35524607432E+02  0.00000000000E+00 0. -1.
        -13    1    3    3    0    0  0.50876685961E+02 -0.71817083243E+00  0.17301989711E+02  0.53743016213E+02  0.00000000000E+00 0. -1.
         13    1    3    3    0    0 -0.23376949722E+02  0.43287394996E+02 -0.39284451602E+01  0.49352943430E+02  0.00000000000E+00 0.  1.
          2    1    1    2  501    0  0.99571483924E+01 -0.23504613753E+02 -0.16696625448E+03  0.16890631073E+03  0.00000000000E+00 0. -1.
<scales pt_clust_5="13000.00000" pt_clust_6="13000.00000" pt_clust_7="13000.00000" pt_clust_8="13000.00000" pt_clust_9="25.52669"></scales>
<clustering>
<clus scale="   25.527">  2  9  1 -1</clus>
<clus scale="   88.778">  7  8 -1 -1</clus>
<clus scale="   91.911">  5  6 -1 -1</clus>
<clus scale="   99.564">  1  7  2 -1</clus>
<clus scale="   25.527">  2  5  1 -1</clus>
</clustering>
</event>
<event>
 9    1  0.1426358E-005  0.1159802E+03  0.7546771E-02  0.1250853E+00
         21   -1    0    0  501  502  0.00000000000E+00  0.00000000000E+00  0.96895785169E+02  0.96895785169E+02  0.00000000000E+00 0.  1.
         -2   -1    0    0    0  501 -0.00000000000E+00 -0.00000000000E+00 -0.28475379072E+03  0.28475379072E+03  0.00000000000E+00 0.  1.
         23    2    1    2    0    0  0.42104038289E+01 -0.71772640388E+02 -0.20881195001E+03  0.23785950284E+03  0.88349721066E+02 0.  0.
         23    2    1    2    0    0  0.16060840584E+02  0.71104609901E+02  0.31481187673E+01  0.11680087071E+03  0.91206998615E+02 0.  0.
        -11    1    4    4    0    0 -0.24692144681E+02  0.34877438852E+02  0.33587182842E+02  0.54352889537E+02  0.00000000000E+00 0. -1.
         11    1    4    4    0    0  0.40752985265E+02  0.36227171050E+02 -0.30439064075E+02  0.62447981169E+02  0.00000000000E+00 0.  1.
        -11    1    3    3    0    0 -0.16322829736E+02 -0.51994647216E+02 -0.20106052320E+03  0.20831517492E+03  0.00000000000E+00 0.  1.
         11    1    3    3    0    0  0.20533233565E+02 -0.19777993172E+02 -0.77514268076E+01  0.29544327917E+02  0.00000000000E+00 0. -1.
         -2    1    1    2    0  502 -0.20271244413E+02  0.66803048611E+00  0.17805825694E+02  0.26989202349E+02  0.00000000000E+00 0.  1.
<scales pt_clust_5="13000.00000" pt_clust_6="13000.00000" pt_clust_7="13000.00000" pt_clust_8="13000.00000" pt_clust_9="20.28225"></scales>
<clustering>
<clus scale="   20.282">  1  9  2 -1</clus>
<clus scale="   88.350">  7  8 -1 -1</clus>
<clus scale="   91.207">  5  6 -1 -1</clus>
<clus scale="  113.747">  2  7  1 -1</clus>
<clus scale="   20.282">  1  5  2 -1</clus>
</clustering>
</event>
<event>
 9    1  0.1426358E-005  0.1019810E+03  0.7546771E-02  0.1276699E+00
          3   -1    0    0  502    0 -0.00000000000E+00  0.00000000000E+00  0.48065610651E+03  0.48065610651E+03  0.00000000000E+00 0. -1.
         21   -1    0    0  501  502  0.00000000000E+00 -0.00000000000E+00 -0.44604815778E+02  0.44604815778E+02  0.00000000000E+00 0.  1.
         23    2    1    2    0    0 -0.37339371906E+01  0.40614783928E+02  0.27459132526E+03  0.29214463980E+03  0.91019732454E+02 0.  0.
         23    2    1    2    0    0 -0.17695823723E+02 -0.54696208393E+02  0.17435327801E+03  0.20441508606E+03  0.89897966989E+02 0.  0.
        -11    1    4    4    0    0 -0.10107912186E+02 -0.78656494255E+02  0.11241964982E+03  0.13757613035E+03  0.00000000000E+00 0.  1.
         11    1    4    4    0    0 -0.75879115368E+01  0.23960285862E+02  0.61933628185E+02  0.66838955709E+02  0.00000000000E+00 0. -1.
        -13    1    3    3    0    0  0.32579325596E+02  0.48598895369E+01  0.19411298179E+03  0.19688799019E+03  0.00000000000E+00 0. -1.
         13    1    3    3    0    0 -0.36313262786E+02  0.35754894391E+02  0.80478343474E+02  0.95256649613E+02  0.00000000000E+00 0.  1.
          3    1    1    2  501    0  0.21429760914E+02  0.14081424465E+02 -0.12893312538E+02  0.28701196421E+02  0.00000000000E+00 0. -1.
<scales pt_clust_5="13000.00000" pt_clust_6="13000.00000" pt_clust_7="13000.00000" pt_clust_8="13000.00000" pt_clust_9="25.64218"></scales>
<clustering>
<clus scale="   25.642">  2  9  1 -1</clus>
<clus scale="   89.898">  5  6 -1 -1</clus>
<clus scale="   91.020">  7  8 -1 -1</clus>
<clus scale="  100.981">  2  5  1 -1</clus>
<clus scale="   25.642">  2  5  1 -1</clus>
</clustering>
</event>
<event>
 9    1  0.1426358E-005  0.9578116E+02  0.7546771E-02  0.1290299E+00
         21   -1    0    0  501  502  0.00000000000E+00  0.00000000000E+00  0.41043704795E+03  0.41043704795E+03  0.00000000000E+00 0. -1.
          2   -1    0    0  502    0 -0.00000000000E+00 -0.00000000000E+00 -0.31633564188E+02  0.31633564188E+02  0.00000000000E+00 0. -1.
         23    2    1    2    0    0  0.11856638779E+02 -0.79001144601E+01  0.12874664582E+03  0.15774079646E+03  0.90019266633E+02 0.  0.
         23    2    1    2    0    0 -0.40881932779E+02  0.20388077040E+02  0.17281516142E+03  0.20087507650E+03  0.91644477335E+02 0.  0.
        -11    1    3    3    0    0  0.41515807710E+02 -0.23729915897E+02  0.38358470343E+02  0.61302882847E+02  0.00000000000E+00 0.  1.
         11    1    3    3    0    0 -0.29659168931E+02  0.15829801437E+02  0.90388175477E+02  0.96437913609E+02  0.00000000000E+00 0. -1.
        -11    1    4    4    0    0 -0.84711057056E+00 -0.31932820589E+02  0.87058884550E+02  0.92734416514E+02  0.00000000000E+00 0.  1.
         11    1    4    4    0    0 -0.40034822209E+02  0.52320897629E+02  0.85756276874E+02  0.10814065998E+03  0.00000000000E+00 0. -1.
          2    1    1    2  501    0  0.29025294000E+02 -0.12487962580E+02  0.77241676516E+02  0.83454739184E+02  0.00000000000E+00 0. -1.
<scales pt_clust_5="13000.00000" pt_clust_6="13000.00000" pt_clust_7="13000.00000" pt_clust_8="13000.00000" pt_clust_9="31.59774"></scales>
<clustering>
<clus scale="   31.598">  1  9  2 -1</clus>
<clus scale="   90.019">  5  6 -1 -1</clus>
<clus scale="   91.644">  7  8 -1 -1</clus>
<clus scale="   94.227">  2  5  1 -1</clus>
<clus scale="   31.598">  1  5  2 -1</clus>
</clustering>
</event>
<event>
 9    1  0.1426358E-005  0.9645282E+02  0.7546771E-02  0.1290220E+00
         -2   -1    0    0    0  501 -0.00000000000E+00  0.00000000000E+00  0.10806938083E+03  0.10806938083E+03  0.00000000000E+00 0.  1.
         21   -1    0    0  501  502  0.00000000000E+00 -0.00000000000E+00 -0.15173606369E+03  0.15173606369E+03  0.00000000000E+00 0.  1.
         23    2    1    2    0    0  0.77757888778E+01  0.31850251743E+02  0.36540844480E+02  0.10510211813E+03  0.92931805591E+02 0.  0.
         23    2    1    2    0    0 -0.11045703842E+02 -0.11429969181E+02 -0.21795929503E+02  0.92738860405E+02  0.88728698387E+02 0.  0.
        -11    1    3    3    0    0 -0.14705472248E+02 -0.16087249201E+02  0.46382209503E+02  0.51248022979E+02  0.00000000000E+00 0.  1.
         11    1    3    3    0    0  0.22481261126E+02  0.47937500944E+02 -0.98413650235E+01  0.53854095147E+02  0.00000000000E+00 0. -1.
        -11    1    4    4    0    0  0.29852191112E+02 -0.20240117430E+02 -0.33575504942E+02  0.49276061124E+02  0.00000000000E+00 0.  1.
         11    1    4    4    0    0 -0.40897894953E+02  0.88101482486E+01  0.11779575440E+02  0.43462799281E+02  0.00000000000E+00 0. -1.
         -2    1    1    2    0  502  0.32699149642E+01 -0.20420282562E+02 -0.58411597840E+02  0.61964465994E+02  0.00000000000E+00 0.  1.
<scales pt_clust_5="13000.00000" pt_clust_6="13000.00000" pt_clust_7="13000.00000" pt_clust_8="13000.00000" pt_clust_9="20.68043"></scales>
<clustering>
<clus scale="   20.680">  2  9  1 -1</clus>
<clus scale="   88.729">  7  8 -1 -1</clus>
<clus scale="   92.410">  2  7  1 -1</clus>
<clus scale="   92.932">  5  6 -1 -1</clus>
<clus scale="   20.680">  2  5  1 -1</clus>
</clustering>
</event>
<event>
 9    1  0.1426358E-005  0.9419428E+02  0.7546771E-02  0.1294060E+00
         21   -1    0    0  501  502  0.00000000000E+00  0.00000000000E+00  0.96572988893E+02  0.96572988893E+02  0.00000000000E+00 0. -1.
          1   -1    0    0  502    0 -0.00000000000E+00 -0.00000000000E+00 -0.29192787132E+03  0.29192787132E+03  0.00000000000E+00 0. -1.
         23    2    1    2    0    0 -0.31978076755E+02  0.28370849068E+01 -0.18856424549E+03  0.21215432776E+03  0.91773294952E+02 0.  0.
         23    2    1    2    0    0 -0.18410880529E+02 -0.32401119215E+02 -0.44307682203E+02  0.10691593525E+03  0.89883555008E+02 0.  0.
        -11    1    4    4    0    0 -0.54551624750E+02 -0.26510691232E+02 -0.26275681005E+02  0.66099227868E+02  0.00000000000E+00 0.  1.
         11    1    4    4    0    0  0.36140744221E+02 -0.58904279830E+01 -0.18032001199E+02  0.40816707387E+02  0.00000000000E+00 0. -1.
        -11    1    3    3    0    0 -0.19267289732E+02 -0.38844262070E+02 -0.14158920946E+03  0.14807973995E+03  0.00000000000E+00 0. -1.
         11    1    3    3    0    0 -0.12710787023E+02  0.41681346977E+02 -0.46975036032E+02  0.64074587808E+02  0.00000000000E+00 0.  1.
          1    1    1    2  501    0  0.50388957284E+02  0.29564034309E+02  0.37517045272E+02  0.69430597194E+02  0.00000000000E+00 0. -1.
<scales pt_clust_5="13000.00000" pt_clust_6="13000.00000" pt_clust_7="13000.00000" pt_clust_8="13000.00000" pt_clust_9="58.42156"></scales>
<clustering>
<clus scale="   58.422">  1  9  2 -1</clus>
<clus scale="   89.884">  5  6 -1 -1</clus>
<clus scale="   91.773">  7  8 -1 -1</clus>
<clus scale="   92.354">  1  5  2 -1</clus>
<clus scale="   58.422">  1  5  2 -1</clus>
</clustering>
</event>
<event>
 9    1  0.1426358E-005  0.1811216E+03  0.7546771E-02  0.1167062E+00
         21   -1    0    0  501  502  0.00000000000E+00  0.00000000000E+00  0.14964930825E+03  0.14964930825E+03  0.00000000000E+00 0.  1.
         -3   -1    0    0    0  501 -0.00000000000E+00 -0.00000000000E+00 -0.87976242967E+03  0.87976242967E+03  0.00000000000E+00 0.  1.
         23    2    1    2    0    0  0.81324325555E+02 -0.13261433603E+03 -0.56159330002E+03  0.58952212124E+03  0.89157662353E+02 0.  0.
         23    2    1    2    0    0 -0.12023201943E+03  0.10783525387E+03 -0.27036527541E+03  0.32808484013E+03  0.91967927577E+02 0.  0.
        -11    1    4    4    0    0 -0.10155239943E+03  0.85356377922E+02 -0.13376327069E+03  0.18839111886E+03  0.00000000000E+00 0. -1.
         11    1    4    4    0    0 -0.18679620001E+02  0.22478875953E+02 -0.13660200472E+03  0.13969372127E+03  0.00000000000E+00 0.  1.
        -11    1    3    3    0    0  0.10033735012E+03 -0.10071558547E+03 -0.44602522180E+03  0.46813428786E+03  0.00000000000E+00 0.  1.
         11    1    3    3    0    0 -0.19013024560E+02 -0.31898750560E+02 -0.11556807822E+03  0.12138783339E+03  0.00000000000E+00 0. -1.
         -3    1    1    2    0  502  0.38907693876E+02  0.24779082158E+02  0.10184545401E+03  0.11180477655E+03  0.00000000000E+00 0.  1.
<scales pt_clust_5="13000.00000" pt_clust_6="13000.00000" pt_clust_7="13000.00000" pt_clust_8="13000.00000" pt_clust_9="46.12821"></scales>
<clustering>
<clus scale="   46.128">  1  9  2 -1</clus>
<clus scale="   89.158">  7  8 -1 -1</clus>
<clus scale="   91.968">  5  6 -1 -1</clus>
<clus scale="  179.711">  2  7  1 -1</clus>
<clus scale="   46.128">  1  5  2 -1</clus>
</clustering>
</event>
<event>
 9    1  0.1426358E-005  0.1336246E+03  0.7546771E-02  0.1222292E+00
          1   -1    0    0  502    0 -0.00000000000E+00  0.00000000000E+00  0.76395344490E+02  0.76395344490E+02  0.00000000000E+00 0. -1.
         21   -1    0    0  501  502  0.00000000000E+00 -0.00000000000E+00 -0.53834042743E+03  0.53834042743E+03  0.00000000000E+00 0. -1.
         23    2    1    2    0    0  0.78365259059E+02 -0.29639459087E+02 -0.98292481453E+02  0.15868280755E+03  0.92191160847E+02 0.  0.
         23    2    1    2    0    0 -0.11090592644E+03  0.81999739228E+02 -0.35761291721E+03  0.39410966969E+03  0.91713420124E+02 0.  0.
        -13    1    3    3    0    0  0.51562336740E+02  0.25977965688E+02 -0.70087554076E+02  0.90806357199E+02  0.00000000000E+00 0. -1.
         13    1    3    3    0    0  0.26802922319E+02 -0.55617424775E+02 -0.28204927377E+02  0.67876450347E+02  0.00000000000E+00 0.  1.
        -13    1    4    4    0    0 -0.10937024281E+03  0.30031408118E+02 -0.25460530243E+03  0.27872494598E+03  0.00000000000E+00 0. -1.
         13    1    4    4    0    0 -0.15356836383E+01  0.51968331110E+02 -0.10300761478E+03  0.11538472371E+03  0.00000000000E+00 0.  1.
          1    1    1    2  501    0  0.32540667385E+02 -0.52360280141E+02 -0.60396842748E+01  0.61943294685E+02  0.00000000000E+00 0. -1.
<scales pt_clust_5="13000.00000" pt_clust_6="13000.00000" pt_clust_7="13000.00000" pt_clust_8="13000.00000" pt_clust_9="61.64818"></scales>
<clustering>
<clus scale="   61.648">  2  9  1 -1</clus>
<clus scale="   91.713">  7  8 -1 -1</clus>
<clus scale="   92.191">  5  6 -1 -1</clus>
<clus scale="  133.295">  2  7  1 -1</clus>
<clus scale="   61.648">  2  5  1 -1</clus>
</clustering>
</event>
<event>
 9    1  0.1426358E-005  0.1075444E+03  0.7546771E-02  0.1265295E+00
         -1   -1    0    0    0  501 -0.00000000000E+00  0.00000000000E+00  0.29068396705E+03  0.29068396705E+03  0.00000000000E+00 0.  1.
         21   -1    0    0  501  502  0.00000000000E+00 -0.00000000000E+00 -0.78406374095E+02  0.78406374095E+02  0.00000000000E+00 0.  1.
         23    2    1    2    0    0 -0.46727058692E+02  0.42192412351E+02  0.18281017155E+03  0.21389325864E+03  0.91472124684E+02 0.  0.
         23    2    1    2    0    0  0.23651402331E+02 -0.39260261863E+02  0.58771400201E+02  0.11778309319E+03  0.91203193841E+02 0.  0.
        -13    1    4    4    0    0  0.47696358833E+02  0.42274082468E+01  0.11603430788E+02  0.49269191514E+02  0.00000000000E+00 0. -1.
         13    1    4    4    0    0 -0.24044956503E+02 -0.43487670110E+02  0.47167969413E+02  0.68513901679E+02  0.00000000000E+00 0.  1.
        -13    1    3    3    0    0 -0.53702661168E+02 -0.10536148975E+02  0.11784459571E+03  0.12993203989E+03  0.00000000000E+00 0.  1.
         13    1    3    3    0    0  0.69756024762E+01  0.52728561326E+02  0.64965575843E+02  0.83961218750E+02  0.00000000000E+00 0. -1.
         -1    1    1    2    0  502  0.23075656362E+02 -0.29321504878E+01 -0.29303978798E+02  0.37413989314E+02  0.00000000000E+00 0.  1.
<scales pt_clust_5="13000.00000" pt_clust_6="13000.00000" pt_clust_7="13000.00000" pt_clust_8="13000.00000" pt_clust_9="23.26120"></scales>
<clustering>
<clus scale="   23.261">  2  9  1 -1</clus>
<clus scale="   91.203">  5  6 -1 -1</clus>
<clus scale="   91.472">  7  8 -1 -1</clus>
<clus scale="  107.316">  2  5  1 -1</clus>
<clus scale="   23.261">  2  5  1 -1</clus>
</clustering>
</event>
<event>
 9    1  0.2010923E-005  0.9668497E+02  0.7546771E-02  0.1288644E+00
         21   -1    0    0  501  502  0.00000000000E+00  0.00000000000E+00  0.18013173986E+03  0.18013173986E+03  0.00000000000E+00 0. -1.
         -1   -1    0    0    0  501 -0.00000000000E+00 -0.00000000000E+00 -0.17919216003E+03  0.17919216003E+03  0.00000000000E+00 0.  1.
         23    2    1    2    0    0 -0.24363580763E+02 -0.12596192353E+01 -0.12531208409E+03  0.15614062781E+03  0.89897755960E+02 0.  0.
         23    2    1    2    0    0  0.56417683795E+02 -0.19303954689E+02  0.55954304831E+02  0.12323300760E+03  0.92194860065E+02 0.  0.
        -11    1    3    3    0    0  0.21175178326E+02 -0.29179724948E+02 -0.72783141914E+02  0.81223335761E+02  0.00000000000E+00 0. -1.
         11    1    3    3    0    0 -0.45538759089E+02  0.27920105713E+02 -0.52528942176E+02  0.74917292052E+02  0.00000000000E+00 0.  1.
        -11    1    4    4    0    0  0.26851511567E+02 -0.22839303332E+02 -0.20782621782E+02  0.40921324737E+02  0.00000000000E+00 0.  1.
         11    1    4    4    0    0  0.29566172227E+02  0.35353486422E+01  0.76736926613E+02  0.82311682866E+02  0.00000000000E+00 0. -1.
         -1    1    1    2    0  502 -0.32054103032E+02  0.20563573925E+02  0.70297359095E+02  0.79950264474E+02  0.00000000000E+00 0.  1.
<scales pt_clust_5="13000.00000" pt_clust_6="13000.00000" pt_clust_7="13000.00000" pt_clust_8="13000.00000" pt_clust_9="38.08315"></scales>
<clustering>
<clus scale="   38.083">  1  9  2 -1</clus>
<clus scale="   89.898">  5  6 -1 -1</clus>
<clus scale="   92.195">  7  8 -1 -1</clus>
<clus scale="   94.497">  2  5  1 -1</clus>
<clus scale="   38.083">  1  5  2 -1</clus>
</clustering>
</event>
<event>
 9    1  0.1426358E-005  0.9256996E+02  0.7546771E-02  0.1297380E+00
         -2   -1    0    0    0  501 -0.00000000000E+00  0.00000000000E+00  0.14981450977E+03  0.14981450977E+03  0.00000000000E+00 0.  1.
         21   -1    0    0  501  502  0.00000000000E+00 -0.00000000000E+00 -0.82701384732E+02  0.82701384732E+02  0.00000000000E+00 0. -1.
         23    2    1    2    0    0 -0.80761240462E+01  0.12365726513E+02  0.67951109794E+02  0.11468403383E+03  0.91197255006E+02 0.  0.
         23    2    1    2    0    0  0.93358179759E+00  0.11404374644E+02 -0.15096321569E+01  0.93002750163E+02  0.92283807965E+02 0.  0.
        -11    1    4    4    0    0 -0.25885719982E+02 -0.31445915221E+02 -0.95024260225E+01  0.41823584057E+02  0.00000000000E+00 0.  1.
         11    1    4    4    0    0  0.26819301780E+02  0.42850289865E+02  0.79927938655E+01  0.51179166106E+02  0.00000000000E+00 0. -1.
        -11    1    3    3    0    0 -0.36107686711E+02  0.34057820435E+02  0.60864835593E+02  0.78538069650E+02  0.00000000000E+00 0.  1.
         11    1    3    3    0    0  0.28031562665E+02 -0.21692093923E+02  0.70862742009E+01  0.36145964177E+02  0.00000000000E+00 0. -1.
         -2    1    1    2    0  502  0.71425422486E+01 -0.23770101157E+02  0.67164740239E+00  0.24829110516E+02  0.00000000000E+00 0.  1.
<scales pt_clust_5="13000.00000" pt_clust_6="13000.00000" pt_clust_7="13000.00000" pt_clust_8="13000.00000" pt_clust_9="24.82002"></scales>
<clustering>
<clus scale="   24.820">  2  9  1 -1</clus>
<clus scale="   91.197">  7  8 -1 -1</clus>
<clus scale="   91.487">  1  7  2 -1</clus>
<clus scale="   92.284">  5  6 -1 -1</clus>
<clus scale="   24.820">  2  5  1 -1</clus>
</clustering>
</event>
<event>
 9    1  0.1426358E-005  0.1284324E+03  0.7546771E-02  0.1241451E+00
         21   -1    0    0  501  502  0.00000000000E+00  0.00000000000E+00  0.55154996695E+02  0.55154996695E+02  0.00000000000E+00 0. -1.
         -3   -1    0    0    0  501 -0.00000000000E+00 -0.00000000000E+00 -0.59003253694E+03  0.59003253694E+03  0.00000000000E+00 0.  1.
         23    2    1    2    0    0  0.67721440726E+01  0.39165621439E+02 -0.32204572008E+03  0.33757099467E+03  0.93064078906E+02 0.  0.
         23    2    1    2    0    0  0.19182974736E+02  0.64792540746E+02 -0.11614816223E+03  0.16329503194E+03  0.92783683977E+02 0.  0.
        -13    1    3    3    0    0  0.46391287893E+02  0.31754806657E+02 -0.23523417651E+03  0.24185871317E+03  0.00000000000E+00 0. -1.
         13    1    3    3    0    0 -0.39619143820E+02  0.74108147814E+01 -0.86811543568E+02  0.95712281497E+02  0.00000000000E+00 0.  1.
        -13    1    4    4    0    0  0.55755913212E+02  0.28841721159E+02 -0.54740919472E+02  0.83289465133E+02  0.00000000000E+00 0. -1.
         13    1    4    4    0    0 -0.36572938476E+02  0.35950819587E+02 -0.61407242758E+02  0.80005566811E+02  0.00000000000E+00 0.  1.
         -3    1    1    2    0  502 -0.25955118808E+02 -0.10395816219E+03 -0.96683657940E+02  0.14432150702E+03  0.00000000000E+00 0.  1.
<scales pt_clust_5="13000.00000" pt_clust_6="13000.00000" pt_clust_7="13000.00000" pt_clust_8="13000.00000" pt_clust_9="88.80358"></scales>
<clustering>
<clus scale="   92.784">  7  8 -1 -1</clus>
<clus scale="   93.064">  5  6 -1 -1</clus>
<clus scale="  101.196">  2  5  1 -1</clus>
<clus scale="   88.804">  1  9  2 -1</clus>
<clus scale="   88.804">  1  5  2 -1</clus>
</clustering>
</event>
<event>
 9    1  0.1426358E-005  0.1334904E+03  0.7546771E-02  0.1222689E+00
          2   -1    0    0  502    0 -0.00000000000E+00  0.00000000000E+00  0.37975790478E+03  0.37975790478E+03  0.00000000000E+00 0. -1.
         21   -1    0    0  501  502  0.00000000000E+00 -0.00000000000E+00 -0.65905854579E+02  0.65905854579E+02  0.00000000000E+00 0.  1.
         23    2    1    2    0    0  0.63128066701E+02 -0.64683084728E+02  0.17201472351E+03  0.21387561363E+03  0.89356917720E+02 0.  0.
         23    2    1    2    0    0 -0.85893827176E+02  0.70870125809E+02  0.15029682030E+03  0.20672577635E+03  0.88011863608E+02 0.  0.
        -11    1    4    4    0    0  0.51132710929E+01  0.44109720627E+02  0.67599695414E+02  0.80879736740E+02  0.00000000000E+00 0.  1.
         11    1    4    4    0    0 -0.91007098269E+02  0.26760405182E+02  0.82697124883E+02  0.12584603961E+03  0.00000000000E+00 0. -1.
        -13    1    3    3    0    0  0.84763831317E+02 -0.62533100785E+02  0.14111062879E+03  0.17608948109E+03  0.00000000000E+00 0. -1.
         13    1    3    3    0    0 -0.21635764617E+02 -0.21499839432E+01  0.30904094724E+02  0.37786132539E+02  0.00000000000E+00 0.  1.
          2    1    1    2  501    0  0.22765760476E+02 -0.61870410802E+01 -0.84594936039E+01  0.25062369389E+02  0.00000000000E+00 0. -1.
<scales pt_clust_5="13000.00000" pt_clust_6="13000.00000" pt_clust_7="13000.00000" pt_clust_8="13000.00000" pt_clust_9="23.59151"></scales>
<clustering>
<clus scale="   23.592">  2  9  1 -1</clus>
<clus scale="   88.012">  5  6 -1 -1</clus>
<clus scale="   89.357">  7  8 -1 -1</clus>
<clus scale="  132.594">  2  5  1 -1</clus>
<clus scale="   23.592">  2  5  1 -1</clus>
</clustering>
</event>
<event>
 9    1  0.1426358E-005  0.1084692E+03  0.7546771E-02  0.1264000E+00
         21   -1    0    0  501  502  0.00000000000E+00  0.00000000000E+00  0.19005041546E+03  0.19005041546E+03  0.00000000000E+00 0. -1.
          1   -1    0    0  502    0 -0.00000000000E+00 -0.00000000000E+00 -0.23465733395E+03  0.23465733395E+03  0.00000000000E+00 0. -1.
         23    2    1    2    0    0  0.45289907167E+02  0.16604526932E+01 -0.12610278598E+03  0.16244860832E+03  0.91835205220E+02 0.  0.
         23    2    1    2    0    0 -0.12309870733E+03  0.40610880659E+02  0.33560583313E+02  0.16156720261E+03  0.90416330567E+02 0.  0.
        -11    1    3    3    0    0 -0.20682497389E+02 -0.13030370348E+01 -0.71801693973E+00  0.20735938659E+02  0.00000000000E+00 0. -1.
         11    1    3    3    0    0  0.65972404556E+02  0.29634897281E+01 -0.12538476904E+03  0.14171266966E+03  0.00000000000E+00 0.  1.
        -13    1    4    4    0    0 -0.36965745273E+02 -0.11487242391E+02 -0.24061609587E+02  0.45578329469E+02  0.00000000000E+00 0.  1.
         13    1    4    4    0    0 -0.86132962056E+02  0.52098123050E+02  0.57622192900E+02  0.11598887314E+03  0.00000000000E+00 0. -1.
          1    1    1    2  501    0  0.77808800161E+02 -0.42271333352E+02  0.47935284186E+02  0.10069193848E+03  0.00000000000E+00 0. -1.
<scales pt_clust_5="13000.00000" pt_clust_6="13000.00000" pt_clust_7="13000.00000" pt_clust_8="13000.00000" pt_clust_9="88.54984"></scales>
<clustering>
<clus scale="   88.550">  1  9  2 -1</clus>
<clus scale="   90.416">  7  8 -1 -1</clus>
<clus scale="   91.835">  5  6 -1 -1</clus>
<clus scale="  107.271">  1  7  2 -1</clus>
<clus scale="   88.550">  1  5  2 -1</clus>
</clustering>
</event>
<event>
 9    1  0.1426358E-005  0.1155829E+03  0.7546771E-02  0.1252980E+00
         21   -1    0    0  501  502  0.00000000000E+00  0.00000000000E+00  0.26459335486E+03  0.26459335486E+03  0.00000000000E+00 0. -1.
          3   -1    0    0  502    0 -0.00000000000E+00 -0.00000000000E+00 -0.35593532480E+03  0.35593532480E+03  0.00000000000E+00 0. -1.
         23    2    1    2    0    0  0.31011602637E+02 -0.31219648041E+02 -0.12036574441E+03  0.15565891993E+03  0.88348180544E+02 0.  0.
         23    2    1    2    0    0 -0.42103383797E+02  0.82604046374E+02 -0.19436461727E+03  0.23537954737E+03  0.95025278063E+02 0.  0.
        -11    1    3    3    0    0  0.57901706716E+01 -0.20806786944E+02  0.90360653243E+01  0.23411512892E+02  0.00000000000E+00 0.  1.
         11    1    3    3    0    0  0.25221431965E+02 -0.10412861097E+02 -0.12940180973E+03  0.13224740704E+03  0.00000000000E+00 0. -1.
        -11    1    4    4    0    0 -0.69373348673E+02  0.74312080991E+02 -0.13034857615E+03  0.16530486439E+03  0.00000000000E+00 0.  1.
         11    1    4    4    0    0  0.27269964876E+02  0.82919653827E+01 -0.64016041124E+02  0.70074682985E+02  0.00000000000E+00 0. -1.
          3    1    1    2  501    0  0.11091781160E+02 -0.51384398333E+02  0.22338839174E+03  0.22949021235E+03  0.00000000000E+00 0. -1.
<scales pt_clust_5="13000.00000" pt_clust_6="13000.00000" pt_clust_7="13000.00000" pt_clust_8="13000.00000" pt_clust_9="52.56790"></scales>
<clustering>
<clus scale="   52.568">  1  9  2 -1</clus>
<clus scale="   88.348">  5  6 -1 -1</clus>
<clus scale="   95.025">  7  8 -1 -1</clus>
<clus scale="  110.159">  2  5  1 -1</clus>
<clus scale="   52.568">  1  5  2 -1</clus>
</clustering>
</event>
<event>
 9    1  0.1426358E-005  0.1179890E+03  0.7546771E-02  0.1247153E+00
         -2   -1    0    0    0  501 -0.00000000000E+00  0.00000000000E+00  0.24076580584E+03  0.24076580584E+03  0.00000000000E+00 0.  1.
         21   -1    0    0  501  502  0.00000000000E+00 -0.00000000000E+00 -0.10696815925E+03  0.10696815925E+03  0.00000000000E+00 0.  1.
         23    2    1    2    0    0  0.27714555870E+02 -0.57512111045E+02  0.91500754384E+02  0.14406943751E+03  0.91147546575E+02 0.  0.
         23    2    1    2    0    0 -0.35613431850E+02  0.81445738134E+02  0.86584559211E+02  0.15270760267E+03  0.89000006908E+02 0.  0.
        -11    1    4    4    0    0 -0.12235398898E+02 -0.17220008146E+02  0.29692134893E+02  0.36439765932E+02  0.00000000000E+00 0. -1.
         11    1    4    4    0    0 -0.23378032952E+02  0.98665746280E+02  0.56892424319E+02  0.11626783673E+03  0.00000000000E+00 0.  1.
        -11    1    3    3    0    0 -0.16930153198E+02 -0.24359246351E+02  0.82584806662E+02  0.87751086954E+02  0.00000000000E+00 0.  1.
         11    1    3    3    0    0  0.44644709069E+02 -0.33152864694E+02  0.89159477223E+01  0.56318350553E+02  0.00000000000E+00 0. -1.
         -2    1    1    2    0  502  0.78988759796E+01 -0.23933627089E+02 -0.44287667009E+02  0.50956924911E+02  0.00000000000E+00 0.  1.
<scales pt_clust_5="13000.00000" pt_clust_6="13000.00000" pt_clust_7="13000.00000" pt_clust_8="13000.00000" pt_clust_9="25.20339"></scales>
<clustering>
<clus scale="   25.203">  2  9  1 -1</clus>
<clus scale="   89.000">  5  6 -1 -1</clus>
<clus scale="   91.148">  7  8 -1 -1</clus>
<clus scale="  116.338">  2  5  1 -1</clus>
<clus scale="   25.203">  2  5  1 -1</clus>
</clustering>
</event>
<event>
 9    1  0.1426358E-005  0.1166632E+03  0.7546771E-02  0.1250413E+00
         21   -1    0    0  501  502  0.00000000000E+00  0.00000000000E+00  0.48709484101E+02  0.48709484101E+02  0.00000000000E+00 0. -1.
          1   -1    0    0  502    0 -0.00000000000E+00 -0.00000000000E+00 -0.68792841518E+03  0.68792841518E+03  0.00000000000E+00 0. -1.
         23    2    1    2    0    0  0.51810382297E+02  0.14998639466E+02 -0.33125487439E+03  0.34786226659E+03  0.91482729567E+02 0.  0.
         23    2    1    2    0    0 -0.83775756886E+02 -0.69589350954E+01 -0.32673673312E+03  0.35084364883E+03  0.96268213526E+02 0.  0.
        -13    1    4    4    0    0 -0.67916487674E+02  0.29616178311E+02 -0.27889577346E+03  0.28856995646E+03  0.00000000000E+00 0. -1.
         13    1    4    4    0    0 -0.15859269211E+02 -0.36575113407E+02 -0.47840959659E+02  0.62273692373E+02  0.00000000000E+00 0.  1.
        -13    1    3    3    0    0  0.46893237337E+02 -0.32834057210E+02 -0.20192402841E+03  0.20988178642E+03  0.00000000000E+00 0.  1.
         13    1    3    3    0    0  0.49171449593E+01  0.47832696677E+02 -0.12933084598E+03  0.13798048017E+03  0.00000000000E+00 0. -1.
          1    1    1    2  501    0  0.31965374589E+02 -0.80397043710E+01  0.18772676434E+02  0.37931983859E+02  0.00000000000E+00 0. -1.
<scales pt_clust_5="13000.00000" pt_clust_6="13000.00000" pt_clust_7="13000.00000" pt_clust_8="13000.00000" pt_clust_9="32.96092"></scales>
<clustering>
<clus scale="   32.961">  1  9  2 -1</clus>
<clus scale="   91.483">  7  8 -1 -1</clus>
<clus scale="   96.268">  5  6 -1 -1</clus>
<clus scale="  112.747">  2  7  1 -1</clus>
<clus scale="   32.961">  1  5  2 -1</clus>
</clustering>
</event>
<event>
 9    1  0.1426358E-005  0.1015335E+03  0.7546771E-02  0.1279732E+00
          1   -1    0    0  502    0 -0.00000000000E+00  0.00000000000E+00  0.32556505083E+03  0.32556505083E+03  0.00000000000E+00 0. -1.
         21   -1    0    0  501  502  0.00000000000E+00 -0.00000000000E+00 -0.11510748538E+03  0.11510748538E+03  0.00000000000E+00 0.  1.
         23    2    1    2    0    0  0.34868422102E+02  0.27415548851E+02  0.27261128085E+03  0.29053514190E+03  0.90146209312E+02 0.  0.
         23    2    1    2    0    0 -0.50535168278E+02 -0.40771833293E+02 -0.27892291712E+02  0.11016637452E+03  0.84513339271E+02 0.  0.
        -11    1    4    4    0    0 -0.70626268793E+02 -0.24516650610E+02 -0.36141616816E+02  0.83038259055E+02  0.00000000000E+00 0.  1.
         11    1    4    4    0    0  0.20091100515E+02 -0.16255182683E+02  0.82493251041E+01  0.27128115464E+02  0.00000000000E+00 0. -1.
        -11    1    3    3    0    0 -0.17585635103E+02 -0.14085918920E+02  0.23319752723E+02  0.32426509846E+02  0.00000000000E+00 0.  1.
         11    1    3    3    0    0  0.52454057205E+02  0.41501467770E+02  0.24929152812E+03  0.25810863205E+03  0.00000000000E+00 0. -1.
          1    1    1    2  501    0  0.15666746176E+02  0.13356284442E+02 -0.34261423684E+02  0.39971019786E+02  0.00000000000E+00 0. -1.
<scales pt_clust_5="13000.00000" pt_clust_6="13000.00000" pt_clust_7="13000.00000" pt_clust_8="13000.00000" pt_clust_9="20.58731"></scales>
<clustering>
<clus scale="   20.587">  2  9  1 -1</clus>
<clus scale="   84.513">  5  6 -1 -1</clus>
<clus scale="   90.146">  7  8 -1 -1</clus>
<clus scale="   96.567">  2  5  1 -1</clus>
<clus scale="   20.587">  2  5  1 -1</clus>
</clustering>
</event>
<event>
 9    1  0.1426358E-005  0.1504390E+03  0.7546771E-02  0.1203718E+00
         -2   -1    0    0    0  501 -0.00000000000E+00  0.00000000000E+00  0.11099366806E+03  0.11099366806E+03  0.00000000000E+00 0.  1.
         21   -1    0    0  501  502  0.00000000000E+00 -0.00000000000E+00 -0.27692812574E+03  0.27692812574E+03  0.00000000000E+00 0. -1.
         23    2    1    2    0    0  0.79381024639E+02 -0.17355585481E+02 -0.56037704917E+02  0.13613537381E+03  0.93755278307E+02 0.  0.
         23    2    1    2    0    0 -0.12796099023E+03  0.67223298089E+01 -0.55473695806E+02  0.17806431807E+03  0.11050052354E+03 0.  0.
        -13    1    4    4    0    0 -0.18858835264E+02  0.48032259283E+02 -0.84805412077E+01  0.52294102712E+02  0.00000000000E+00 0.  1.
         13    1    4    4    0    0 -0.10910215497E+03 -0.41309929474E+02 -0.46993154598E+02  0.12577021536E+03  0.00000000000E+00 0. -1.
        -13    1    3    3    0    0 -0.11109271486E+02 -0.29324103703E+02 -0.56171767548E+01  0.31857050171E+02  0.00000000000E+00 0. -1.
         13    1    3    3    0    0  0.90490296125E+02  0.11968518222E+02 -0.50420528162E+02  0.10427832364E+03  0.00000000000E+00 0.  1.
         -2    1    1    2    0  502  0.48579965591E+02  0.10633255672E+02 -0.54423056956E+02  0.73722101920E+02  0.00000000000E+00 0.  1.
<scales pt_clust_5="13000.00000" pt_clust_6="13000.00000" pt_clust_7="13000.00000" pt_clust_8="13000.00000" pt_clust_9="49.73006"></scales>
<clustering>
<clus scale="   49.730">  2  9  1 -1</clus>
<clus scale="   93.755">  7  8 -1 -1</clus>
<clus scale="  110.501">  5  6 -1 -1</clus>
<clus scale="  138.606">  1  7  2 -1</clus>
<clus scale="   49.730">  2  5  1 -1</clus>
</clustering>
</event>
<event>
 9    1  0.1426358E-005  0.1329159E+03  0.7546771E-02  0.1230614E+00
          2   -1    0    0  502    0 -0.00000000000E+00  0.00000000000E+00  0.16450593459E+04  0.16450593459E+04  0.00000000000E+00 0. -1.
         21   -1    0    0  501  502  0.00000000000E+00 -0.00000000000E+00 -0.21195121349E+02  0.21195121349E+02  0.00000000000E+00 0. -1.
         23    2    1    2    0    0  0.39801726840E+02  0.21981951111E+01  0.47320590929E+03  0.48370907091E+03  0.91987081584E+02 0.  0.
         23    2    1    2    0    0 -0.12952238742E+03  0.18114431592E+02  0.61827420980E+03  0.64227209930E+03  0.11465718277E+03 0.  0.
        -11    1    3    3    0    0  0.40976129344E+01  0.44547089267E+02  0.19942015658E+03  0.20437620322E+03  0.00000000000E+00 0.  1.
         11    1    3    3    0    0  0.35704113905E+02 -0.42348894156E+02  0.27378575271E+03  0.27933286769E+03  0.00000000000E+00 0. -1.
        -13    1    4    4    0    0 -0.17594602550E+02 -0.39134251473E+02  0.23561724812E+03  0.23949226979E+03  0.00000000000E+00 0.  1.
         13    1    4    4    0    0 -0.11192778487E+03  0.57248683065E+02  0.38265696168E+03  0.40277982951E+03  0.00000000000E+00 0. -1.
          2    1    1    2  501    0  0.89720660578E+02 -0.20312626703E+02  0.53238410542E+03  0.54027329699E+03  0.00000000000E+00 0. -1.
<scales pt_clust_5="13000.00000" pt_clust_6="13000.00000" pt_clust_7="13000.00000" pt_clust_8="13000.00000" pt_clust_9="91.99135"></scales>
<clustering>
<clus scale="   91.987">  5  6 -1 -1</clus>
<clus scale="   91.991">  2  9  1 -1</clus>
<clus scale="  113.939">  1  5  2 -1</clus>
<clus scale="  114.657">  7  8 -1 -1</clus>
<clus scale="   91.991">  2  5  1 -1</clus>
</clustering>
</event>
<event>
 9    1  0.1426358E-005  0.9621022E+02  0.7546771E-02  0.1288642E+00
         -2   -1    0    0    0  501 -0.00000000000E+00  0.00000000000E+00  0.48497961262E+03  0.48497961262E+03  0.00000000000E+00 0.  1.
         21   -1    0    0  501  502  0.00000000000E+00 -0.00000000000E+00 -0.26257909423E+02  0.26257909423E+02  0.00000000000E+00 0. -1.
         23    2    1    2    0    0  0.22987655769E+01 -0.24157608527E+02  0.27028925155E+03  0.28642553357E+03  0.91621135135E+02 0.  0.
         23    2    1    2    0    0 -0.23703486979E+02  0.31233978107E+02  0.14985826659E+03  0.18013308005E+03  0.91940251149E+02 0.  0.
        -11    1    3    3    0    0 -0.74247122737E+01  0.34305406608E+02  0.87899722492E+02  0.94648552493E+02  0.00000000000E+00 0. -1.
         11    1    3    3    0    0  0.97234778505E+01 -0.58463015135E+02  0.18238952906E+03  0.19177698107E+03  0.00000000000E+00 0.  1.
        -13    1    4    4    0    0  0.46602377840E+00  0.33886646398E+02  0.62256184917E+01  0.34456934105E+02  0.00000000000E+00 0. -1.
         13    1    4    4    0    0 -0.24169510758E+02 -0.26526682919E+01  0.14363264809E+03  0.14567614595E+03  0.00000000000E+00 0.  1.
         -2    1    1    2    0  502  0.21404721402E+02 -0.70763695792E+01  0.38574185065E+02  0.44678908426E+02  0.00000000000E+00 0.  1.
<scales pt_clust_5="13000.00000" pt_clust_6="13000.00000" pt_clust_7="13000.00000" pt_clust_8="13000.00000" pt_clust_9="22.54411"></scales>
<clustering>
<clus scale="   22.544">  2  9  1 -1</clus>
<clus scale="   91.621">  5  6 -1 -1</clus>
<clus scale="   91.940">  7  8 -1 -1</clus>
<clus scale="   95.905">  1  5  2 -1</clus>
<clus scale="   22.544">  2  5  1 -1</clus>
</clustering>
</event>
<event>
 9    1  0.1426358E-005  0.9739812E+02  0.7546771E-02  0.1294602E+00
         21   -1    0    0  501  502  0.00000000000E+00  0.00000000000E+00  0.57779753279E+02  0.57779753279E+02  0.00000000000E+00 0. -1.
          3   -1    0    0  502    0 -0.00000000000E+00 -0.00000000000E+00 -0.23443013246E+03  0.23443013246E+03  0.00000000000E+00 0. -1.
         23    2    1    2    0    0  0.55552245456E+01  0.19154869861E+02 -0.10435625057E+03  0.14120916349E+03  0.93016295679E+02 0.  0.
         23    2    1    2    0    0 -0.30814906130E+02 -0.25702712124E+02 -0.85138198681E+02  0.12191643289E+03  0.77491392319E+02 0.  0.
        -11    1    3    3    0    0  0.17608288932E+02 -0.34622788293E+02 -0.32463198511E+02  0.50622609236E+02  0.00000000000E+00 0.  1.
         11    1    3    3    0    0 -0.12053064386E+02  0.53777658154E+02 -0.71893052057E+02  0.90586554254E+02  0.00000000000E+00 0. -1.
        -11    1    4    4    0    0 -0.43865931418E+02 -0.43750380082E+02 -0.47051436527E+02  0.77795587123E+02  0.00000000000E+00 0. -1.
         11    1    4    4    0    0  0.13051025289E+02  0.18047667958E+02 -0.38086762154E+02  0.44120845767E+02  0.00000000000E+00 0.  1.
          3    1    1    2  501    0  0.25259681584E+02  0.65478422630E+01  0.12844070063E+02  0.29084289364E+02  0.00000000000E+00 0. -1.
<scales pt_clust_5="13000.00000" pt_clust_6="13000.00000" pt_clust_7="13000.00000" pt_clust_8="13000.00000" pt_clust_9="26.09455"></scales>
<clustering>
<clus scale="   26.095">  1  9  2 -1</clus>
<clus scale="   77.491">  7  8 -1 -1</clus>
<clus scale="   82.700">  1  7  2 -1</clus>
<clus scale="   93.016">  5  6 -1 -1</clus>
<clus scale="   26.095">  1  5  2 -1</clus>
</clustering>
</event>
<event>
 9    1  0.1426358E-005  0.1030370E+03  0.7546771E-02  0.1280480E+00
          1   -1    0    0  502    0 -0.00000000000E+00  0.00000000000E+00  0.37706349048E+03  0.37706349048E+03  0.00000000000E+00 0. -1.
         21   -1    0    0  501  502  0.00000000000E+00 -0.00000000000E+00 -0.48172108019E+02  0.48172108019E+02  0.00000000000E+00 0.  1.
         23    2    1    2    0    0  0.45052667105E+02  0.11927702194E+02  0.24108871493E+03  0.25753070891E+03  0.77629148330E+02 0.  0.
         23    2    1    2    0    0 -0.55194046008E+02  0.18155135902E+02  0.81075770811E+02  0.13525375935E+03  0.91347179116E+02 0.  0.
        -11    1    4    4    0    0 -0.22169592218E+02 -0.75560824913E+01  0.89540587852E+02  0.92553239136E+02  0.00000000000E+00 0. -1.
         11    1    4    4    0    0 -0.33024453790E+02  0.25711218393E+02 -0.84648170405E+01  0.42700520218E+02  0.00000000000E+00 0.  1.
        -13    1    3    3    0    0 -0.85461305705E+01 -0.24358564476E+02  0.67696560383E+02  0.72451365058E+02  0.00000000000E+00 0.  1.
         13    1    3    3    0    0  0.53598797675E+02  0.36286266670E+02  0.17339215455E+03  0.18507934385E+03  0.00000000000E+00 0. -1.
          1    1    1    2  501    0  0.10141378903E+02 -0.30082838096E+02  0.67268967130E+01  0.32451130232E+02  0.00000000000E+00 0. -1.
<scales pt_clust_5="13000.00000" pt_clust_6="13000.00000" pt_clust_7="13000.00000" pt_clust_8="13000.00000" pt_clust_9="31.74626"></scales>
<clustering>
<clus scale="   31.746">  2  9  1 -1</clus>
<clus scale="   77.629">  7  8 -1 -1</clus>
<clus scale="   91.097">  1  7  2 -1</clus>
<clus scale="   91.347">  5  6 -1 -1</clus>
<clus scale="   31.746">  2  5  1 -1</clus>
</clustering>
</event>
<event>
 9    1  0.1426358E-005  0.1271603E+03  0.7546771E-02  0.1241240E+00
          1   -1    0    0  502    0 -0.00000000000E+00  0.00000000000E+00  0.87156892921E+03  0.87156892921E+03  0.00000000000E+00 0. -1.
         21   -1    0    0  501  502  0.00000000000E+00 -0.00000000000E+00 -0.57351031742E+02  0.57351031742E+02  0.00000000000E+00 0. -1.
         23    2    1    2    0    0 -0.66376734389E+01  0.59556662642E+02  0.23559832350E+03  0.25781935906E+03  0.85867322629E+02 0.  0.
         23    2    1    2    0    0 -0.48343263397E+02  0.64672423385E+02  0.61025023516E+02  0.13597455330E+03  0.90804362155E+02 0.  0.
        -11    1    3    3    0    0  0.32930954748E+02 -0.30660927115E+00  0.76432527998E+02  0.83225435572E+02  0.00000000000E+00 0.  1.
         11    1    3    3    0    0 -0.39568628187E+02  0.59863271913E+02  0.15916579550E+03  0.17459392349E+03  0.00000000000E+00 0. -1.
        -13    1    4    4    0    0 -0.30140098882E+02 -0.17872783891E+02  0.72272664613E+01  0.35778420103E+02  0.00000000000E+00 0.  1.
         13    1    4    4    0    0 -0.18203164516E+02  0.82545207275E+02  0.53797757054E+02  0.10019613319E+03  0.00000000000E+00 0. -1.
          1    1    1    2  501    0  0.54980936836E+02 -0.12422908603E+03  0.51759455045E+03  0.53512604859E+03  0.00000000000E+00 0. -1.
<scales pt_clust_5="13000.00000" pt_clust_6="13000.00000" pt_clust_7="13000.00000" pt_clust_8="13000.00000" pt_clust_9="89.01864"></scales>
<clustering>
<clus scale="   85.867">  5  6 -1 -1</clus>
<clus scale="   90.804">  7  8 -1 -1</clus>
<clus scale="  104.710">  1  5  2 -1</clus>
<clus scale="   89.019">  2  9  1 -1</clus>
<clus scale="   89.019">  2  5  1 -1</clus>
</clustering>
</event>
<event>
 9    1  0.1426358E-005  0.1377420E+03  0.7546771E-02  0.1235187E+00
         21   -1    0    0  501  502  0.00000000000E+00  0.00000000000E+00  0.44413694883E+02  0.44413694883E+02  0.00000000000E+00 0. -1.
          1   -1    0    0  502    0 -0.00000000000E+00 -0.00000000000E+00 -0.82074245815E+03  0.82074245815E+03  0.00000000000E+00 0. -1.
         23    2    1    2    0    0  0.61613696353E+01  0.18847273195E+02 -0.34315249197E+03  0.35558273055E+03  0.91061865417E+02 0.  0.
         23    2    1    2    0    0  0.74803053283E+02 -0.93409484978E+02 -0.32455630309E+03  0.35493494507E+03  0.79505928665E+02 0.  0.
        -11    1    4    4    0    0 -0.15471538416E+02 -0.28052957208E+02 -0.80249597182E+02  0.86407955403E+02  0.00000000000E+00 0.  1.
         11    1    4    4    0    0  0.90274591699E+02 -0.65356527770E+02 -0.24430670591E+03  0.26852698967E+03  0.00000000000E+00 0. -1.
        -13    1    3    3    0    0  0.34848780627E+02 -0.23372171115E+02 -0.14355138692E+03  0.14955833838E+03  0.00000000000E+00 0.  1.
         13    1    3    3    0    0 -0.28687410992E+02  0.42219444310E+02 -0.19960110506E+03  0.20602439217E+03  0.00000000000E+00 0. -1.
          1    1    1    2  501    0 -0.80964422918E+02  0.74562211783E+02 -0.10861996820E+03  0.15463847741E+03  0.00000000000E+00 0. -1.
<scales pt_clust_5="13000.00000" pt_clust_6="13000.00000" pt_clust_7="13000.00000" pt_clust_8="13000.00000" pt_clust_9="112.47960"></scales>
<clustering>
<clus scale="   79.506">  5  6 -1 -1</clus>
<clus scale="   91.062">  7  8 -1 -1</clus>
<clus scale="   93.196">  2  7  1 -1</clus>
<clus scale="  112.480">  1  9  2 -1</clus>
<clus scale="  112.480">  1  5  2 -1</clus>
</clustering>
</event>
<event>
 9    1  0.1426358E-005  0.2549668E+03  0.7546771E-02  0.1136140E+00
          2   -1    0    0  502    0 -0.00000000000E+00  0.00000000000E+00  0.70992903240E+03  0.70992903240E+03  0.00000000000E+00 0. -1.
         21   -1    0    0  501  502  0.00000000000E+00 -0.00000000000E+00 -0.16957663552E+03  0.16957663552E+03  0.00000000000E+00 0. -1.
         23    2    1    2    0    0  0.94120566676E+02 -0.20872902633E+02  0.95317541769E+02  0.16426262388E+03  0.92749214002E+02 0.  0.
         23    2    1    2    0    0 -0.29779469316E+03 -0.51096735435E+02  0.37020366247E+03  0.48663314488E+03  0.92024509459E+02 0.  0.
        -11    1    4    4    0    0 -0.19941825593E+03 -0.60107401608E+02  0.30092782973E+03  0.36597554458E+03  0.00000000000E+00 0. -1.
         11    1    4    4    0    0 -0.98376437233E+02  0.90106661731E+01  0.69275832736E+02  0.12065760029E+03  0.00000000000E+00 0.  1.
        -13    1    3    3    0    0  0.10353269325E+03 -0.41082209561E+02  0.81737723849E+02  0.13815868418E+03  0.00000000000E+00 0. -1.
         13    1    3    3    0    0 -0.94121265705E+01  0.20209306928E+02  0.13579817920E+02  0.26103939699E+02  0.00000000000E+00 0.  1.
          2    1    1    2  501    0  0.20367412649E+03  0.71969638068E+02  0.74831192637E+02  0.22860989916E+03  0.00000000000E+00 0. -1.
<scales pt_clust_5="13000.00000" pt_clust_6="13000.00000" pt_clust_7="13000.00000" pt_clust_8="13000.00000" pt_clust_9="237.78045"></scales>
<clustering>
<clus scale="   92.025">  5  6 -1 -1</clus>
<clus scale="   92.749">  7  8 -1 -1</clus>
<clus scale="  133.779">  1  7  2 -1</clus>
<clus scale="  237.780">  2  9  1 -1</clus>
<clus scale="  237.780">  2  5  1 -1</clus>
</clustering>
</event>
<event>
 9    1  0.1426358E-005  0.1053444E+03  0.7546771E-02  0.1269733E+00
         21   -1    0    0  501  502  0.00000000000E+00  0.00000000000E+00  0.27378581045E+03  0.27378581045E+03  0.00000000000E+00 0.  1.
          3   -1    0    0  502    0 -0.00000000000E+00 -0.00000000000E+00 -0.57542401468E+02  0.57542401468E+02  0.00000000000E+00 0. -1.
         23    2    1    2    0    0 -0.57548926550E+02  0.18845988546E+02  0.37862319543E+02  0.11464369410E+03  0.89680383167E+02 0.  0.
         23    2    1    2    0    0  0.34925040877E+02 -0.20447036311E+02  0.15633625500E+03  0.18505576061E+03  0.90370183876E+02 0.  0.
        -11    1    4    4    0    0 -0.10992378142E+02  0.17792401335E+02  0.10254415878E+03  0.10465517867E+03  0.00000000000E+00 0.  1.
         11    1    4    4    0    0  0.45917419018E+02 -0.38239437647E+02  0.53792096220E+02  0.80400581942E+02  0.00000000000E+00 0. -1.
        -13    1    3    3    0    0 -0.75140883040E+02 -0.20675527254E+01  0.10373461534E+02  0.75881722322E+02  0.00000000000E+00 0.  1.
         13    1    3    3    0    0  0.17591956491E+02  0.20913541271E+02  0.27488858009E+02  0.38761971780E+02  0.00000000000E+00 0. -1.
          3    1    1    2  501    0  0.22623885673E+02  0.16010477656E+01  0.22044834443E+02  0.31628757208E+02  0.00000000000E+00 0. -1.
<scales pt_clust_5="13000.00000" pt_clust_6="13000.00000" pt_clust_7="13000.00000" pt_clust_8="13000.00000" pt_clust_9="22.68047"></scales>
<clustering>
<clus scale="   22.680">  1  9  2 -1</clus>
<clus scale="   89.680">  7  8 -1 -1</clus>
<clus scale="   90.370">  5  6 -1 -1</clus>
<clus scale="  104.753">  2  7  1 -1</clus>
<clus scale="   22.680">  1  5  2 -1</clus>
</clustering>
</event>
<event>
 9    1  0.1426358E-005  0.1234450E+03  0.7546771E-02  0.1238070E+00
         21   -1    0    0  501  502  0.00000000000E+00  0.00000000000E+00  0.45078147775E+02  0.45078147775E+02  0.00000000000E+00 0.  1.
          2   -1    0    0  502    0 -0.00000000000E+00 -0.00000000000E+00 -0.53349886362E+03  0.53349886362E+03  0.00000000000E+00 0. -1.
         23    2    1    2    0    0  0.33558719953E+02  0.96457327377E+02 -0.28784760107E+03  0.31786729883E+03  0.88052112625E+02 0.  0.
         23    2    1    2    0    0  0.10829392645E+02 -0.64260710491E+02 -0.12326860092E+03  0.16593147381E+03  0.89952161558E+02 0.  0.
        -11    1    3    3    0    0 -0.22124338573E+02  0.46804463465E+02 -0.17572110261E+03  0.18318856422E+03  0.00000000000E+00 0. -1.
         11    1    3    3    0    0  0.55683058526E+02  0.49652863912E+02 -0.11212649846E+03  0.13467873462E+03  0.00000000000E+00 0.  1.
        -13    1    4    4    0    0  0.41119687614E+02 -0.66279092718E+02 -0.10390937500E+03  0.12992653714E+03  0.00000000000E+00 0.  1.
         13    1    4    4    0    0 -0.30290294968E+02  0.20183822268E+01 -0.19359225927E+02  0.36004936669E+02  0.00000000000E+00 0. -1.
          2    1    1    2  501    0 -0.44388112599E+02 -0.32196616886E+02 -0.77304513855E+02  0.94778238754E+02  0.00000000000E+00 0. -1.
<scales pt_clust_5="13000.00000" pt_clust_6="13000.00000" pt_clust_7="13000.00000" pt_clust_8="13000.00000" pt_clust_9="54.83545"></scales>
<clustering>
<clus scale="   54.835">  1  9  2 -1</clus>
<clus scale="   88.052">  5  6 -1 -1</clus>
<clus scale="   89.952">  7  8 -1 -1</clus>
<clus scale="  122.067">  2  5  1 -1</clus>
<clus scale="   54.835">  1  5  2 -1</clus>
</clustering>
</event>
<event>
 9    1  0.1426358E-005  0.1105167E+03  0.7546771E-02  0.1269405E+00
         21   -1    0    0  501  502  0.00000000000E+00  0.00000000000E+00  0.95072804804E+02  0.95072804804E+02  0.00000000000E+00 0. -1.
          1   -1    0    0  502    0 -0.00000000000E+00 -0.00000000000E+00 -0.14426586648E+03  0.14426586648E+03  0.00000000000E+00 0. -1.
         23    2    1    2    0    0 -0.39487479217E+02 -0.11654351867E+02 -0.59133471476E+02  0.12610910558E+03  0.10349712136E+03 0.  0.
         23    2    1    2    0    0  0.37444174583E+02 -0.84875671831E+01  0.11394885876E+01  0.91154054136E+02  0.82665943074E+02 0.  0.
        -13    1    3    3    0    0 -0.24146517910E+01 -0.36870970189E+02 -0.70727968555E+02  0.79798148611E+02  0.00000000000E+00 0. -1.
         13    1    3    3    0    0 -0.37072827426E+02  0.25216618322E+02  0.11594497079E+02  0.46310956970E+02  0.00000000000E+00 0.  1.
        -13    1    4    4    0    0  0.53050484764E+02 -0.32574453368E+02  0.35355969829E+01  0.62353423258E+02  0.00000000000E+00 0. -1.
         13    1    4    4    0    0 -0.15606310181E+02  0.24086886185E+02 -0.23961083953E+01  0.28800630879E+02  0.00000000000E+00 0.  1.
          1    1    1    2  501    0  0.20433046341E+01  0.20141919050E+02  0.88009212101E+01  0.22075511568E+02  0.00000000000E+00 0. -1.
<scales pt_clust_5="13000.00000" pt_clust_6="13000.00000" pt_clust_7="13000.00000" pt_clust_8="13000.00000" pt_clust_9="20.24530"></scales>
<clustering>
<clus scale="   20.245">  1  9  2 -1</clus>
<clus scale="   82.666">  7  8 -1 -1</clus>
<clus scale="   91.301">  1  7  2 -1</clus>
<clus scale="  103.497">  5  6 -1 -1</clus>
<clus scale="   20.245">  1  5  2 -1</clus>
</clustering>
</event>
<event>
 9    1  0.1426358E-005  0.1600705E+03  0.7546771E-02  0.1189015E+00
          1   -1    0    0  502    0 -0.00000000000E+00  0.00000000000E+00  0.49960296151E+03  0.49960296151E+03  0.00000000000E+00 0. -1.
         21   -1    0    0  501  502  0.00000000000E+00 -0.00000000000E+00 -0.78027688330E+02  0.78027688330E+02  0.00000000000E+00 0.  1.
         23    2    1    2    0    0 -0.12558462409E+03 -0.46503715293E+02  0.35164526535E+03  0.38708485811E+03  0.90808597563E+02 0.  0.
         23    2    1    2    0    0  0.11786834934E+03  0.25429848811E+02  0.70846157971E+02  0.16808497973E+03  0.93240320265E+02 0.  0.
        -13    1    4    4    0    0  0.11780081380E+03 -0.84055661993E+01  0.49336741689E+02  0.12799140345E+03  0.00000000000E+00 0.  1.
         13    1    4    4    0    0  0.67535537271E-01  0.33835415010E+02  0.21509416282E+02  0.40093576278E+02  0.00000000000E+00 0. -1.
        -13    1    3    3    0    0 -0.33097033088E+02 -0.32702534789E+02  0.38863573406E+02  0.60623813133E+02  0.00000000000E+00 0.  1.
         13    1    3    3    0    0 -0.92487591005E+02 -0.13801180504E+02  0.31278169194E+03  0.32646104498E+03  0.00000000000E+00 0. -1.
          1    1    1    2  501    0  0.77162747513E+01  0.21073866483E+02 -0.91615014505E+00  0.22460811999E+02  0.00000000000E+00 0. -1.
<scales pt_clust_5="13000.00000" pt_clust_6="13000.00000" pt_clust_7="13000.00000" pt_clust_8="13000.00000" pt_clust_9="22.44212"></scales>
<clustering>
<clus scale="   22.442">  2  9  1 -1</clus>
<clus scale="   90.809">  7  8 -1 -1</clus>
<clus scale="   93.240">  5  6 -1 -1</clus>
<clus scale="  158.666">  1  7  2 -1</clus>
<clus scale="   22.442">  2  5  1 -1</clus>
</clustering>
</event>
<event>
 9    1  0.1426358E-005  0.1352095E+03  0.7546771E-02  0.1228242E+00
          1   -1    0    0  502    0 -0.00000000000E+00  0.00000000000E+00  0.24124112429E+03  0.24124112429E+03  0.00000000000E+00 0. -1.
         21   -1    0    0  501  502  0.00000000000E+00 -0.00000000000E+00 -0.23733643347E+03  0.23733643347E+03  0.00000000000E+00 0. -1.
         23    2    1    2    0    0  0.85740147878E+02 -0.12734057243E+02  0.15503543848E+03  0.20262220351E+03  0.97499953837E+02 0.  0.
         23    2    1    2    0    0 -0.10925609262E+03  0.55509688960E+02 -0.24959472273E+02  0.14067067271E+03  0.64397543135E+02 0.  0.
        -11    1    3    3    0    0  0.74295650134E+02 -0.51041524760E+02  0.10049475599E+03  0.13499732168E+03  0.00000000000E+00 0.  1.
         11    1    3    3    0    0  0.11444497744E+02  0.38307467517E+02  0.54540682495E+02  0.67624881835E+02  0.00000000000E+00 0. -1.
        -13    1    4    4    0    0 -0.33182987777E+02 -0.10113917488E+02  0.67049603816E+01  0.35332117096E+02  0.00000000000E+00 0.  1.
         13    1    4    4    0    0 -0.76073104840E+02  0.65623606448E+02 -0.31664432655E+02  0.10533855561E+03  0.00000000000E+00 0. -1.
          1    1    1    2  501    0  0.23515944739E+02 -0.42775631717E+02 -0.12617127539E+03  0.13528468154E+03  0.00000000000E+00 0. -1.
<scales pt_clust_5="13000.00000" pt_clust_6="13000.00000" pt_clust_7="13000.00000" pt_clust_8="13000.00000" pt_clust_9="48.81346"></scales>
<clustering>
<clus scale="   48.813">  2  9  1 -1</clus>
<clus scale="   64.398">  7  8 -1 -1</clus>
<clus scale="   97.500">  5  6 -1 -1</clus>
<clus scale="  113.677">  2  7  1 -1</clus>
<clus scale="   48.813">  2  5  1 -1</clus>
</clustering>
</event>
<event>
 9    1  0.1426358E-005  0.1380988E+03  0.7546771E-02  0.1216344E+00
          1   -1    0    0  502    0 -0.00000000000E+00  0.00000000000E+00  0.12979478178E+03  0.12979478178E+03  0.00000000000E+00 0. -1.
         21   -1    0    0  501  502  0.00000000000E+00 -0.00000000000E+00 -0.32763194902E+03  0.32763194902E+03  0.00000000000E+00 0. -1.
         23    2    1    2    0    0 -0.10919876633E+03 -0.40473390855E+02  0.29122654904E+02  0.15164633549E+03  0.92660758167E+02 0.  0.
         23    2    1    2    0    0  0.81090376258E+02  0.56924155938E+01 -0.65701228242E+02  0.13843604392E+03  0.90773532188E+02 0.  0.
        -11    1    4    4    0    0  0.40117864312E+02  0.45515321236E+02 -0.51447217333E+02  0.79548121760E+02  0.00000000000E+00 0.  1.
         11    1    4    4    0    0  0.40972511946E+02 -0.39822905642E+02 -0.14254010909E+02  0.58887922157E+02  0.00000000000E+00 0. -1.
        -13    1    3    3    0    0 -0.45754247972E+02 -0.63072792470E+02  0.31999905981E+02  0.84235517095E+02  0.00000000000E+00 0. -1.
         13    1    3    3    0    0 -0.63444518362E+02  0.22599401615E+02 -0.28772510772E+01  0.67410818399E+02  0.00000000000E+00 0.  1.
          1    1    1    2  501    0  0.28108390075E+02  0.34780975261E+02 -0.16125859390E+03  0.16734435138E+03  0.00000000000E+00 0. -1.
<scales pt_clust_5="13000.00000" pt_clust_6="13000.00000" pt_clust_7="13000.00000" pt_clust_8="13000.00000" pt_clust_9="44.71910"></scales>
<clustering>
<clus scale="   44.719">  2  9  1 -1</clus>
<clus scale="   90.774">  5  6 -1 -1</clus>
<clus scale="   92.661">  7  8 -1 -1</clus>
<clus scale="  136.840">  2  5  1 -1</clus>
<clus scale="   44.719">  2  5  1 -1</clus>
</clustering>
</event>
<event>
 9    1  0.1426358E-005  0.9824788E+02  0.7546771E-02  0.1284645E+00
         21   -1    0    0  501  502  0.00000000000E+00  0.00000000000E+00  0.13975161506E+03  0.13975161506E+03  0.00000000000E+00 0.  1.
         -1   -1    0    0    0  501 -0.00000000000E+00 -0.00000000000E+00 -0.11170171759E+03  0.11170171759E+03  0.00000000000E+00 0.  1.
         23    2    1    2    0    0  0.19307041009E+02 -0.21809052132E+02 -0.33667874827E+02  0.10208001777E+03  0.91860805814E+02 0.  0.
         23    2    1    2    0    0 -0.42006097006E+02  0.21730009944E+02  0.23460296174E+02  0.10488862235E+03  0.90634055869E+02 0.  0.
        -11    1    3    3    0    0  0.50428113607E+02 -0.28902435290E+02 -0.36095316865E+01  0.58235505721E+02  0.00000000000E+00 0. -1.
         11    1    3    3    0    0 -0.31121072598E+02  0.70933831580E+01 -0.30058343141E+02  0.43844512047E+02  0.00000000000E+00 0.  1.
        -11    1    4    4    0    0 -0.14740637480E+02  0.45448331070E+02  0.42584536372E+02  0.64002186903E+02  0.00000000000E+00 0.  1.
         11    1    4    4    0    0 -0.27265459526E+02 -0.23718321126E+02 -0.19124240197E+02  0.40886435444E+02  0.00000000000E+00 0. -1.
         -1    1    1    2    0  502  0.22699055997E+02  0.79042188575E-01  0.38257476120E+02  0.44484692534E+02  0.00000000000E+00 0.  1.
<scales pt_clust_5="13000.00000" pt_clust_6="13000.00000" pt_clust_7="13000.00000" pt_clust_8="13000.00000" pt_clust_9="22.69919"></scales>
<clustering>
<clus scale="   22.699">  1  9  2 -1</clus>
<clus scale="   90.634">  7  8 -1 -1</clus>
<clus scale="   91.861">  5  6 -1 -1</clus>
<clus scale="   97.102">  1  7  2 -1</clus>
<clus scale="   22.699">  1  5  2 -1</clus>
</clustering>
</event>
<event>
 9    1  0.1426358E-005  0.9689533E+02  0.7546771E-02  0.1287306E+00
         21   -1    0    0  501  502  0.00000000000E+00  0.00000000000E+00  0.90724038933E+02  0.90724038933E+02  0.00000000000E+00 0. -1.
         -1   -1    0    0    0  501 -0.00000000000E+00 -0.00000000000E+00 -0.15850189368E+03  0.15850189368E+03  0.00000000000E+00 0.  1.
         23    2    1    2    0    0  0.38050545327E+02 -0.38957269331E+02 -0.52584628369E+02  0.11616429856E+03  0.88110659326E+02 0.  0.
         23    2    1    2    0    0 -0.10735312226E+02  0.15233383874E+02  0.85341193228E+01  0.89795808796E+02  0.87425128950E+02 0.  0.
        -11    1    4    4    0    0  0.33527073650E+02 -0.12097319723E+02  0.12132336486E+02  0.37651074362E+02  0.00000000000E+00 0. -1.
         11    1    4    4    0    0 -0.44262385876E+02  0.27330703597E+02 -0.35982171632E+01  0.52144734435E+02  0.00000000000E+00 0.  1.
        -13    1    3    3    0    0  0.50752413210E+01  0.19738418976E+02 -0.43748372526E+02  0.48262649708E+02  0.00000000000E+00 0.  1.
         13    1    3    3    0    0  0.32975304006E+02 -0.58695688307E+02 -0.88362558427E+01  0.67901648857E+02  0.00000000000E+00 0. -1.
         -1    1    1    2    0  502 -0.27315233101E+02  0.23723885457E+02 -0.23727345697E+02  0.43265825248E+02  0.00000000000E+00 0.  1.
<scales pt_clust_5="13000.00000" pt_clust_6="13000.00000" pt_clust_7="13000.00000" pt_clust_8="13000.00000" pt_clust_9="36.17936"></scales>
<clustering>
<clus scale="   36.179">  1  9  2 -1</clus>
<clus scale="   87.425">  5  6 -1 -1</clus>
<clus scale="   88.111">  7  8 -1 -1</clus>
<clus scale="   96.272">  1  5  2 -1</clus>
<clus scale="   36.179">  1  5  2 -1</clus>
</clustering>
</event>
<event>
 9    1  0.1426358E-005  0.1269242E+03  0.7546771E-02  0.1232718E+00
          2   -1    0    0  502    0 -0.00000000000E+00  0.00000000000E+00  0.33240517479E+03  0.33240517479E+03  0.00000000000E+00 0. -1.
         21   -1    0    0  501  502  0.00000000000E+00 -0.00000000000E+00 -0.47752384207E+03  0.47752384207E+03  0.00000000000E+00 0. -1.
         23    2    1    2    0    0 -0.11488116411E+02 -0.82094919142E+02  0.28467461263E+03  0.31115472952E+03  0.94372019453E+02 0.  0.
         23    2    1    2    0    0 -0.45156200348E+02  0.12398115207E+03 -0.19084843612E+03  0.24966051112E+03  0.92178287817E+02 0.  0.
        -11    1    4    4    0    0 -0.48546004260E+02  0.74573226449E+02 -0.17720507573E+03  0.19829150132E+03  0.00000000000E+00 0. -1.
         11    1    4    4    0    0  0.33898039116E+01  0.49407925621E+02 -0.13643360389E+02  0.51369009797E+02  0.00000000000E+00 0.  1.
        -13    1    3    3    0    0  0.19704709451E+02 -0.63250235863E+02  0.25698119559E+03  0.26538312456E+03  0.00000000000E+00 0. -1.
         13    1    3    3    0    0 -0.31192825863E+02 -0.18844683279E+02  0.27693417037E+02  0.45771604957E+02  0.00000000000E+00 0.  1.
          2    1    1    2  501    0  0.56644316760E+02 -0.41886232928E+02 -0.23894484379E+03  0.24911377622E+03  0.00000000000E+00 0. -1.
<scales pt_clust_5="13000.00000" pt_clust_6="13000.00000" pt_clust_7="13000.00000" pt_clust_8="13000.00000" pt_clust_9="70.44881"></scales>
<clustering>
<clus scale="   70.449">  2  9  1 -1</clus>
<clus scale="   92.178">  5  6 -1 -1</clus>
<clus scale="   94.372">  7  8 -1 -1</clus>
<clus scale="  125.302">  2  5  1 -1</clus>
<clus scale="   70.449">  2  5  1 -1</clus>
</clustering>
</event>
<event>
 9    1  0.1426358E-005  0.1488753E+03  0.7546771E-02  0.1202491E+00
         21   -1    0    0  501  502  0.00000000000E+00  0.00000000000E+00  0.90473300237E+02  0.90473300237E+02  0.00000000000E+00 0.  1.
          2   -1    0    0  502    0 -0.00000000000E+00 -0.00000000000E+00 -0.36408133816E+03  0.36408133816E+03  0.00000000000E+00 0. -1.
         23    2    1    2    0    0 -0.99807845278E+02  0.22190633080E+02 -0.14976376016E+03  0.20280290873E+03  0.90806419138E+02 0.  0.
         23    2    1    2    0    0  0.14565838907E+03 -0.29587182060E+02 -0.92256342520E+02  0.19558431068E+03  0.87465548655E+02 0.  0.
        -11    1    4    4    0    0  0.34459208705E+02  0.14208409698E+02 -0.61933589941E+02  0.72284753120E+02  0.00000000000E+00 0.  1.
         11    1    4    4    0    0  0.11119918036E+03 -0.43795591758E+02 -0.30322752579E+02  0.12329955756E+03  0.00000000000E+00 0. -1.
        -13    1    3    3    0    0 -0.60353325948E+02 -0.31171349096E+02 -0.94852475104E+02  0.11666691472E+03  0.00000000000E+00 0.  1.
         13    1    3    3    0    0 -0.39454519330E+02  0.53361982176E+02 -0.54911285058E+02  0.86135994010E+02  0.00000000000E+00 0. -1.
          2    1    1    2  501    0 -0.45850543790E+02  0.73965489806E+01 -0.31587935246E+02  0.56167418988E+02  0.00000000000E+00 0. -1.
<scales pt_clust_5="13000.00000" pt_clust_6="13000.00000" pt_clust_7="13000.00000" pt_clust_8="13000.00000" pt_clust_9="46.44331"></scales>
<clustering>
<clus scale="   46.443">  1  9  2 -1</clus>
<clus scale="   87.466">  5  6 -1 -1</clus>
<clus scale="   90.806">  7  8 -1 -1</clus>
<clus scale="  146.861">  1  5  2 -1</clus>
<clus scale="   46.443">  1  5  2 -1</clus>
</clustering>
</event>
<event>
 9    1  0.1426358E-005  0.9301776E+02  0.7546771E-02  0.1295982E+00
          2   -1    0    0  502    0 -0.00000000000E+00  0.00000000000E+00  0.51723329677E+03  0.51723329677E+03  0.00000000000E+00 0. -1.
         21   -1    0    0  501  502  0.00000000000E+00 -0.00000000000E+00 -0.13225262790E+03  0.13225262790E+03  0.00000000000E+00 0. -1.
         23    2    1    2    0    0 -0.15509729274E+02  0.16444328843E+02  0.32968001673E+03  0.34280486203E+03  0.91188224838E+02 0.  0.
         23    2    1    2    0    0  0.17698573945E+02  0.60125648873E+01  0.16795292539E+03  0.19179138605E+03  0.90699284238E+02 0.  0.
        -11    1    3    3    0    0 -0.48395617675E+02  0.25385258131E+02  0.25389376676E+03  0.25970866743E+03  0.00000000000E+00 0.  1.
         11    1    3    3    0    0  0.32885888401E+02 -0.89409292882E+01  0.75786249975E+02  0.83096194605E+02  0.00000000000E+00 0. -1.
        -11    1    4    4    0    0  0.14052421040E+01 -0.35232461380E+02  0.28136462156E+02  0.45110548023E+02  0.00000000000E+00 0.  1.
         11    1    4    4    0    0  0.16293331841E+02  0.41245026267E+02  0.13981646323E+03  0.14668083803E+03  0.00000000000E+00 0. -1.
          2    1    1    2  501    0 -0.21888446706E+01 -0.22456893730E+02 -0.11265227325E+03  0.11488967658E+03  0.00000000000E+00 0. -1.
<scales pt_clust_5="13000.00000" pt_clust_6="13000.00000" pt_clust_7="13000.00000" pt_clust_8="13000.00000" pt_clust_9="22.56331"></scales>
<clustering>
<clus scale="   22.563">  2  9  1 -1</clus>
<clus scale="   90.699">  7  8 -1 -1</clus>
<clus scale="   91.188">  5  6 -1 -1</clus>
<clus scale="   92.538">  2  7  1 -1</clus>
<clus scale="   22.563">  2  5  1 -1</clus>
</clustering>
</event>
<event>
 9    1  0.1426358E-005  0.3279896E+03  0.7546771E-02  0.1072083E+00
         21   -1    0    0  501  502  0.00000000000E+00  0.00000000000E+00  0.59566621995E+03  0.59566621995E+03  0.00000000000E+00 0. -1.
          1   -1    0    0  502    0 -0.00000000000E+00 -0.00000000000E+00 -0.33311360595E+03  0.33311360595E+03  0.00000000000E+00 0. -1.
         23    2    1    2    0    0 -0.29847833130E+03 -0.12949190723E+02 -0.71940334142E+02  0.32107215591E+03  0.93031832349E+02 0.  0.
         23    2    1    2    0    0  0.34536227352E+03 -0.16320911781E+02  0.10652441794E+03  0.37313466706E+03  0.91326644591E+02 0.  0.
        -11    1    3    3    0    0 -0.81334028414E+02 -0.31868365526E+02 -0.53250076339E+02  0.10230536413E+03  0.00000000000E+00 0.  1.
         11    1    3    3    0    0 -0.21714430288E+03  0.18919174803E+02 -0.18690257802E+02  0.21876679178E+03  0.00000000000E+00 0. -1.
        -11    1    4    4    0    0  0.11630581291E+03  0.22866289139E+02  0.25742971515E+01  0.11856026443E+03  0.00000000000E+00 0. -1.
         11    1    4    4    0    0  0.22905646061E+03 -0.39187200920E+02  0.10395012079E+03  0.25457440263E+03  0.00000000000E+00 0.  1.
          1    1    1    2  501    0 -0.46883942225E+02  0.29270102504E+02  0.22796853020E+03  0.23457300292E+03  0.00000000000E+00 0. -1.
<scales pt_clust_5="13000.00000" pt_clust_6="13000.00000" pt_clust_7="13000.00000" pt_clust_8="13000.00000" pt_clust_9="55.27063"></scales>
<clustering>
<clus scale="   55.271">  1  9  2 -1</clus>
<clus scale="   91.327">  7  8 -1 -1</clus>
<clus scale="   93.032">  5  6 -1 -1</clus>
<clus scale="  327.510">  1  7  2 -1</clus>
<clus scale="   55.271">  1  5  2 -1</clus>
</clustering>
</event>
<event>
 9    1  0.1426358E-005  0.1543107E+03  0.7546771E-02  0.1218146E+00
         21   -1    0    0  501  502  0.00000000000E+00  0.00000000000E+00  0.19372115402E+03  0.19372115402E+03  0.00000000000E+00 0.  1.
         -2   -1    0    0    0  501 -0.00000000000E+00 -0.00000000000E+00 -0.22540895873E+03  0.22540895873E+03  0.00000000000E+00 0.  1.
         23    2    1    2    0    0 -0.16758116101E+02 -0.18241983665E+02  0.12413699241E+02  0.95237383985E+02  0.91117808118E+02 0.  0.
         23    2    1    2    0    0  0.13198005027E+03  0.51101241710E+02 -0.95378375804E+02  0.19356566887E+03  0.91326682956E+02 0.  0.
        -11    1    3    3    0    0  0.36664520421E+02  0.32944415644E+01  0.40894447554E+01  0.37038681960E+02  0.00000000000E+00 0.  1.
         11    1    3    3    0    0 -0.53422636523E+02 -0.21536425229E+02  0.83242544856E+01  0.58198702025E+02  0.00000000000E+00 0. -1.
        -11    1    4    4    0    0  0.10014128331E+03 -0.69644702562E+01 -0.43320890905E+02  0.10933197180E+03  0.00000000000E+00 0.  1.
         11    1    4    4    0    0  0.31838766961E+02  0.58065711966E+02 -0.52057484899E+02  0.84233697068E+02  0.00000000000E+00 0. -1.
         -2    1    1    2    0  502 -0.11522193417E+03 -0.32859258045E+02  0.51276871858E+02  0.13032705989E+03  0.00000000000E+00 0.  1.
<scales pt_clust_5="13000.00000" pt_clust_6="13000.00000" pt_clust_7="13000.00000" pt_clust_8="13000.00000" pt_clust_9="124.38342"></scales>
<clustering>
<clus scale="   91.118">  5  6 -1 -1</clus>
<clus scale="   91.327">  7  8 -1 -1</clus>
<clus scale="   94.425">  2  5  1 -1</clus>
<clus scale="  124.383">  1  9  2 -1</clus>
<clus scale="  124.383">  1  5  2 -1</clus>
</clustering>
</event>
<event>
 9    1  0.1426358E-005  0.1638965E+03  0.7546771E-02  0.1184675E+00
         21   -1    0    0  501  502  0.00000000000E+00  0.00000000000E+00  0.76669210559E+03  0.76669210559E+03  0.00000000000E+00 0.  1.
         -1   -1    0    0    0  501 -0.00000000000E+00 -0.00000000000E+00 -0.65131065402E+02  0.65131065402E+02  0.00000000000E+00 0.  1.
         23    2    1    2    0    0 -0.11540232119E+03  0.53114789289E+01  0.15524790620E+03  0.21426511692E+03  0.91987610061E+02 0.  0.
         23    2    1    2    0    0  0.18223472848E+03  0.29544290421E+02  0.44888038809E+03  0.49437268443E+03  0.93959496266E+02 0.  0.
        -13    1    4    4    0    0  0.12899241015E+03  0.60527616693E+02  0.27180997028E+03  0.30689296864E+03  0.00000000000E+00 0.  1.
         13    1    4    4    0    0  0.53242318323E+02 -0.30983326271E+02  0.17707041782E+03  0.18747971579E+03  0.00000000000E+00 0. -1.
        -13    1    3    3    0    0 -0.29132720611E+02  0.32162540296E+02  0.98330081541E+02  0.10747999509E+03  0.00000000000E+00 0.  1.
         13    1    3    3    0    0 -0.86269600581E+02 -0.26851061367E+02  0.56917824662E+02  0.10678512183E+03  0.00000000000E+00 0. -1.
         -1    1    1    2    0  502 -0.66832407285E+02 -0.34855769350E+02  0.97432745889E+02  0.12318536963E+03  0.00000000000E+00 0.  1.
<scales pt_clust_5="13000.00000" pt_clust_6="13000.00000" pt_clust_7="13000.00000" pt_clust_8="13000.00000" pt_clust_9="75.37573"></scales>
<clustering>
<clus scale="   75.376">  1  9  2 -1</clus>
<clus scale="   91.988">  7  8 -1 -1</clus>
<clus scale="   93.959">  5  6 -1 -1</clus>
<clus scale="  162.774">  2  7  1 -1</clus>
<clus scale="   75.376">  1  5  2 -1</clus>
</clustering>
</event>
<event>
 9    1  0.1426358E-005  0.1048006E+03  0.7546771E-02  0.1273428E+00
         21   -1    0    0  501  502  0.00000000000E+00  0.00000000000E+00  0.38712561457E+02  0.38712561457E+02  0.00000000000E+00 0.  1.
          2   -1    0    0  502    0 -0.00000000000E+00 -0.00000000000E+00 -0.83567702994E+03  0.83567702994E+03  0.00000000000E+00 0. -1.
         23    2    1    2    0    0  0.64079593220E+02  0.20014814025E+02 -0.58288022764E+03  0.59441289346E+03  0.95239388318E+02 0.  0.
         23    2    1    2    0    0  0.19915250669E+02 -0.16358779789E+02 -0.14050304655E+03  0.16825072719E+03  0.88898673924E+02 0.  0.
        -13    1    4    4    0    0  0.36300631649E+02 -0.44112463679E+02 -0.67370999783E+02  0.88331743568E+02  0.00000000000E+00 0.  1.
         13    1    4    4    0    0 -0.16385380980E+02  0.27753683889E+02 -0.73132046765E+02  0.79918983623E+02  0.00000000000E+00 0. -1.
        -13    1    3    3    0    0 -0.23044425731E+02  0.10306521149E+01 -0.66420401725E+02  0.70312001581E+02  0.00000000000E+00 0.  1.
         13    1    3    3    0    0  0.87124018950E+02  0.18984161910E+02 -0.51645982591E+03  0.52410089187E+03  0.00000000000E+00 0. -1.
          2    1    1    2  501    0 -0.83994843889E+02 -0.36560342356E+01 -0.73581194301E+02  0.11172597075E+03  0.00000000000E+00 0. -1.
<scales pt_clust_5="13000.00000" pt_clust_6="13000.00000" pt_clust_7="13000.00000" pt_clust_8="13000.00000" pt_clust_9="84.07437"></scales>
<clustering>
<clus scale="   84.074">  1  9  2 -1</clus>
<clus scale="   88.899">  5  6 -1 -1</clus>
<clus scale="   95.239">  7  8 -1 -1</clus>
<clus scale="   99.074">  1  5  2 -1</clus>
<clus scale="   84.074">  1  5  2 -1</clus>
</clustering>
</event>
<event>
 9    1  0.1426358E-005  0.1040261E+03  0.7546771E-02  0.1272410E+00
         21   -1    0    0  501  502  0.00000000000E+00  0.00000000000E+00  0.14107169699E+03  0.14107169699E+03  0.00000000000E+00 0. -1.
         -2   -1    0    0    0  501 -0.00000000000E+00 -0.00000000000E+00 -0.12793345827E+03  0.12793345827E+03  0.00000000000E+00 0.  1.
         23    2    1    2    0    0  0.97989033020E+01  0.56702639382E+02 -0.61328119911E+02  0.12325222321E+03  0.90104186456E+02 0.  0.
         23    2    1    2    0    0 -0.22919570054E+02 -0.32872192263E+02  0.54494559597E+02  0.11200511933E+03  0.89272627466E+02 0.  0.
        -13    1    3    3    0    0  0.42243992974E+02  0.15206556739E+01 -0.30985238626E+02  0.52411376139E+02  0.00000000000E+00 0.  1.
         13    1    3    3    0    0 -0.32445089672E+02  0.55181983708E+02 -0.30342881285E+02  0.70840847076E+02  0.00000000000E+00 0. -1.
        -13    1    4    4    0    0 -0.55444506830E+02 -0.72049243423E+01  0.36909926320E+02  0.66995126191E+02  0.00000000000E+00 0. -1.
         13    1    4    4    0    0  0.32524936776E+02 -0.25667267920E+02  0.17584633277E+02  0.45009993138E+02  0.00000000000E+00 0.  1.
         -2    1    1    2    0  502  0.13120666752E+02 -0.23830447119E+02  0.19971799039E+02  0.33747812711E+02  0.00000000000E+00 0.  1.
<scales pt_clust_5="13000.00000" pt_clust_6="13000.00000" pt_clust_7="13000.00000" pt_clust_8="13000.00000" pt_clust_9="27.20371"></scales>
<clustering>
<clus scale="   27.204">  1  9  2 -1</clus>
<clus scale="   89.273">  7  8 -1 -1</clus>
<clus scale="   90.104">  5  6 -1 -1</clus>
<clus scale="  103.307">  1  7  2 -1</clus>
<clus scale="   27.204">  1  5  2 -1</clus>
</clustering>
</event>
<event>
 9    1  0.1426358E-005  0.3019921E+03  0.7546771E-02  0.1084295E+00
         -1   -1    0    0    0  501 -0.00000000000E+00  0.00000000000E+00  0.20833549935E+04  0.20833549935E+04  0.00000000000E+00 0.  1.
         21   -1    0    0  501  502  0.00000000000E+00 -0.00000000000E+00 -0.59340789468E+02  0.59340789468E+02  0.00000000000E+00 0. -1.
         23    2    1    2    0    0 -0.80259378810E+02  0.27950470634E+03  0.13597370932E+04  0.13934824169E+04  0.91344593535E+02 0.  0.
         23    2    1    2    0    0  0.95353057301E+02 -0.26496793030E+03  0.66517777895E+03  0.72823842409E+03  0.92571675352E+02 0.  0.
        -11    1    3    3    0    0 -0.61617006773E+02  0.26961701321E+03  0.13181050551E+04  0.13468076796E+04  0.00000000000E+00 0.  1.
         11    1    3    3    0    0 -0.18642372037E+02  0.98876931376E+01  0.41632038061E+02  0.46674737319E+02  0.00000000000E+00 0. -1.
        -13    1    4    4    0    0  0.38842135742E+02 -0.14979069375E+03  0.46869371546E+03  0.49357852704E+03  0.00000000000E+00 0.  1.
         13    1    4    4    0    0  0.56510921558E+02 -0.11517723655E+03  0.19648406349E+03  0.23465989705E+03  0.00000000000E+00 0. -1.
         -1    1    1    2    0  502 -0.15093678491E+02 -0.14536776043E+02 -0.90066814246E+00  0.20974941984E+02  0.00000000000E+00 0.  1.
<scales pt_clust_5="13000.00000" pt_clust_6="13000.00000" pt_clust_7="13000.00000" pt_clust_8="13000.00000" pt_clust_9="20.95560"></scales>
<clustering>
<clus scale="   20.956">  2  9  1 -1</clus>
<clus scale="   91.345">  5  6 -1 -1</clus>
<clus scale="   92.572">  7  8 -1 -1</clus>
<clus scale="  301.618">  1  5  2 -1</clus>
<clus scale="   20.956">  2  5  1 -1</clus>
</clustering>
</event>
<event>
 9    1  0.1426358E-005  0.2181800E+03  0.7546771E-02  0.1136224E+00
         21   -1    0    0  501  502  0.00000000000E+00  0.00000000000E+00  0.18842097590E+03  0.18842097590E+03  0.00000000000E+00 0.  1.
          1   -1    0    0  502    0 -0.00000000000E+00 -0.00000000000E+00 -0.33013240511E+03  0.33013240511E+03  0.00000000000E+00 0. -1.
         23    2    1    2    0    0 -0.18399689184E+03  0.59036158861E+02 -0.10997038429E+03  0.24268765545E+03  0.97281490667E+02 0.  0.
         23    2    1    2    0    0  0.16242180196E+03 -0.93449629675E+02 -0.62239443774E+02  0.22507277518E+03  0.10802930494E+03 0.  0.
        -11    1    4    4    0    0  0.15726366886E+03 -0.68605253377E+02 -0.15990210218E+02  0.17232013567E+03  0.00000000000E+00 0.  1.
         11    1    4    4    0    0  0.51581331055E+01 -0.24844376298E+02 -0.46249233556E+02  0.52752639510E+02  0.00000000000E+00 0. -1.
        -11    1    3    3    0    0 -0.11869382973E+03 -0.17481790491E+01 -0.95401156428E+02  0.15229137203E+03  0.00000000000E+00 0. -1.
         11    1    3    3    0    0 -0.65303062108E+02  0.60784337910E+02 -0.14569227864E+02  0.90396283421E+02  0.00000000000E+00 0.  1.
          1    1    1    2  501    0  0.21575089873E+02  0.34413470814E+02  0.30498398858E+02  0.50792950391E+02  0.00000000000E+00 0. -1.
<scales pt_clust_5="13000.00000" pt_clust_6="13000.00000" pt_clust_7="13000.00000" pt_clust_8="13000.00000" pt_clust_9="40.61738"></scales>
<clustering>
<clus scale="   40.617">  1  9  2 -1</clus>
<clus scale="   97.281">  7  8 -1 -1</clus>
<clus scale="  108.029">  5  6 -1 -1</clus>
<clus scale="  213.063">  2  7  1 -1</clus>
<clus scale="   40.617">  1  5  2 -1</clus>
</clustering>
</event>
<event>
 9    1  0.1426358E-005  0.1172093E+03  0.7546771E-02  0.1248054E+00
         21   -1    0    0  501  502  0.00000000000E+00  0.00000000000E+00  0.95093195217E+02  0.95093195217E+02  0.00000000000E+00 0. -1.
          1   -1    0    0  502    0 -0.00000000000E+00 -0.00000000000E+00 -0.50493923849E+03  0.50493923849E+03  0.00000000000E+00 0. -1.
         23    2    1    2    0    0 -0.10801545941E+01  0.66957361818E+02 -0.25367004657E+03  0.27750170784E+03  0.90411560621E+02 0.  0.
         23    2    1    2    0    0  0.18508764263E+02 -0.83849624302E+02 -0.22092567966E+03  0.25338142067E+03  0.89558107165E+02 0.  0.
        -11    1    4    4    0    0  0.47189218055E+02 -0.43476405671E+02 -0.17279128314E+03  0.18431996007E+03  0.00000000000E+00 0. -1.
         11    1    4    4    0    0 -0.28680453793E+02 -0.40373218631E+02 -0.48134396518E+02  0.69061460602E+02  0.00000000000E+00 0.  1.
        -13    1    3    3    0    0  0.41579256777E+02  0.17098171526E+02 -0.12913125822E+03  0.13673355080E+03  0.00000000000E+00 0. -1.
         13    1    3    3    0    0 -0.42659411371E+02  0.49859190292E+02 -0.12453878835E+03  0.14076815705E+03  0.00000000000E+00 0.  1.
          1    1    1    2  501    0 -0.17428609668E+02  0.16892262484E+02  0.64749682951E+02  0.69149305196E+02  0.00000000000E+00 0. -1.
<scales pt_clust_5="13000.00000" pt_clust_6="13000.00000" pt_clust_7="13000.00000" pt_clust_8="13000.00000" pt_clust_9="24.27148"></scales>
<clustering>
<clus scale="   24.271">  1  9  2 -1</clus>
<clus scale="   89.558">  5  6 -1 -1</clus>
<clus scale="   90.412">  7  8 -1 -1</clus>
<clus scale="  116.552">  1  5  2 -1</clus>
<clus scale="   24.271">  1  5  2 -1</clus>
</clustering>
</event>
<event>
 9    1  0.1426358E-005  0.9896014E+02  0.7546771E-02  0.1283056E+00
          2   -1    0    0  502    0 -0.00000000000E+00  0.00000000000E+00  0.11523143978E+03  0.11523143978E+03  0.00000000000E+00 0.  1.
         21   -1    0    0  501  502  0.00000000000E+00 -0.00000000000E+00 -0.24734170605E+03  0.24734170605E+03  0.00000000000E+00 0. -1.
         23    2    1    2    0    0  0.27166185986E+02 -0.10793098147E+02  0.68000715502E+02  0.11921251310E+03  0.93450700067E+02 0.  0.
         23    2    1    2    0    0 -0.49725946543E+02  0.28348644750E+02 -0.17072642329E+03  0.20236560510E+03  0.92347231149E+02 0.  0.
        -11    1    4    4    0    0 -0.70597853303E+02  0.17762166920E+02 -0.16161019821E+03  0.17724956313E+03  0.00000000000E+00 0.  1.
         11    1    4    4    0    0  0.20871906761E+02  0.10586477830E+02 -0.91162250808E+01  0.25116041973E+02  0.00000000000E+00 0. -1.
        -13    1    3    3    0    0  0.23999390721E+02 -0.45285149035E+02  0.10853885563E+02  0.52388188649E+02  0.00000000000E+00 0. -1.
         13    1    3    3    0    0  0.31667952645E+01  0.34492050888E+02  0.57146829939E+02  0.66824324455E+02  0.00000000000E+00 0.  1.
          2    1    1    2  501    0  0.22559760557E+02 -0.17555546603E+02 -0.29384558487E+02  0.40995027630E+02  0.00000000000E+00 0.  1.
<scales pt_clust_5="13000.00000" pt_clust_6="13000.00000" pt_clust_7="13000.00000" pt_clust_8="13000.00000" pt_clust_9="28.58566"></scales>
<clustering>
<clus scale="   28.586">  2  9  1 -1</clus>
<clus scale="   92.347">  5  6 -1 -1</clus>
<clus scale="   93.451">  7  8 -1 -1</clus>
<clus scale="   97.919">  2  5  1 -1</clus>
<clus scale="   28.586">  2  5  1 -1</clus>
</clustering>
</event>
<event>
 9    1  0.1426358E-005  0.1338294E+03  0.7546771E-02  0.1245843E+00
         21   -1    0    0  501  502  0.00000000000E+00  0.00000000000E+00  0.28076887276E+02  0.28076887276E+02  0.00000000000E+00 0. -1.
          1   -1    0    0  502    0 -0.00000000000E+00 -0.00000000000E+00 -0.93386192540E+03  0.93386192540E+03  0.00000000000E+00 0. -1.
         23    2    1    2    0    0 -0.21069402629E+02 -0.59099367347E+01 -0.32995745324E+03  0.33995809461E+03  0.78871655662E+02 0.  0.
         23    2    1    2    0    0 -0.80402340126E+02 -0.17475789366E+02 -0.38747982121E+03  0.40676388126E+03  0.92446220790E+02 0.  0.
        -11    1    4    4    0    0 -0.27825718476E+02  0.25415319295E+02 -0.50448838330E+02  0.62970583231E+02  0.00000000000E+00 0.  1.
         11    1    4    4    0    0 -0.52576621650E+02 -0.42891108661E+02 -0.33703098288E+03  0.34379329803E+03  0.00000000000E+00 0. -1.
        -13    1    3    3    0    0 -0.14029919437E+01 -0.41120292893E+02 -0.18289396814E+03  0.18746479792E+03  0.00000000000E+00 0.  1.
         13    1    3    3    0    0 -0.19666410685E+02  0.35210356158E+02 -0.14706348509E+03  0.15249329670E+03  0.00000000000E+00 0. -1.
          1    1    1    2  501    0  0.10147174276E+03  0.23385726101E+02 -0.18834776367E+03  0.21521683680E+03  0.00000000000E+00 0. -1.
<scales pt_clust_5="13000.00000" pt_clust_6="13000.00000" pt_clust_7="13000.00000" pt_clust_8="13000.00000" pt_clust_9="96.76777"></scales>
<clustering>
<clus scale="   78.872">  7  8 -1 -1</clus>
<clus scale="   81.851">  2  7  1 -1</clus>
<clus scale="   92.446">  5  6 -1 -1</clus>
<clus scale="   96.768">  1  9  2 -1</clus>
<clus scale="   96.768">  1  5  2 -1</clus>
</clustering>
</event>
<event>
 9    1  0.1426358E-005  0.1042308E+03  0.7546771E-02  0.1272338E+00
         21   -1    0    0  501  502  0.00000000000E+00  0.00000000000E+00  0.74600228091E+02  0.74600228091E+02  0.00000000000E+00 0.  1.
          3   -1    0    0  502    0 -0.00000000000E+00 -0.00000000000E+00 -0.70049751920E+03  0.70049751920E+03  0.00000000000E+00 0. -1.
         23    2    1    2    0    0  0.13133524823E+02 -0.34028604676E+02 -0.58235708342E+03  0.59158300976E+03  0.97469222912E+02 0.  0.
         23    2    1    2    0    0  0.11702794807E+02  0.18752894001E+02 -0.85366389871E+02  0.13252827241E+03  0.98932785412E+02 0.  0.
        -11    1    3    3    0    0 -0.82364496596E+01 -0.65226029142E+02 -0.39716222992E+03  0.40256690234E+03  0.00000000000E+00 0.  1.
         11    1    3    3    0    0  0.21369974483E+02  0.31197424465E+02 -0.18519485350E+03  0.18901610743E+03  0.00000000000E+00 0. -1.
        -13    1    4    4    0    0 -0.16357488843E+02  0.40009068035E+02 -0.34415566128E+01  0.43360549792E+02  0.00000000000E+00 0.  1.
         13    1    4    4    0    0  0.28060283650E+02 -0.21256174034E+02 -0.81924833258E+02  0.89167722621E+02  0.00000000000E+00 0. -1.
          3    1    1    2  501    0 -0.24836319630E+02  0.15275710675E+02  0.41826182182E+02  0.50986465119E+02  0.00000000000E+00 0. -1.
<scales pt_clust_5="13000.00000" pt_clust_6="13000.00000" pt_clust_7="13000.00000" pt_clust_8="13000.00000" pt_clust_9="29.15802"></scales>
<clustering>
<clus scale="   29.158">  1  9  2 -1</clus>
<clus scale="   97.469">  5  6 -1 -1</clus>
<clus scale="   98.933">  7  8 -1 -1</clus>
<clus scale="  102.843">  2  5  1 -1</clus>
<clus scale="   29.158">  1  5  2 -1</clus>
</clustering>
</event>
<event>
 9    1  0.1426358E-005  0.1078086E+03  0.7546771E-02  0.1267807E+00
         21   -1    0    0  501  502  0.00000000000E+00  0.00000000000E+00  0.50923350454E+03  0.50923350454E+03  0.00000000000E+00 0.  1.
          1   -1    0    0  502    0 -0.00000000000E+00 -0.00000000000E+00 -0.62133293923E+02  0.62133293923E+02  0.00000000000E+00 0. -1.
         23    2    1    2    0    0  0.25614569857E+02 -0.52819530372E+02  0.35438312817E+01  0.11019426111E+03  0.93189095203E+02 0.  0.
         23    2    1    2    0    0 -0.16205015703E+02  0.20216027747E+02  0.36022427235E+03  0.37119605071E+03  0.85753666752E+02 0.  0.
        -11    1    4    4    0    0 -0.23780397566E+02  0.51726040586E+02  0.21612042419E+03  0.22349301630E+03  0.00000000000E+00 0. -1.
         11    1    4    4    0    0  0.75753818622E+01 -0.31510012839E+02  0.14410384817E+03  0.14770303442E+03  0.00000000000E+00 0.  1.
        -13    1    3    3    0    0  0.12086351881E+01  0.26691300050E+02  0.40282735067E+01  0.27020608521E+02  0.00000000000E+00 0. -1.
         13    1    3    3    0    0  0.24405934669E+02 -0.79510830422E+02 -0.48444222500E+00  0.83173652594E+02  0.00000000000E+00 0.  1.
          1    1    1    2  501    0 -0.94095541535E+01  0.32603502625E+02  0.83332106979E+02  0.89976486630E+02  0.00000000000E+00 0. -1.
<scales pt_clust_5="13000.00000" pt_clust_6="13000.00000" pt_clust_7="13000.00000" pt_clust_8="13000.00000" pt_clust_9="33.93417"></scales>
<clustering>
<clus scale="   33.934">  1  9  2 -1</clus>
<clus scale="   85.754">  5  6 -1 -1</clus>
<clus scale="   93.189">  7  8 -1 -1</clus>
<clus scale="  101.450">  1  5  2 -1</clus>
<clus scale="   33.934">  1  5  2 -1</clus>
</clustering>
</event>
<event>
 9    1  0.1426358E-005  0.9843264E+02  0.7546771E-02  0.1283640E+00
         -1   -1    0    0    0  501 -0.00000000000E+00  0.00000000000E+00  0.61757360186E+03  0.61757360186E+03  0.00000000000E+00 0.  1.
         21   -1    0    0  501  502  0.00000000000E+00 -0.00000000000E+00 -0.35203613185E+02  0.35203613185E+02  0.00000000000E+00 0.  1.
         23    2    1    2    0    0 -0.99799034874E+01 -0.44268349760E+02  0.44889816676E+03  0.46029416420E+03  0.91114588369E+02 0.  0.
         23    2    1    2    0    0 -0.20763361347E+02  0.12433612764E+02  0.94760400868E+02  0.13368532188E+03  0.91140110881E+02 0.  0.
        -11    1    3    3    0    0  0.43813844909E+01 -0.68605963540E+02  0.37350808471E+03  0.37978186385E+03  0.00000000000E+00 0.  1.
         11    1    3    3    0    0 -0.14361287978E+02  0.24337613780E+02  0.75390082045E+02  0.80512300350E+02  0.00000000000E+00 0. -1.
        -11    1    4    4    0    0  0.18284477413E+02  0.26692909878E+02  0.85049917351E+02  0.90996274613E+02  0.00000000000E+00 0. -1.
         11    1    4    4    0    0 -0.39047838760E+02 -0.14259297115E+02  0.97104835167E+01  0.42689047262E+02  0.00000000000E+00 0.  1.
         -1    1    1    2    0  502  0.30743264834E+02  0.31834736996E+02  0.38711421048E+02  0.58797728968E+02  0.00000000000E+00 0.  1.
<scales pt_clust_5="13000.00000" pt_clust_6="13000.00000" pt_clust_7="13000.00000" pt_clust_8="13000.00000" pt_clust_9="44.25606"></scales>
<clustering>
<clus scale="   44.256">  2  9  1 -1</clus>
<clus scale="   91.115">  5  6 -1 -1</clus>
<clus scale="   91.140">  7  8 -1 -1</clus>
<clus scale="   98.409">  1  5  2 -1</clus>
<clus scale="   44.256">  2  5  1 -1</clus>
</clustering>
</event>
<event>
 9    1  0.1426358E-005  0.1074357E+03  0.7546771E-02  0.1266414E+00
          3   -1    0    0  502    0 -0.00000000000E+00  0.00000000000E+00  0.12971568939E+03  0.12971568939E+03  0.00000000000E+00 0. -1.
         21   -1    0    0  501  502  0.00000000000E+00 -0.00000000000E+00 -0.24434897038E+03  0.24434897038E+03  0.00000000000E+00 0. -1.
         23    2    1    2    0    0  0.61622788502E+02  0.25737902255E+02  0.41223948319E+02  0.11958186450E+03  0.90225277648E+02 0.  0.
         23    2    1    2    0    0 -0.28638499976E+02 -0.26664610967E+02 -0.57245195875E+01  0.10076665231E+03  0.92682160822E+02 0.  0.
        -13    1    3    3    0    0  0.43023343428E+02 -0.22765457767E+01 -0.21697445820E+02  0.48238676345E+02  0.00000000000E+00 0.  1.
         13    1    3    3    0    0  0.18599445075E+02  0.28014448032E+02  0.62921394138E+02  0.71343188154E+02  0.00000000000E+00 0. -1.
        -13    1    4    4    0    0 -0.51026803966E+01 -0.41378588300E+02  0.32965266886E+02  0.53150105718E+02  0.00000000000E+00 0.  1.
         13    1    4    4    0    0 -0.23535819579E+02  0.14713977333E+02 -0.38689786473E+02  0.47616546594E+02  0.00000000000E+00 0. -1.
          3    1    1    2  501    0 -0.32984288526E+02  0.92670871179E+00 -0.15013270972E+03  0.15371614296E+03  0.00000000000E+00 0. -1.
<scales pt_clust_5="13000.00000" pt_clust_6="13000.00000" pt_clust_7="13000.00000" pt_clust_8="13000.00000" pt_clust_9="32.99730"></scales>
<clustering>
<clus scale="   32.997">  2  9  1 -1</clus>
<clus scale="   90.225">  5  6 -1 -1</clus>
<clus scale="   92.682">  7  8 -1 -1</clus>
<clus scale="  105.324">  1  5  2 -1</clus>
<clus scale="   32.997">  2  5  1 -1</clus>
</clustering>
</event>
<event>
 9    1  0.1426358E-005  0.1206718E+03  0.7546771E-02  0.1242330E+00
         21   -1    0    0  501  502  0.00000000000E+00  0.00000000000E+00  0.35845437813E+03  0.35845437813E+03  0.00000000000E+00 0.  1.
          1   -1    0    0  502    0 -0.00000000000E+00 -0.00000000000E+00 -0.72933672365E+02  0.72933672365E+02  0.00000000000E+00 0. -1.
         23    2    1    2    0    0  0.72593961081E+02  0.17375706350E+02  0.62563146701E+02  0.13370491666E+03  0.91602724077E+02 0.  0.
         23    2    1    2    0    0 -0.66810876080E+02 -0.50611654381E+02  0.74580246128E+02  0.14551907990E+03  0.92673387669E+02 0.  0.
        -13    1    3    3    0    0  0.61935294379E+02  0.43004815988E+02  0.72129170637E+02  0.10434563788E+03  0.00000000000E+00 0.  1.
         13    1    3    3    0    0  0.10658666702E+02 -0.25629109639E+02 -0.95660239353E+01  0.29359278783E+02  0.00000000000E+00 0. -1.
        -13    1    4    4    0    0 -0.48885186891E+02 -0.77658556716E+02  0.47915428793E+02  0.10352053538E+03  0.00000000000E+00 0. -1.
         13    1    4    4    0    0 -0.17925689188E+02  0.27046902335E+02  0.26664817335E+02  0.41998544526E+02  0.00000000000E+00 0.  1.
          1    1    1    2  501    0 -0.57830850014E+01  0.33235948031E+02  0.14837731294E+03  0.15216405393E+03  0.00000000000E+00 0. -1.
<scales pt_clust_5="13000.00000" pt_clust_6="13000.00000" pt_clust_7="13000.00000" pt_clust_8="13000.00000" pt_clust_9="33.73533"></scales>
<clustering>
<clus scale="   33.735">  1  9  2 -1</clus>
<clus scale="   91.603">  5  6 -1 -1</clus>
<clus scale="   92.673">  7  8 -1 -1</clus>
<clus scale="  119.852">  2  5  1 -1</clus>
<clus scale="   33.735">  1  5  2 -1</clus>
</clustering>
</event>
<event>
 9    1  0.1426358E-005  0.1050468E+03  0.7546771E-02  0.1271868E+00
         21   -1    0    0  501  502  0.00000000000E+00  0.00000000000E+00  0.60955185206E+02  0.60955185206E+02  0.00000000000E+00 0. -1.
          1   -1    0    0  502    0 -0.00000000000E+00 -0.00000000000E+00 -0.34714015605E+03  0.34714015605E+03  0.00000000000E+00 0. -1.
         23    2    1    2    0    0 -0.29305737033E+02 -0.17215846379E+02 -0.18930342175E+03  0.21314003153E+03  0.91856823183E+02 0.  0.
         23    2    1    2    0    0  0.42806442170E+02  0.44835590384E+02 -0.11265616528E+03  0.16040161507E+03  0.95888710940E+02 0.  0.
        -11    1    3    3    0    0 -0.44647065073E+01  0.31518266395E+02 -0.12366861355E+03  0.12769988528E+03  0.00000000000E+00 0. -1.
         11    1    3    3    0    0 -0.24841030526E+02 -0.48734112774E+02 -0.65634808198E+02  0.85440146259E+02  0.00000000000E+00 0.  1.
        -11    1    4    4    0    0  0.66437169949E+02  0.85658421167E+01 -0.47276616008E+02  0.81989936109E+02  0.00000000000E+00 0. -1.
         11    1    4    4    0    0 -0.23630727779E+02  0.36269748267E+02 -0.65379549272E+02  0.78411678963E+02  0.00000000000E+00 0.  1.
          1    1    1    2  501    0 -0.13500705137E+02 -0.27619744005E+02  0.15774616188E+02  0.34553694651E+02  0.00000000000E+00 0. -1.
<scales pt_clust_5="13000.00000" pt_clust_6="13000.00000" pt_clust_7="13000.00000" pt_clust_8="13000.00000" pt_clust_9="30.74279"></scales>
<clustering>
<clus scale="   30.743">  1  9  2 -1</clus>
<clus scale="   91.857">  5  6 -1 -1</clus>
<clus scale="   95.889">  7  8 -1 -1</clus>
<clus scale="  101.380">  2  5  1 -1</clus>
<clus scale="   30.743">  1  5  2 -1</clus>
</clustering>
</event>
<event>
 9    1  0.1426358E-005  0.1022990E+03  0.7546771E-02  0.1275858E+00
          2   -1    0    0  502    0 -0.00000000000E+00  0.00000000000E+00  0.18905489487E+03  0.18905489487E+03  0.00000000000E+00 0. -1.
         21   -1    0    0  501  502  0.00000000000E+00 -0.00000000000E+00 -0.37569060568E+03  0.37569060568E+03  0.00000000000E+00 0. -1.
         23    2    1    2    0    0  0.19958083018E+01 -0.45926701028E+02  0.16336685373E+03  0.19270052981E+03  0.91277161303E+02 0.  0.
         23    2    1    2    0    0  0.14874825288E+02  0.25153195553E+02 -0.23659418031E+03  0.25552193258E+03  0.91982108058E+02 0.  0.
        -13    1    3    3    0    0 -0.17003116354E+02  0.22878552346E+02  0.66699628845E+02  0.72535333536E+02  0.00000000000E+00 0.  1.
         13    1    3    3    0    0  0.18998924656E+02 -0.68805253374E+02  0.96667224883E+02  0.12016519628E+03  0.00000000000E+00 0. -1.
        -13    1    4    4    0    0  0.29890943000E+02 -0.27758473395E+02 -0.85613192393E+02  0.94834698451E+02  0.00000000000E+00 0. -1.
         13    1    4    4    0    0 -0.15016117712E+02  0.52911668948E+02 -0.15098098791E+03  0.16068723413E+03  0.00000000000E+00 0.  1.
          2    1    1    2  501    0 -0.16870633590E+02  0.20773505475E+02 -0.11340838423E+03  0.11652303816E+03  0.00000000000E+00 0. -1.
<scales pt_clust_5="13000.00000" pt_clust_6="13000.00000" pt_clust_7="13000.00000" pt_clust_8="13000.00000" pt_clust_9="26.76111"></scales>
<clustering>
<clus scale="   26.761">  2  9  1 -1</clus>
<clus scale="   91.277">  5  6 -1 -1</clus>
<clus scale="   91.982">  7  8 -1 -1</clus>
<clus scale="  101.666">  1  5  2 -1</clus>
<clus scale="   26.761">  2  5  1 -1</clus>
</clustering>
</event>
<event>
 9    1  0.1426358E-005  0.1097794E+03  0.7546771E-02  0.1262857E+00
         21   -1    0    0  501  502  0.00000000000E+00  0.00000000000E+00  0.60915534012E+02  0.60915534012E+02  0.00000000000E+00 0.  1.
          1   -1    0    0  502    0 -0.00000000000E+00 -0.00000000000E+00 -0.46901728708E+03  0.46901728708E+03  0.00000000000E+00 0. -1.
         23    2    1    2    0    0 -0.53233551405E+01 -0.63295716565E+02 -0.31263164683E+03  0.33098200667E+03  0.88180815898E+02 0.  0.
         23    2    1    2    0    0  0.20437445071E+02  0.45509092940E+02 -0.12355230681E+03  0.16243493180E+03  0.92904078746E+02 0.  0.
        -13    1    3    3    0    0  0.35163432214E+02 -0.50287006370E+02 -0.23006688252E+03  0.23810926149E+03  0.00000000000E+00 0.  1.
         13    1    3    3    0    0 -0.40486787355E+02 -0.13008710195E+02 -0.82564764310E+02  0.92872745177E+02  0.00000000000E+00 0. -1.
        -13    1    4    4    0    0  0.25421327006E+02 -0.22959412082E+02 -0.58884877805E+02  0.68123471021E+02  0.00000000000E+00 0.  1.
         13    1    4    4    0    0 -0.49838819345E+01  0.68468505022E+02 -0.64667429010E+02  0.94311460777E+02  0.00000000000E+00 0. -1.
          1    1    1    2  501    0 -0.15114089931E+02  0.17786623625E+02  0.28082200580E+02  0.36515882624E+02  0.00000000000E+00 0. -1.
<scales pt_clust_5="13000.00000" pt_clust_6="13000.00000" pt_clust_7="13000.00000" pt_clust_8="13000.00000" pt_clust_9="23.34094"></scales>
<clustering>
<clus scale="   23.341">  1  9  2 -1</clus>
<clus scale="   88.181">  5  6 -1 -1</clus>
<clus scale="   92.904">  7  8 -1 -1</clus>
<clus scale="  105.812">  2  5  1 -1</clus>
<clus scale="   23.341">  1  5  2 -1</clus>
</clustering>
</event>
<event>
 9    1  0.1426358E-005  0.1058997E+03  0.7546771E-02  0.1269420E+00
         21   -1    0    0  501  502  0.00000000000E+00  0.00000000000E+00  0.10121624876E+03  0.10121624876E+03  0.00000000000E+00 0. -1.
          2   -1    0    0  502    0 -0.00000000000E+00 -0.00000000000E+00 -0.20932698403E+03  0.20932698403E+03  0.00000000000E+00 0. -1.
         23    2    1    2    0    0  0.59637811043E+02  0.12184009727E+02 -0.83793024782E+02  0.13607611306E+03  0.88262783465E+02 0.  0.
         23    2    1    2    0    0 -0.37616710045E+02 -0.35937655512E+02 -0.64450112405E+02  0.12289412039E+03  0.90788853272E+02 0.  0.
        -11    1    3    3    0    0  0.24181632339E+02  0.13260055520E+02 -0.94962957496E+02  0.98886519361E+02  0.00000000000E+00 0. -1.
         11    1    3    3    0    0  0.35456178705E+02 -0.10760457927E+01  0.11169932714E+02  0.37189593702E+02  0.00000000000E+00 0.  1.
        -11    1    4    4    0    0 -0.23009470578E+02 -0.66076617295E+02 -0.34715477888E+02  0.78107102714E+02  0.00000000000E+00 0.  1.
         11    1    4    4    0    0 -0.14607239467E+02  0.30138961783E+02 -0.29734634517E+02  0.44787017673E+02  0.00000000000E+00 0. -1.
          2    1    1    2  501    0 -0.22021100999E+02  0.23753645785E+02  0.40132401917E+02  0.51572999339E+02  0.00000000000E+00 0. -1.
<scales pt_clust_5="13000.00000" pt_clust_6="13000.00000" pt_clust_7="13000.00000" pt_clust_8="13000.00000" pt_clust_9="32.39081"></scales>
<clustering>
<clus scale="   32.391">  1  9  2 -1</clus>
<clus scale="   88.263">  5  6 -1 -1</clus>
<clus scale="   90.789">  7  8 -1 -1</clus>
<clus scale="  103.742">  2  5  1 -1</clus>
<clus scale="   32.391">  1  5  2 -1</clus>
</clustering>
</event>
<event>
 9    1  0.1426358E-005  0.9800265E+02  0.7546771E-02  0.1284971E+00
         21   -1    0    0  501  502  0.00000000000E+00  0.00000000000E+00  0.56161461546E+02  0.56161461546E+02  0.00000000000E+00 0. -1.
          1   -1    0    0  502    0 -0.00000000000E+00 -0.00000000000E+00 -0.56833704603E+03  0.56833704603E+03  0.00000000000E+00 0. -1.
         23    2    1    2    0    0 -0.20484365870E+02  0.20664610770E+02 -0.43056345045E+03  0.44129113101E+03  0.92229832840E+02 0.  0.
         23    2    1    2    0    0  0.28782049750E+02 -0.40119436565E+02 -0.10768656050E+03  0.14963331633E+03  0.91409837910E+02 0.  0.
        -13    1    4    4    0    0  0.35370379390E+02 -0.68698364792E+01 -0.10990911637E+03  0.11566448138E+03  0.00000000000E+00 0. -1.
         13    1    4    4    0    0 -0.65883296406E+01 -0.33249600086E+02  0.22225558743E+01  0.33968834951E+02  0.00000000000E+00 0.  1.
        -13    1    3    3    0    0  0.23439726656E+02  0.40690677706E+02 -0.17397736473E+03  0.18020342804E+03  0.00000000000E+00 0. -1.
         13    1    3    3    0    0 -0.43924092526E+02 -0.20026066936E+02 -0.25658608571E+03  0.26108770297E+03  0.00000000000E+00 0.  1.
          1    1    1    2  501    0 -0.82976838795E+01  0.19454825795E+02  0.26074426467E+02  0.33574060226E+02  0.00000000000E+00 0. -1.
<scales pt_clust_5="13000.00000" pt_clust_6="13000.00000" pt_clust_7="13000.00000" pt_clust_8="13000.00000" pt_clust_9="21.15046"></scales>
<clustering>
<clus scale="   21.150">  1  9  2 -1</clus>
<clus scale="   91.410">  5  6 -1 -1</clus>
<clus scale="   92.230">  7  8 -1 -1</clus>
<clus scale="   97.231">  1  5  2 -1</clus>
<clus scale="   21.150">  1  5  2 -1</clus>
</clustering>
</event>
<event>
 9    1  0.1426358E-005  0.1031765E+03  0.7546771E-02  0.1274017E+00
         -2   -1    0    0    0  501 -0.00000000000E+00  0.00000000000E+00  0.30273551811E+03  0.30273551811E+03  0.00000000000E+00 0.  1.
         21   -1    0    0  501  502  0.00000000000E+00 -0.00000000000E+00 -0.13010655164E+03  0.13010655164E+03  0.00000000000E+00 0. -1.
         23    2    1    2    0    0  0.15873764439E+02  0.50162294928E+02  0.24877214090E+03  0.27048892585E+03  0.92241252639E+02 0.  0.
         23    2    1    2    0    0 -0.65070446804E+01 -0.97255895721E+01 -0.23558442564E+02  0.95360483079E+02  0.91660748383E+02 0.  0.
        -11    1    3    3    0    0  0.51729607893E+02  0.46330212739E+02  0.14864667153E+03  0.16406789418E+03  0.00000000000E+00 0.  1.
         11    1    3    3    0    0 -0.35855843454E+02  0.38320821895E+01  0.10012546937E+03  0.10642103166E+03  0.00000000000E+00 0. -1.
        -11    1    4    4    0    0 -0.40940962829E+01  0.39300583476E+02 -0.24079433941E+02  0.46272201426E+02  0.00000000000E+00 0.  1.
         11    1    4    4    0    0 -0.24129483975E+01 -0.49026173048E+02  0.52099137630E+00  0.49088281653E+02  0.00000000000E+00 0. -1.
         -2    1    1    2    0  502 -0.93667197584E+01 -0.40436705356E+02 -0.52584731859E+02  0.66992660820E+02  0.00000000000E+00 0.  1.
<scales pt_clust_5="13000.00000" pt_clust_6="13000.00000" pt_clust_7="13000.00000" pt_clust_8="13000.00000" pt_clust_9="41.50738"></scales>
<clustering>
<clus scale="   41.507">  2  9  1 -1</clus>
<clus scale="   91.661">  7  8 -1 -1</clus>
<clus scale="   92.241">  5  6 -1 -1</clus>
<clus scale="  102.658">  2  7  1 -1</clus>
<clus scale="   41.507">  2  5  1 -1</clus>
</clustering>
</event>
<event>
 9    1  0.1426358E-005  0.1227023E+03  0.7546771E-02  0.1240839E+00
         21   -1    0    0  501  502  0.00000000000E+00  0.00000000000E+00  0.43332880675E+02  0.43332880675E+02  0.00000000000E+00 0.  1.
          2   -1    0    0  502    0 -0.00000000000E+00 -0.00000000000E+00 -0.55824159894E+03  0.55824159894E+03  0.00000000000E+00 0. -1.
         23    2    1    2    0    0  0.24044137871E+02 -0.77152609990E+02 -0.26137005675E+03  0.28800655739E+03  0.90015691617E+02 0.  0.
         23    2    1    2    0    0  0.31995087744E+02  0.73278921203E+02 -0.19908318540E+03  0.23533238586E+03  0.96714689641E+02 0.  0.
        -11    1    3    3    0    0  0.40619163168E+02 -0.56042966664E+02 -0.24902350573E+03  0.25846360853E+03  0.00000000000E+00 0.  1.
         11    1    3    3    0    0 -0.16575025297E+02 -0.21109643327E+02 -0.12346551021E+02  0.29542948856E+02  0.00000000000E+00 0. -1.
        -13    1    4    4    0    0 -0.29641360005E+02  0.19208556317E+02 -0.10371106899E+03  0.10956078080E+03  0.00000000000E+00 0. -1.
         13    1    4    4    0    0  0.61636447749E+02  0.54070364885E+02 -0.95372116406E+02  0.12577160505E+03  0.00000000000E+00 0.  1.
          2    1    1    2  501    0 -0.56039225615E+02  0.38736887877E+01 -0.54455476117E+02  0.78235536372E+02  0.00000000000E+00 0. -1.
<scales pt_clust_5="13000.00000" pt_clust_6="13000.00000" pt_clust_7="13000.00000" pt_clust_8="13000.00000" pt_clust_9="56.17295"></scales>
<clustering>
<clus scale="   56.173">  1  9  2 -1</clus>
<clus scale="   90.016">  5  6 -1 -1</clus>
<clus scale="   96.715">  7  8 -1 -1</clus>
<clus scale="  117.494">  2  5  1 -1</clus>
<clus scale="   56.173">  1  5  2 -1</clus>
</clustering>
</event>
<event>
 9    1  0.1426358E-005  0.1823331E+03  0.7546771E-02  0.1167287E+00
         21   -1    0    0  501  502  0.00000000000E+00  0.00000000000E+00  0.32431991980E+03  0.32431991980E+03  0.00000000000E+00 0.  1.
          3   -1    0    0  502    0 -0.00000000000E+00 -0.00000000000E+00 -0.12167331720E+03  0.12167331720E+03  0.00000000000E+00 0. -1.
         23    2    1    2    0    0  0.14446002474E+03  0.82237007699E+02  0.69513270367E+02  0.19664909714E+03  0.78785458459E+02 0.  0.
         23    2    1    2    0    0 -0.11053174923E+03 -0.96530815143E+02  0.10932788418E+03  0.20550192087E+03  0.93503943008E+02 0.  0.
        -11    1    4    4    0    0 -0.50170313218E+02 -0.89632375408E+02  0.32879152881E+02  0.10785203635E+03  0.00000000000E+00 0. -1.
         11    1    4    4    0    0 -0.60361436017E+02 -0.68984397346E+01  0.76448731304E+02  0.97649884520E+02  0.00000000000E+00 0.  1.
        -11    1    3    3    0    0  0.10377877157E+02  0.41530098081E+02  0.76929620001E+01  0.43492884995E+02  0.00000000000E+00 0. -1.
         11    1    3    3    0    0  0.13408214758E+03  0.40706909618E+02  0.61820308367E+02  0.15315621214E+03  0.00000000000E+00 0.  1.
          3    1    1    2  501    0 -0.33928275503E+02  0.14293807444E+02  0.23805448048E+02  0.43842218998E+02  0.00000000000E+00 0. -1.
<scales pt_clust_5="13000.00000" pt_clust_6="13000.00000" pt_clust_7="13000.00000" pt_clust_8="13000.00000" pt_clust_9="36.81631"></scales>
<clustering>
<clus scale="   36.816">  1  9  2 -1</clus>
<clus scale="   78.785">  7  8 -1 -1</clus>
<clus scale="   93.504">  5  6 -1 -1</clus>
<clus scale="  175.241">  2  7  1 -1</clus>
<clus scale="   36.816">  1  5  2 -1</clus>
</clustering>
</event>
<event>
 9    1  0.1426358E-005  0.1175576E+03  0.7546771E-02  0.1248948E+00
         21   -1    0    0  501  502  0.00000000000E+00  0.00000000000E+00  0.77608975505E+02  0.77608975505E+02  0.00000000000E+00 0. -1.
         -1   -1    0    0    0  501 -0.00000000000E+00 -0.00000000000E+00 -0.27754658540E+03  0.27754658540E+03  0.00000000000E+00 0.  1.
         23    2    1    2    0    0 -0.72255605127E+02 -0.36346387058E+02 -0.14554714866E+03  0.18890372427E+03  0.89211614920E+02 0.  0.
         23    2    1    2    0    0  0.53702852547E+02  0.48463903707E+02 -0.76825722662E+02  0.13471804851E+03  0.83749714010E+02 0.  0.
        -11    1    3    3    0    0 -0.33311015825E+02  0.26493123981E+02 -0.31334656872E+02  0.52852342567E+02  0.00000000000E+00 0.  1.
         11    1    3    3    0    0 -0.38944589302E+02 -0.62839511039E+02 -0.11421249179E+03  0.13605138171E+03  0.00000000000E+00 0. -1.
        -13    1    4    4    0    0  0.33842732241E+02 -0.13657439761E+02 -0.36189775693E+01  0.36673603382E+02  0.00000000000E+00 0. -1.
         13    1    4    4    0    0  0.19860120306E+02  0.62121343468E+02 -0.73206745093E+02  0.98044445125E+02  0.00000000000E+00 0.  1.
         -1    1    1    2    0  502  0.18552752580E+02 -0.12117516649E+02  0.22435261429E+02  0.31533788123E+02  0.00000000000E+00 0.  1.
<scales pt_clust_5="13000.00000" pt_clust_6="13000.00000" pt_clust_7="13000.00000" pt_clust_8="13000.00000" pt_clust_9="22.15940"></scales>
<clustering>
<clus scale="   22.159">  1  9  2 -1</clus>
<clus scale="   83.750">  7  8 -1 -1</clus>
<clus scale="   89.212">  5  6 -1 -1</clus>
<clus scale="  113.469">  1  7  2 -1</clus>
<clus scale="   22.159">  1  5  2 -1</clus>
</clustering>
</event>
<event>
 9    1  0.1426358E-005  0.9334293E+02  0.7546771E-02  0.1295040E+00
          1   -1    0    0  502    0 -0.00000000000E+00  0.00000000000E+00  0.10882850250E+03  0.10882850250E+03  0.00000000000E+00 0. -1.
         21   -1    0    0  501  502  0.00000000000E+00 -0.00000000000E+00 -0.28653015923E+03  0.28653015923E+03  0.00000000000E+00 0.  1.
         23    2    1    2    0    0 -0.11641183690E+02 -0.58796003623E+01  0.65412064998E+02  0.11341339108E+03  0.91726616480E+02 0.  0.
         23    2    1    2    0    0  0.44194458160E+02  0.25374749915E+02 -0.17520281308E+03  0.20415280284E+03  0.91571355407E+02 0.  0.
        -11    1    3    3    0    0  0.37507433353E+02 -0.17170112006E+02  0.37642376271E+02  0.55844147360E+02  0.00000000000E+00 0.  1.
         11    1    3    3    0    0 -0.49148617044E+02  0.11290511644E+02  0.27769688727E+02  0.57569243720E+02  0.00000000000E+00 0. -1.
        -13    1    4    4    0    0  0.72117214197E+02  0.16403688728E+02 -0.10875582820E+03  0.13152111524E+03  0.00000000000E+00 0. -1.
         13    1    4    4    0    0 -0.27922756037E+02  0.89710611863E+01 -0.66446984885E+02  0.72631687601E+02  0.00000000000E+00 0.  1.
          1    1    1    2  501    0 -0.32553274469E+02 -0.19495149552E+02 -0.67910908641E+02  0.77792467805E+02  0.00000000000E+00 0. -1.
<scales pt_clust_5="13000.00000" pt_clust_6="13000.00000" pt_clust_7="13000.00000" pt_clust_8="13000.00000" pt_clust_9="37.94439"></scales>
<clustering>
<clus scale="   37.944">  2  9  1 -1</clus>
<clus scale="   91.571">  7  8 -1 -1</clus>
<clus scale="   91.727">  5  6 -1 -1</clus>
<clus scale="   93.190">  2  7  1 -1</clus>
<clus scale="   37.944">  2  5  1 -1</clus>
</clustering>
</event>
<event>
 9    1  0.1426358E-005  0.1188045E+03  0.7546771E-02  0.1245639E+00
         21   -1    0    0  501  502  0.00000000000E+00  0.00000000000E+00  0.86854025433E+02  0.86854025433E+02  0.00000000000E+00 0. -1.
         -3   -1    0    0    0  501 -0.00000000000E+00 -0.00000000000E+00 -0.19738881378E+03  0.19738881378E+03  0.00000000000E+00 0.  1.
         23    2    1    2    0    0 -0.59959828623E+02  0.59793599994E+02 -0.77011409924E+02  0.14680593719E+03  0.91928071261E+02 0.  0.
         23    2    1    2    0    0  0.42838795877E+02 -0.48160589986E+02 -0.36046326293E+02  0.11658451726E+03  0.90210903811E+02 0.  0.
        -11    1    3    3    0    0  0.14493256250E+02  0.45551834986E+02 -0.19373071458E+02  0.51578484322E+02  0.00000000000E+00 0.  1.
         11    1    3    3    0    0 -0.74453084873E+02  0.14241765008E+02 -0.57638338467E+02  0.95227452863E+02  0.00000000000E+00 0. -1.
        -13    1    4    4    0    0 -0.18199961494E+02 -0.45623180189E+02 -0.22408156593E+02  0.53989245696E+02  0.00000000000E+00 0.  1.
         13    1    4    4    0    0  0.61038757371E+02 -0.25374097962E+01 -0.13638169699E+02  0.62595271567E+02  0.00000000000E+00 0. -1.
         -3    1    1    2    0  502  0.17121032746E+02 -0.11633010009E+02  0.25229478743E+01  0.20852384758E+02  0.00000000000E+00 0.  1.
<scales pt_clust_5="13000.00000" pt_clust_6="13000.00000" pt_clust_7="13000.00000" pt_clust_8="13000.00000" pt_clust_9="20.69920"></scales>
<clustering>
<clus scale="   20.699">  1  9  2 -1</clus>
<clus scale="   90.211">  7  8 -1 -1</clus>
<clus scale="   91.928">  5  6 -1 -1</clus>
<clus scale="  117.481">  1  7  2 -1</clus>
<clus scale="   20.699">  1  5  2 -1</clus>
</clustering>
</event>
<event>
 9    1  0.1426358E-005  0.1287899E+03  0.7546771E-02  0.1229349E+00
          2   -1    0    0  502    0 -0.00000000000E+00  0.00000000000E+00  0.53485028544E+03  0.53485028544E+03  0.00000000000E+00 0. -1.
         21   -1    0    0  501  502  0.00000000000E+00 -0.00000000000E+00 -0.55467671770E+02  0.55467671770E+02  0.00000000000E+00 0.  1.
         23    2    1    2    0    0 -0.39926203701E+02 -0.81620702512E+02  0.29239636697E+03  0.31929481911E+03  0.90540075530E+02 0.  0.
         23    2    1    2    0    0  0.80535079357E+02  0.58979991310E+02  0.17887351124E+03  0.22382674986E+03  0.90211654176E+02 0.  0.
        -11    1    4    4    0    0  0.32106153107E+02 -0.11308578782E+02  0.10685681759E+03  0.11214753001E+03  0.00000000000E+00 0. -1.
         11    1    4    4    0    0  0.48428926251E+02  0.70288570092E+02  0.72016693649E+02  0.11167921986E+03  0.00000000000E+00 0.  1.
        -11    1    3    3    0    0 -0.19908554662E+02 -0.38753586322E+02  0.30557481457E+02  0.53216075339E+02  0.00000000000E+00 0.  1.
         11    1    3    3    0    0 -0.20017649039E+02 -0.42867116190E+02  0.26183888551E+03  0.26607874377E+03  0.00000000000E+00 0. -1.
          2    1    1    2  501    0 -0.40608875657E+02  0.22640711203E+02  0.81127354672E+01  0.47196388237E+02  0.00000000000E+00 0. -1.
<scales pt_clust_5="13000.00000" pt_clust_6="13000.00000" pt_clust_7="13000.00000" pt_clust_8="13000.00000" pt_clust_9="46.49390"></scales>
<clustering>
<clus scale="   46.494">  2  9  1 -1</clus>
<clus scale="   90.212">  5  6 -1 -1</clus>
<clus scale="   90.540">  7  8 -1 -1</clus>
<clus scale="  128.559">  2  5  1 -1</clus>
<clus scale="   46.494">  2  5  1 -1</clus>
</clustering>
</event>
<event>
 9    1  0.1426358E-005  0.2142470E+03  0.7546771E-02  0.1156207E+00
         21   -1    0    0  501  502  0.00000000000E+00  0.00000000000E+00  0.16904338215E+03  0.16904338215E+03  0.00000000000E+00 0. -1.
          1   -1    0    0  502    0 -0.00000000000E+00 -0.00000000000E+00 -0.73700335278E+03  0.73700335278E+03  0.00000000000E+00 0. -1.
         23    2    1    2    0    0 -0.22848123975E+02  0.10309503721E+03 -0.38922703884E+03  0.41353461154E+03  0.91447054156E+02 0.  0.
         23    2    1    2    0    0  0.17405922834E+03 -0.18740284547E+03 -0.16721587266E+03  0.31900348594E+03  0.91573110220E+02 0.  0.
        -11    1    4    4    0    0  0.15262749919E+03 -0.18871907053E+03 -0.12825284560E+03  0.27451563434E+03  0.00000000000E+00 0. -1.
         11    1    4    4    0    0  0.21431729150E+02  0.13162250658E+01 -0.38963027060E+02  0.44487851605E+02  0.00000000000E+00 0.  1.
        -13    1    3    3    0    0 -0.40585296415E+02  0.82795614110E+02 -0.36756015630E+03  0.37894953292E+03  0.00000000000E+00 0.  1.
         13    1    3    3    0    0  0.17737172440E+02  0.20299423096E+02 -0.21666882534E+02  0.34585078617E+02  0.00000000000E+00 0. -1.
          1    1    1    2  501    0 -0.15121110437E+03  0.84307808260E+02 -0.11517059124E+02  0.17350863745E+03  0.00000000000E+00 0. -1.
<scales pt_clust_5="13000.00000" pt_clust_6="13000.00000" pt_clust_7="13000.00000" pt_clust_8="13000.00000" pt_clust_9="193.69086"></scales>
<clustering>
<clus scale="   91.447">  7  8 -1 -1</clus>
<clus scale="   91.573">  5  6 -1 -1</clus>
<clus scale="  139.690">  2  7  1 -1</clus>
<clus scale="  193.691">  1  9  2 -1</clus>
<clus scale="  193.691">  1  5  2 -1</clus>
</clustering>
</event>
<event>
 9    1  0.1426358E-005  0.1965516E+03  0.7546771E-02  0.1154557E+00
          3   -1    0    0  502    0 -0.00000000000E+00  0.00000000000E+00  0.10344706774E+04  0.10344706774E+04  0.00000000000E+00 0. -1.
         21   -1    0    0  501  502  0.00000000000E+00 -0.00000000000E+00 -0.58151393660E+02  0.58151393660E+02  0.00000000000E+00 0.  1.
         23    2    1    2    0    0 -0.15184990810E+03 -0.25755189490E+02  0.60361463342E+03  0.63237578660E+03  0.10875102492E+03 0.  0.
         23    2    1    2    0    0  0.17725680623E+03  0.36365392017E+02  0.38072118589E+03  0.43156960910E+03  0.92527233950E+02 0.  0.
        -11    1    4    4    0    0  0.68972067882E+02 -0.28714745501E+02  0.11199853739E+03  0.13463043911E+03  0.00000000000E+00 0. -1.
         11    1    4    4    0    0  0.10828473834E+03  0.65080137518E+02  0.26872264850E+03  0.29693916999E+03  0.00000000000E+00 0.  1.
        -11    1    3    3    0    0 -0.33085145897E+02 -0.26917797977E+02  0.48015568731E+02  0.64223746134E+02  0.00000000000E+00 0.  1.
         11    1    3    3    0    0 -0.11876476221E+03  0.11626084864E+01  0.55559906469E+03  0.56815204046E+03  0.00000000000E+00 0. -1.
          3    1    1    2  501    0 -0.25406898122E+02 -0.10610202526E+02 -0.80165355362E+01  0.28676675397E+02  0.00000000000E+00 0. -1.
<scales pt_clust_5="13000.00000" pt_clust_6="13000.00000" pt_clust_7="13000.00000" pt_clust_8="13000.00000" pt_clust_9="27.53338"></scales>
<clustering>
<clus scale="   27.533">  2  9  1 -1</clus>
<clus scale="   92.527">  5  6 -1 -1</clus>
<clus scale="  108.751">  7  8 -1 -1</clus>
<clus scale="  188.061">  2  5  1 -1</clus>
<clus scale="   27.533">  2  5  1 -1</clus>
</clustering>
</event>
<event>
 9    1  0.1426358E-005  0.1393156E+03  0.7546771E-02  0.1240146E+00
         21   -1    0    0  501  502  0.00000000000E+00  0.00000000000E+00  0.11911489551E+03  0.11911489551E+03  0.00000000000E+00 0. -1.
         -3   -1    0    0    0  501 -0.00000000000E+00 -0.00000000000E+00 -0.24528656264E+03  0.24528656264E+03  0.00000000000E+00 0.  1.
         23    2    1    2    0    0  0.13475835052E+02 -0.30392638502E+01 -0.26837885274E+02  0.85720525912E+02  0.80230301144E+02 0.  0.
         23    2    1    2    0    0 -0.11129531981E+03  0.30418348036E+02 -0.98661000317E+02  0.17709983909E+03  0.91205459882E+02 0.  0.
        -11    1    4    4    0    0 -0.75432977663E+02  0.60136619183E+02 -0.46249708853E+02  0.10698402991E+03  0.00000000000E+00 0. -1.
         11    1    4    4    0    0 -0.35862342148E+02 -0.29718271147E+02 -0.52411291464E+02  0.70115809182E+02  0.00000000000E+00 0.  1.
        -13    1    3    3    0    0  0.46905231850E+02  0.11048601206E+01 -0.21519708334E+02  0.51618013693E+02  0.00000000000E+00 0.  1.
         13    1    3    3    0    0 -0.33429396798E+02 -0.41441239708E+01 -0.53181769405E+01  0.34102512220E+02  0.00000000000E+00 0. -1.
         -3    1    1    2    0  502  0.97819484759E+02 -0.27379084186E+02 -0.67278153875E+00  0.10158109314E+03  0.00000000000E+00 0.  1.
<scales pt_clust_5="13000.00000" pt_clust_6="13000.00000" pt_clust_7="13000.00000" pt_clust_8="13000.00000" pt_clust_9="105.31097"></scales>
<clustering>
<clus scale="   80.230">  7  8 -1 -1</clus>
<clus scale="   81.411">  2  7  1 -1</clus>
<clus scale="   91.205">  5  6 -1 -1</clus>
<clus scale="  105.311">  1  9  2 -1</clus>
<clus scale="  105.311">  1  5  2 -1</clus>
</clustering>
</event>
<event>
 9    1  0.1426358E-005  0.2008640E+03  0.7546771E-02  0.1173299E+00
         21   -1    0    0  501  502  0.00000000000E+00  0.00000000000E+00  0.18481228135E+03  0.18481228135E+03  0.00000000000E+00 0.  1.
         -2   -1    0    0    0  501 -0.00000000000E+00 -0.00000000000E+00 -0.33722402910E+03  0.33722402910E+03  0.00000000000E+00 0.  1.
         23    2    1    2    0    0  0.26334250097E+02 -0.64410767780E+02 -0.59409912859E+02  0.12877007933E+03  0.90608806687E+02 0.  0.
         23    2    1    2    0    0  0.15006908437E+03  0.13766514440E+02 -0.97049050093E+02  0.20969238561E+03  0.10882155786E+03 0.  0.
        -11    1    3    3    0    0  0.18330501652E+02 -0.86477062614E+02 -0.35489727853E+02  0.95256550600E+02  0.00000000000E+00 0.  1.
         11    1    3    3    0    0  0.80037484454E+01  0.22066294834E+02 -0.23920185006E+02  0.33513528725E+02  0.00000000000E+00 0. -1.
        -13    1    4    4    0    0  0.89811905281E+02  0.61630226762E+02 -0.56116802804E+02  0.12252982795E+03  0.00000000000E+00 0. -1.
         13    1    4    4    0    0  0.60257179089E+02 -0.47863712321E+02 -0.40932247289E+02  0.87162557656E+02  0.00000000000E+00 0.  1.
         -2    1    1    2    0  502 -0.17640333447E+03  0.50644253340E+02  0.40472152088E+01  0.18357384552E+03  0.00000000000E+00 0.  1.
<scales pt_clust_5="13000.00000" pt_clust_6="13000.00000" pt_clust_7="13000.00000" pt_clust_8="13000.00000" pt_clust_9="168.83192"></scales>
<clustering>
<clus scale="   90.609">  5  6 -1 -1</clus>
<clus scale="  108.822">  7  8 -1 -1</clus>
<clus scale="  114.246">  2  5  1 -1</clus>
<clus scale="  168.832">  1  9  2 -1</clus>
<clus scale="  168.832">  1  5  2 -1</clus>
</clustering>
</event>
<event>
 9    1  0.1426358E-005  0.1053591E+03  0.7546771E-02  0.1269546E+00
         21   -1    0    0  501  502  0.00000000000E+00  0.00000000000E+00  0.10329416684E+03  0.10329416684E+03  0.00000000000E+00 0.  1.
          4   -1    0    0  502    0 -0.00000000000E+00 -0.00000000000E+00 -0.16309633377E+03  0.16309633377E+03  0.00000000000E+00 0. -1.
         23    2    1    2    0    0  0.21924865537E+02 -0.30700566907E+02 -0.72402247176E+01  0.98000984363E+02  0.90158457978E+02 0.  0.
         23    2    1    2    0    0 -0.19538736917E+02  0.71065701007E+02 -0.23409312619E+02  0.11854060982E+03  0.89843108573E+02 0.  0.
        -13    1    3    3    0    0  0.42012919241E+02 -0.50229270298E+01 -0.35209580442E+02  0.55045705864E+02  0.00000000000E+00 0.  1.
         13    1    3    3    0    0 -0.20088053704E+02 -0.25677639878E+02  0.27969355725E+02  0.42955278499E+02  0.00000000000E+00 0. -1.
        -13    1    4    4    0    0 -0.25302755177E+02  0.37768480324E+02  0.30621881372E+02  0.54812290084E+02  0.00000000000E+00 0.  1.
         13    1    4    4    0    0  0.57640182595E+01  0.33297220683E+02 -0.54031193990E+02  0.63728319731E+02  0.00000000000E+00 0. -1.
          4    1    1    2  501    0 -0.23861286203E+01 -0.40365134100E+02 -0.29152629585E+02  0.49848906432E+02  0.00000000000E+00 0. -1.
<scales pt_clust_5="13000.00000" pt_clust_6="13000.00000" pt_clust_7="13000.00000" pt_clust_8="13000.00000" pt_clust_9="40.43562"></scales>
<clustering>
<clus scale="   40.436">  1  9  2 -1</clus>
<clus scale="   89.843">  7  8 -1 -1</clus>
<clus scale="   90.158">  5  6 -1 -1</clus>
<clus scale="  105.089">  1  7  2 -1</clus>
<clus scale="   40.436">  1  5  2 -1</clus>
</clustering>
</event>
<event>
 9    1  0.1426358E-005  0.9956724E+02  0.7546771E-02  0.1283940E+00
          1   -1    0    0  502    0 -0.00000000000E+00  0.00000000000E+00  0.61631108086E+03  0.61631108086E+03  0.00000000000E+00 0. -1.
         21   -1    0    0  501  502  0.00000000000E+00 -0.00000000000E+00 -0.10819803656E+03  0.10819803656E+03  0.00000000000E+00 0. -1.
         23    2    1    2    0    0 -0.39967315350E+02  0.17142815341E+02  0.48831230097E+03  0.49901863667E+03  0.93163480249E+02 0.  0.
         23    2    1    2    0    0  0.13567874933E+02  0.38837592003E+02  0.89739280682E+02  0.13209810703E+03  0.87774287806E+02 0.  0.
        -11    1    3    3    0    0 -0.79803690789E+01  0.53313745836E+02  0.28475790241E+03  0.28981563928E+03  0.00000000000E+00 0. -1.
         11    1    3    3    0    0 -0.31986946271E+02 -0.36170930495E+02  0.20355439856E+03  0.20920299739E+03  0.00000000000E+00 0.  1.
        -13    1    4    4    0    0  0.16780825755E+02 -0.14344884756E+02 -0.56943638920E+01  0.22799070416E+02  0.00000000000E+00 0.  1.
         13    1    4    4    0    0 -0.32129508221E+01  0.53182476760E+02  0.95433644574E+02  0.10929903661E+03  0.00000000000E+00 0. -1.
          1    1    1    2  501    0  0.26399440417E+02 -0.55980407344E+02 -0.69938537353E+02  0.93392373714E+02  0.00000000000E+00 0. -1.
<scales pt_clust_5="13000.00000" pt_clust_6="13000.00000" pt_clust_7="13000.00000" pt_clust_8="13000.00000" pt_clust_9="61.89294"></scales>
<clustering>
<clus scale="   61.893">  2  9  1 -1</clus>
<clus scale="   87.774">  7  8 -1 -1</clus>
<clus scale="   93.163">  5  6 -1 -1</clus>
<clus scale="   94.544">  2  7  1 -1</clus>
<clus scale="   61.893">  2  5  1 -1</clus>
</clustering>
</event>
<event>
 9    1  0.1426358E-005  0.1318323E+03  0.7546771E-02  0.1225243E+00
         21   -1    0    0  501  502  0.00000000000E+00  0.00000000000E+00  0.55265998762E+02  0.55265998762E+02  0.00000000000E+00 0.  1.
         -3   -1    0    0    0  501 -0.00000000000E+00 -0.00000000000E+00 -0.48500069915E+03  0.48500069915E+03  0.00000000000E+00 0.  1.
         23    2    1    2    0    0 -0.81137084124E+02  0.35398221297E+02 -0.25038054102E+03  0.28116614267E+03  0.92345676520E+02 0.  0.
         23    2    1    2    0    0  0.83212651371E+02 -0.62062915107E+02 -0.18611694950E+03  0.23151343496E+03  0.90458835353E+02 0.  0.
        -13    1    3    3    0    0 -0.50061624542E+02 -0.27709728698E+02 -0.12284795341E+03  0.13551979551E+03  0.00000000000E+00 0.  1.
         13    1    3    3    0    0 -0.31075459583E+02  0.63107949994E+02 -0.12753258761E+03  0.14564634716E+03  0.00000000000E+00 0. -1.
        -13    1    4    4    0    0  0.97107198148E+02 -0.28849531076E+02 -0.14470108452E+03  0.17663665315E+03  0.00000000000E+00 0.  1.
         13    1    4    4    0    0 -0.13894546778E+02 -0.33213384031E+02 -0.41415864986E+02  0.54876781807E+02  0.00000000000E+00 0. -1.
         -3    1    1    2    0  502 -0.20755672464E+01  0.26664693810E+02  0.67627901321E+01  0.27587120287E+02  0.00000000000E+00 0.  1.
<scales pt_clust_5="13000.00000" pt_clust_6="13000.00000" pt_clust_7="13000.00000" pt_clust_8="13000.00000" pt_clust_9="26.74535"></scales>
<clustering>
<clus scale="   26.745">  1  9  2 -1</clus>
<clus scale="   90.459">  7  8 -1 -1</clus>
<clus scale="   92.346">  5  6 -1 -1</clus>
<clus scale="  130.518">  1  7  2 -1</clus>
<clus scale="   26.745">  1  5  2 -1</clus>
</clustering>
</event>
<event>
 9    1  0.1426358E-005  0.1151267E+03  0.7546771E-02  0.1257041E+00
          1   -1    0    0  502    0 -0.00000000000E+00  0.00000000000E+00  0.33151167351E+03  0.33151167351E+03  0.00000000000E+00 0. -1.
         21   -1    0    0  501  502  0.00000000000E+00 -0.00000000000E+00 -0.66453430093E+02  0.66453430093E+02  0.00000000000E+00 0.  1.
         23    2    1    2    0    0 -0.28527224467E+02 -0.58150035408E+02  0.18800194511E+03  0.21227888030E+03  0.74312599896E+02 0.  0.
         23    2    1    2    0    0  0.45451784607E+02  0.75346026060E+02  0.92961841248E+02  0.15678762253E+03  0.90540412434E+02 0.  0.
        -13    1    4    4    0    0 -0.36785441782E+01  0.75781234506E+02  0.66993222218E+02  0.10121471738E+03  0.00000000000E+00 0.  1.
         13    1    4    4    0    0  0.49130328786E+02 -0.43520844549E+00  0.25968619030E+02  0.55572905155E+02  0.00000000000E+00 0. -1.
        -13    1    3    3    0    0  0.22504556894E+02 -0.32560302291E+02  0.57173621775E+02  0.69537410026E+02  0.00000000000E+00 0.  1.
         13    1    3    3    0    0 -0.51031781361E+02 -0.25589733117E+02  0.13082832333E+03  0.14274147027E+03  0.00000000000E+00 0. -1.
          1    1    1    2  501    0 -0.16924560140E+02 -0.17195990652E+02 -0.15905542938E+02  0.28898600772E+02  0.00000000000E+00 0. -1.
<scales pt_clust_5="13000.00000" pt_clust_6="13000.00000" pt_clust_7="13000.00000" pt_clust_8="13000.00000" pt_clust_9="24.12764"></scales>
<clustering>
<clus scale="   24.128">  2  9  1 -1</clus>
<clus scale="   74.313">  7  8 -1 -1</clus>
<clus scale="   90.540">  5  6 -1 -1</clus>
<clus scale="  102.854">  1  7  2 -1</clus>
<clus scale="   24.128">  2  5  1 -1</clus>
</clustering>
</event>
<event>
 9    1  0.1426358E-005  0.1014584E+03  0.7546771E-02  0.1277831E+00
         21   -1    0    0  501  502  0.00000000000E+00  0.00000000000E+00  0.35592374404E+03  0.35592374404E+03  0.00000000000E+00 0.  1.
         -3   -1    0    0    0  501 -0.00000000000E+00 -0.00000000000E+00 -0.10853576693E+03  0.10853576693E+03  0.00000000000E+00 0.  1.
         23    2    1    2    0    0 -0.31481324320E+02 -0.39713896764E+02 -0.50419404762E+02  0.11804852175E+03  0.93941842297E+02 0.  0.
         23    2    1    2    0    0 -0.80367244142E+01  0.71376361346E+01  0.80910020852E+02  0.12354925147E+03  0.92749400411E+02 0.  0.
        -11    1    3    3    0    0  0.29076334543E+02 -0.28938474800E+02 -0.44576486209E+01  0.41264260389E+02  0.00000000000E+00 0. -1.
         11    1    3    3    0    0 -0.60557658863E+02 -0.10775421964E+02 -0.45961756141E+02  0.76784261363E+02  0.00000000000E+00 0.  1.
        -11    1    4    4    0    0 -0.43732822461E+02 -0.12439513836E+02  0.18615229573E+02  0.49130723961E+02  0.00000000000E+00 0.  1.
         11    1    4    4    0    0  0.35696098047E+02  0.19577149971E+02  0.62294791279E+02  0.74418527513E+02  0.00000000000E+00 0. -1.
         -3    1    1    2    0  502  0.39518048734E+02  0.32576260630E+02  0.21689736102E+03  0.22286173774E+03  0.00000000000E+00 0.  1.
<scales pt_clust_5="13000.00000" pt_clust_6="13000.00000" pt_clust_7="13000.00000" pt_clust_8="13000.00000" pt_clust_9="51.21415"></scales>
<clustering>
<clus scale="   51.214">  1  9  2 -1</clus>
<clus scale="   92.749">  7  8 -1 -1</clus>
<clus scale="   93.942">  5  6 -1 -1</clus>
<clus scale="  100.355">  1  7  2 -1</clus>
<clus scale="   51.214">  1  5  2 -1</clus>
</clustering>
</event>
<event>
 9    1  0.1426358E-005  0.1143887E+03  0.7546771E-02  0.1253972E+00
         21   -1    0    0  501  502  0.00000000000E+00  0.00000000000E+00  0.45023844172E+03  0.45023844172E+03  0.00000000000E+00 0. -1.
          4   -1    0    0  502    0 -0.00000000000E+00 -0.00000000000E+00 -0.53650609692E+02  0.53650609692E+02  0.00000000000E+00 0. -1.
         23    2    1    2    0    0 -0.52980111600E+02  0.23431149275E+02  0.79658296353E+02  0.13493131963E+03  0.92223130815E+02 0.  0.
         23    2    1    2    0    0  0.93447174413E+02 -0.24295173940E+02  0.29533426353E+03  0.32308088042E+03  0.88522868229E+02 0.  0.
        -11    1    4    4    0    0  0.74148256081E+02 -0.56647108927E+02  0.21224944348E+03  0.23185487937E+03  0.00000000000E+00 0. -1.
         11    1    4    4    0    0  0.19298918332E+02  0.32351934986E+02  0.83084820044E+02  0.91226001051E+02  0.00000000000E+00 0.  1.
        -13    1    3    3    0    0 -0.55969473474E+02 -0.24295684914E+02  0.47097521419E+02  0.77078134319E+02  0.00000000000E+00 0.  1.
         13    1    3    3    0    0  0.29893618737E+01  0.47726834189E+02  0.32560774935E+02  0.57853185310E+02  0.00000000000E+00 0. -1.
          4    1    1    2  501    0 -0.40467062813E+02  0.86402466507E+00  0.21595272142E+02  0.45876851355E+02  0.00000000000E+00 0. -1.
<scales pt_clust_5="13000.00000" pt_clust_6="13000.00000" pt_clust_7="13000.00000" pt_clust_8="13000.00000" pt_clust_9="40.47631"></scales>
<clustering>
<clus scale="   40.476">  1  9  2 -1</clus>
<clus scale="   88.523">  5  6 -1 -1</clus>
<clus scale="   92.223">  7  8 -1 -1</clus>
<clus scale="  111.427">  1  5  2 -1</clus>
<clus scale="   40.476">  1  5  2 -1</clus>
</clustering>
</event>
<event>
 9    1  0.1426358E-005  0.1200192E+03  0.7546771E-02  0.1243557E+00
          1   -1    0    0  502    0 -0.00000000000E+00  0.00000000000E+00  0.53153995036E+03  0.53153995036E+03  0.00000000000E+00 0. -1.
         21   -1    0    0  501  502  0.00000000000E+00 -0.00000000000E+00 -0.53758838590E+02  0.53758838590E+02  0.00000000000E+00 0.  1.
         23    2    1    2    0    0 -0.71826749319E+02  0.37562110180E+02  0.32372487366E+03  0.34627579958E+03  0.92407475401E+02 0.  0.
         23    2    1    2    0    0  0.29198310887E+02 -0.75608736876E+02  0.12653471331E+03  0.17560245726E+03  0.90862351230E+02 0.  0.
        -11    1    4    4    0    0  0.32656264053E+02 -0.59703950949E+01  0.24721014709E+01  0.33289465078E+02  0.00000000000E+00 0. -1.
         11    1    4    4    0    0 -0.34579531660E+01 -0.69638341781E+02  0.12406261184E+03  0.14231299218E+03  0.00000000000E+00 0.  1.
        -13    1    3    3    0    0 -0.16121000785E+02  0.14662895325E+02  0.56002747368E+01  0.22500005394E+02  0.00000000000E+00 0.  1.
         13    1    3    3    0    0 -0.55705748534E+02  0.22899214855E+02  0.31812459893E+03  0.32377579419E+03  0.00000000000E+00 0. -1.
          1    1    1    2  501    0  0.42628438432E+02  0.38046626696E+02  0.27521524796E+02  0.63420532111E+02  0.00000000000E+00 0. -1.
<scales pt_clust_5="13000.00000" pt_clust_6="13000.00000" pt_clust_7="13000.00000" pt_clust_8="13000.00000" pt_clust_9="57.13781"></scales>
<clustering>
<clus scale="   57.138">  2  9  1 -1</clus>
<clus scale="   90.862">  5  6 -1 -1</clus>
<clus scale="   92.407">  7  8 -1 -1</clus>
<clus scale="  118.834">  2  5  1 -1</clus>
<clus scale="   57.138">  2  5  1 -1</clus>
</clustering>
</event>
<event>
 9    1  0.1426358E-005  0.1791795E+03  0.7546771E-02  0.1179379E+00
          2   -1    0    0  502    0 -0.00000000000E+00  0.00000000000E+00  0.85063522569E+03  0.85063522569E+03  0.00000000000E+00 0. -1.
         21   -1    0    0  501  502  0.00000000000E+00 -0.00000000000E+00 -0.10534836285E+03  0.10534836285E+03  0.00000000000E+00 0. -1.
         23    2    1    2    0    0  0.48047609705E+02 -0.94372899088E+02  0.45867386467E+03  0.47964119786E+03  0.91973624889E+02 0.  0.
         23    2    1    2    0    0 -0.18788143824E+03  0.58067653087E+02  0.24095660352E+03  0.32482976130E+03  0.93717671110E+02 0.  0.
        -11    1    3    3    0    0 -0.27844441704E+02 -0.25548096640E+02  0.11981007566E+03  0.12562831053E+03  0.00000000000E+00 0.  1.
         11    1    3    3    0    0  0.75892051408E+02 -0.68824802448E+02  0.33886378900E+03  0.35401288733E+03  0.00000000000E+00 0. -1.
        -11    1    4    4    0    0 -0.13105353942E+03 -0.27499590848E+01  0.17488913645E+03  0.21856075246E+03  0.00000000000E+00 0. -1.
         11    1    4    4    0    0 -0.56827898822E+02  0.60817612172E+02  0.66067467069E+02  0.10626900884E+03  0.00000000000E+00 0.  1.
          2    1    1    2  501    0  0.13983382853E+03  0.36305246001E+02  0.45656394649E+02  0.15151262938E+03  0.00000000000E+00 0. -1.
<scales pt_clust_5="13000.00000" pt_clust_6="13000.00000" pt_clust_7="13000.00000" pt_clust_8="13000.00000" pt_clust_9="152.71632"></scales>
<clustering>
<clus scale="   91.974">  5  6 -1 -1</clus>
<clus scale="   93.718">  7  8 -1 -1</clus>
<clus scale="  140.264">  1  5  2 -1</clus>
<clus scale="  152.716">  2  9  1 -1</clus>
<clus scale="  152.716">  2  5  1 -1</clus>
</clustering>
</event>
<event>
 9    1  0.1426358E-005  0.1595423E+03  0.7546771E-02  0.1189241E+00
         -1   -1    0    0    0  501 -0.00000000000E+00  0.00000000000E+00  0.29638461534E+03  0.29638461534E+03  0.00000000000E+00 0.  1.
         21   -1    0    0  501  502  0.00000000000E+00 -0.00000000000E+00 -0.12310974955E+03  0.12310974955E+03  0.00000000000E+00 0.  1.
         23    2    1    2    0    0  0.12752598480E+03  0.14090180566E+02  0.16870949650E+03  0.23097529872E+03  0.91789348103E+02 0.  0.
         23    2    1    2    0    0 -0.13675340422E+03  0.50724666806E+01  0.13935192556E+02  0.16527802689E+03  0.91626486864E+02 0.  0.
        -11    1    4    4    0    0 -0.12603968169E+02  0.21698895985E+02  0.29868784849E+02  0.39010849888E+02  0.00000000000E+00 0. -1.
         11    1    4    4    0    0 -0.12414943605E+03 -0.16626429305E+02 -0.15933592293E+02  0.12626717700E+03  0.00000000000E+00 0.  1.
        -13    1    3    3    0    0  0.24388904043E+02 -0.34382241022E+02  0.31563044553E+02  0.52661018976E+02  0.00000000000E+00 0. -1.
         13    1    3    3    0    0  0.10313708075E+03  0.48472421587E+02  0.13714645195E+03  0.17831427975E+03  0.00000000000E+00 0.  1.
         -1    1    1    2    0  502  0.92274194237E+01 -0.19162647246E+02 -0.93698232591E+01  0.23241039276E+02  0.00000000000E+00 0.  1.
<scales pt_clust_5="13000.00000" pt_clust_6="13000.00000" pt_clust_7="13000.00000" pt_clust_8="13000.00000" pt_clust_9="21.26858"></scales>
<clustering>
<clus scale="   21.269">  2  9  1 -1</clus>
<clus scale="   91.626">  5  6 -1 -1</clus>
<clus scale="   91.789">  7  8 -1 -1</clus>
<clus scale="  159.449">  2  5  1 -1</clus>
<clus scale="   21.269">  2  5  1 -1</clus>
</clustering>
</event>
<event>
 9    1  0.1426358E-005  0.9783771E+02  0.7546771E-02  0.1285908E+00
          1   -1    0    0  502    0 -0.00000000000E+00  0.00000000000E+00  0.46928191571E+03  0.46928191571E+03  0.00000000000E+00 0. -1.
         21   -1    0    0  501  502  0.00000000000E+00 -0.00000000000E+00 -0.37251123502E+02  0.37251123502E+02  0.00000000000E+00 0. -1.
         23    2    1    2    0    0 -0.21236444254E+02  0.37262293014E+02  0.32315081475E+03  0.33879378916E+03  0.92278477738E+02 0.  0.
         23    2    1    2    0    0  0.29787111551E+01 -0.62180086251E+01  0.86931582168E+02  0.12556313754E+03  0.90340827859E+02 0.  0.
        -11    1    4    4    0    0  0.40677952156E+01 -0.34907432435E+02  0.90068671447E+02  0.96682166780E+02  0.00000000000E+00 0.  1.
         11    1    4    4    0    0 -0.10890840605E+01  0.28689423810E+02 -0.31370892789E+01  0.28880970756E+02  0.00000000000E+00 0. -1.
        -13    1    3    3    0    0 -0.33667595796E+02 -0.21529460534E+02  0.16041022892E+03  0.16531323668E+03  0.00000000000E+00 0.  1.
         13    1    3    3    0    0  0.12431151542E+02  0.58791753549E+02  0.16274058583E+03  0.17348055248E+03  0.00000000000E+00 0. -1.
          1    1    1    2  501    0  0.18257733099E+02 -0.31044284389E+02  0.21948395287E+02  0.42176112514E+02  0.00000000000E+00 0. -1.
<scales pt_clust_5="13000.00000" pt_clust_6="13000.00000" pt_clust_7="13000.00000" pt_clust_8="13000.00000" pt_clust_9="36.01517"></scales>
<clustering>
<clus scale="   36.015">  2  9  1 -1</clus>
<clus scale="   90.341">  5  6 -1 -1</clus>
<clus scale="   92.278">  7  8 -1 -1</clus>
<clus scale="   96.012">  2  5  1 -1</clus>
<clus scale="   36.015">  2  5  1 -1</clus>
</clustering>
</event>
<event>
 9    1  0.1426358E-005  0.1008790E+03  0.7546771E-02  0.1284632E+00
         21   -1    0    0  501  502  0.00000000000E+00  0.00000000000E+00  0.17263383668E+03  0.17263383668E+03  0.00000000000E+00 0.  1.
          2   -1    0    0  502    0 -0.00000000000E+00 -0.00000000000E+00 -0.12468421593E+03  0.12468421593E+03  0.00000000000E+00 0. -1.
         23    2    1    2    0    0 -0.38299652186E+02 -0.22194156973E+02 -0.64406506850E+02  0.11144413170E+03  0.79449055409E+02 0.  0.
         23    2    1    2    0    0  0.10205737488E+02  0.42557084500E+02  0.47447436701E+02  0.11227327543E+03  0.91862759630E+02 0.  0.
        -13    1    4    4    0    0 -0.30296396130E+02  0.27877588422E+02 -0.81182850884E+01  0.41963533067E+02  0.00000000000E+00 0. -1.
         13    1    4    4    0    0  0.40502133618E+02  0.14679496077E+02  0.55565721790E+02  0.70309742360E+02  0.00000000000E+00 0.  1.
        -13    1    3    3    0    0 -0.59141866165E+02 -0.31080980749E+02 -0.56332730238E+02  0.87390870197E+02  0.00000000000E+00 0.  1.
         13    1    3    3    0    0  0.20842213979E+02  0.88868237758E+01 -0.80737766123E+01  0.24053261507E+02  0.00000000000E+00 0. -1.
          2    1    1    2  501    0  0.28093914698E+02 -0.20362927527E+02  0.64908690904E+02  0.73600645482E+02  0.00000000000E+00 0. -1.
<scales pt_clust_5="13000.00000" pt_clust_6="13000.00000" pt_clust_7="13000.00000" pt_clust_8="13000.00000" pt_clust_9="34.69751"></scales>
<clustering>
<clus scale="   34.698">  1  9  2 -1</clus>
<clus scale="   79.449">  7  8 -1 -1</clus>
<clus scale="   89.722">  2  7  1 -1</clus>
<clus scale="   91.863">  5  6 -1 -1</clus>
<clus scale="   34.698">  1  5  2 -1</clus>
</clustering>
</event>
<event>
 9    1  0.1426358E-005  0.1162860E+03  0.7546771E-02  0.1250073E+00
         -3   -1    0    0    0  501 -0.00000000000E+00  0.00000000000E+00  0.10644818314E+03  0.10644818314E+03  0.00000000000E+00 0.  1.
         21   -1    0    0  501  502  0.00000000000E+00 -0.00000000000E+00 -0.17391007515E+03  0.17391007515E+03  0.00000000000E+00 0. -1.
         23    2    1    2    0    0 -0.45167080689E+02 -0.66102947655E+02  0.90803360419E+01  0.12316768997E+03  0.93156655610E+02 0.  0.
         23    2    1    2    0    0  0.18531202745E+02  0.51867176358E+02 -0.53015429254E+02  0.11890692377E+03  0.91074756783E+02 0.  0.
        -11    1    3    3    0    0 -0.50734829284E+01 -0.77939404290E+02  0.18610238893E+02  0.80290920793E+02  0.00000000000E+00 0. -1.
         11    1    3    3    0    0 -0.40093597761E+02  0.11836456636E+02 -0.95299028509E+01  0.42876769182E+02  0.00000000000E+00 0.  1.
        -13    1    4    4    0    0 -0.29289688174E+02  0.47088189867E+02 -0.14500117694E+02  0.57318730546E+02  0.00000000000E+00 0.  1.
         13    1    4    4    0    0  0.47820890919E+02  0.47789864912E+01 -0.38515311560E+02  0.61588193225E+02  0.00000000000E+00 0. -1.
         -3    1    1    2    0  502  0.26635877944E+02  0.14235771297E+02 -0.23526798799E+02  0.38283644550E+02  0.00000000000E+00 0.  1.
<scales pt_clust_5="13000.00000" pt_clust_6="13000.00000" pt_clust_7="13000.00000" pt_clust_8="13000.00000" pt_clust_9="30.20144"></scales>
<clustering>
<clus scale="   30.201">  2  9  1 -1</clus>
<clus scale="   91.075">  7  8 -1 -1</clus>
<clus scale="   93.157">  5  6 -1 -1</clus>
<clus scale="  114.625">  2  7  1 -1</clus>
<clus scale="   30.201">  2  5  1 -1</clus>
</clustering>
</event>
<event>
 9    1  0.1426358E-005  0.1215015E+03  0.7546771E-02  0.1248165E+00
          3   -1    0    0  502    0 -0.00000000000E+00  0.00000000000E+00  0.23453118249E+03  0.23453118249E+03  0.00000000000E+00 0. -1.
         21   -1    0    0  501  502  0.00000000000E+00 -0.00000000000E+00 -0.14031925667E+03  0.14031925667E+03  0.00000000000E+00 0. -1.
         23    2    1    2    0    0  0.72256201541E+02 -0.68470643814E+01  0.11231477222E+03  0.17301071676E+03  0.10977367217E+03 0.  0.
         23    2    1    2    0    0 -0.99112562012E+01 -0.58519234540E+02  0.59146983137E+01  0.10837054193E+03  0.90479041167E+02 0.  0.
        -11    1    4    4    0    0 -0.35394790847E+02 -0.68335329634E+02  0.17142155347E+02  0.78843908992E+02  0.00000000000E+00 0.  1.
         11    1    4    4    0    0  0.25483534646E+02  0.98160950936E+01 -0.11227457033E+02  0.29526632933E+02  0.00000000000E+00 0. -1.
        -13    1    3    3    0    0 -0.14273774498E+02  0.32017771783E+02  0.18671044195E+02  0.39717580990E+02  0.00000000000E+00 0.  1.
         13    1    3    3    0    0  0.86529976038E+02 -0.38864836165E+02  0.93643728029E+02  0.13329313577E+03  0.00000000000E+00 0. -1.
          3    1    1    2  501    0 -0.62344945339E+02  0.65366298922E+02 -0.24017544719E+02  0.93469180474E+02  0.00000000000E+00 0. -1.
<scales pt_clust_5="13000.00000" pt_clust_6="13000.00000" pt_clust_7="13000.00000" pt_clust_8="13000.00000" pt_clust_9="90.33075"></scales>
<clustering>
<clus scale="   90.331">  2  9  1 -1</clus>
<clus scale="   90.479">  5  6 -1 -1</clus>
<clus scale="  104.397">  2  5  1 -1</clus>
<clus scale="  109.774">  7  8 -1 -1</clus>
<clus scale="   90.331">  2  5  1 -1</clus>
</clustering>
</event>
<event>
 9    1  0.1426358E-005  0.1133135E+03  0.7546771E-02  0.1255707E+00
         21   -1    0    0  501  502  0.00000000000E+00  0.00000000000E+00  0.47014145679E+02  0.47014145679E+02  0.00000000000E+00 0.  1.
          2   -1    0    0  502    0 -0.00000000000E+00 -0.00000000000E+00 -0.35488980620E+03  0.35488980620E+03  0.00000000000E+00 0. -1.
         23    2    1    2    0    0  0.10662172204E+02  0.66789525961E+02 -0.17566352217E+03  0.20970741036E+03  0.92439181313E+02 0.  0.
         23    2    1    2    0    0 -0.27986050556E+02 -0.47411587936E+02 -0.12159613253E+03  0.16411948999E+03  0.95490888840E+02 0.  0.
        -11    1    3    3    0    0 -0.33253400310E+02  0.12565181902E+02 -0.24373507627E+02  0.43101511603E+02  0.00000000000E+00 0. -1.
         11    1    3    3    0    0  0.43915572514E+02  0.54224344059E+02 -0.15129001455E+03  0.16660589875E+03  0.00000000000E+00 0.  1.
        -13    1    4    4    0    0 -0.43985084165E+02 -0.11768707409E+02 -0.11023620504E+02  0.46847735400E+02  0.00000000000E+00 0.  1.
         13    1    4    4    0    0  0.15999033609E+02 -0.35642880527E+02 -0.11057251202E+03  0.11727175459E+03  0.00000000000E+00 0. -1.
          2    1    1    2  501    0  0.17323878353E+02 -0.19377938025E+02 -0.10616005818E+02  0.28077051533E+02  0.00000000000E+00 0. -1.
<scales pt_clust_5="13000.00000" pt_clust_6="13000.00000" pt_clust_7="13000.00000" pt_clust_8="13000.00000" pt_clust_9="25.99272"></scales>
<clustering>
<clus scale="   25.993">  1  9  2 -1</clus>
<clus scale="   92.439">  5  6 -1 -1</clus>
<clus scale="   95.491">  7  8 -1 -1</clus>
<clus scale="  110.754">  2  5  1 -1</clus>
<clus scale="   25.993">  1  5  2 -1</clus>
</clustering>
</event>
<event>
 9    1  0.1426358E-005  0.1068796E+03  0.7546771E-02  0.1267458E+00
         21   -1    0    0  501  502  0.00000000000E+00  0.00000000000E+00  0.73971692547E+02  0.73971692547E+02  0.00000000000E+00 0. -1.
          2   -1    0    0  502    0 -0.00000000000E+00 -0.00000000000E+00 -0.39492550129E+03  0.39492550129E+03  0.00000000000E+00 0. -1.
         23    2    1    2    0    0  0.95201318374E+01  0.29299017644E+02 -0.16979614190E+03  0.19502415250E+03  0.90854966352E+02 0.  0.
         23    2    1    2    0    0 -0.18327652866E+02 -0.88395006332E+02 -0.16754269347E+03  0.21191840145E+03  0.93216279337E+02 0.  0.
        -11    1    3    3    0    0 -0.31292112659E+02 -0.15716900583E+02 -0.67507862473E+02  0.76049515280E+02  0.00000000000E+00 0.  1.
         11    1    3    3    0    0  0.40812244497E+02  0.45015918227E+02 -0.10228827942E+03  0.11897463722E+03  0.00000000000E+00 0. -1.
        -13    1    4    4    0    0 -0.25443122607E+02 -0.39073743732E+02 -0.11377631121E+02  0.47995420897E+02  0.00000000000E+00 0.  1.
         13    1    4    4    0    0  0.71154697406E+01 -0.49321262600E+02 -0.15616506235E+03  0.16392298055E+03  0.00000000000E+00 0. -1.
          2    1    1    2  501    0  0.88075210287E+01  0.59095988688E+02  0.16385026627E+02  0.61954639885E+02  0.00000000000E+00 0. -1.
<scales pt_clust_5="13000.00000" pt_clust_6="13000.00000" pt_clust_7="13000.00000" pt_clust_8="13000.00000" pt_clust_9="59.74871"></scales>
<clustering>
<clus scale="   59.749">  1  9  2 -1</clus>
<clus scale="   90.855">  5  6 -1 -1</clus>
<clus scale="   93.216">  7  8 -1 -1</clus>
<clus scale="  104.827">  2  5  1 -1</clus>
<clus scale="   59.749">  1  5  2 -1</clus>
</clustering>
</event>
<event>
 9    1  0.1426358E-005  0.9603930E+02  0.7546771E-02  0.1290326E+00
         21   -1    0    0  501  502  0.00000000000E+00  0.00000000000E+00  0.17714174620E+03  0.17714174620E+03  0.00000000000E+00 0. -1.
          2   -1    0    0  502    0 -0.00000000000E+00 -0.00000000000E+00 -0.10611128021E+03  0.10611128021E+03  0.00000000000E+00 0. -1.
         23    2    1    2    0    0 -0.22752296333E+02  0.17494022116E+02 -0.35170292166E+01  0.96045764465E+02  0.91589909810E+02 0.  0.
         23    2    1    2    0    0  0.34913917560E+02  0.19077117640E+02 -0.63992947114E+01  0.97553839867E+02  0.88841896891E+02 0.  0.
        -11    1    4    4    0    0  0.54324943364E+01  0.42406294521E+02 -0.30837380112E+02  0.52713848483E+02  0.00000000000E+00 0.  1.
         11    1    4    4    0    0  0.29481423223E+02 -0.23329176881E+02  0.24438085401E+02  0.44839991384E+02  0.00000000000E+00 0. -1.
        -11    1    3    3    0    0 -0.27240132699E+02 -0.96452584691E+01  0.37077869609E+02  0.47008767854E+02  0.00000000000E+00 0.  1.
         11    1    3    3    0    0  0.44878363660E+01  0.27139280585E+02 -0.40594898826E+02  0.49036996611E+02  0.00000000000E+00 0. -1.
          2    1    1    2  501    0 -0.12161621227E+02 -0.36571139755E+02  0.80946789911E+02  0.89653422081E+02  0.00000000000E+00 0. -1.
<scales pt_clust_5="13000.00000" pt_clust_6="13000.00000" pt_clust_7="13000.00000" pt_clust_8="13000.00000" pt_clust_9="38.54028"></scales>
<clustering>
<clus scale="   38.540">  1  9  2 -1</clus>
<clus scale="   88.842">  5  6 -1 -1</clus>
<clus scale="   91.590">  7  8 -1 -1</clus>
<clus scale="   93.422">  1  5  2 -1</clus>
<clus scale="   38.540">  1  5  2 -1</clus>
</clustering>
</event>
<event>
 9    1  0.1426358E-005  0.9800457E+02  0.7546771E-02  0.1286830E+00
          1   -1    0    0  502    0 -0.00000000000E+00  0.00000000000E+00  0.30239283038E+03  0.30239283038E+03  0.00000000000E+00 0. -1.
         21   -1    0    0  501  502  0.00000000000E+00 -0.00000000000E+00 -0.49668670223E+02  0.49668670223E+02  0.00000000000E+00 0.  1.
         23    2    1    2    0    0  0.62794573760E+01 -0.37705907764E+02  0.14334981656E+03  0.17627269634E+03  0.95193101129E+02 0.  0.
         23    2    1    2    0    0  0.66632801034E+01  0.89348396981E+01  0.11132707408E+03  0.14418022999E+03  0.90939488873E+02 0.  0.
        -13    1    3    3    0    0  0.12710059266E+02 -0.68980439539E+02  0.10639353679E+03  0.12743402731E+03  0.00000000000E+00 0.  1.
         13    1    3    3    0    0 -0.64306018899E+01  0.31274531775E+02  0.36956279769E+02  0.48838669032E+02  0.00000000000E+00 0. -1.
        -13    1    4    4    0    0 -0.19745066766E+02 -0.15507768996E+02  0.10460243833E+03  0.10757336411E+03  0.00000000000E+00 0.  1.
         13    1    4    4    0    0  0.26408346869E+02  0.24442608694E+02  0.67246357473E+01  0.36606865887E+02  0.00000000000E+00 0. -1.
          1    1    1    2  501    0 -0.12942737479E+02  0.28771068066E+02 -0.19527304752E+01  0.31608574271E+02  0.00000000000E+00 0. -1.
<scales pt_clust_5="13000.00000" pt_clust_6="13000.00000" pt_clust_7="13000.00000" pt_clust_8="13000.00000" pt_clust_9="31.54820"></scales>
<clustering>
<clus scale="   31.548">  2  9  1 -1</clus>
<clus scale="   90.939">  7  8 -1 -1</clus>
<clus scale="   93.878">  2  7  1 -1</clus>
<clus scale="   95.193">  5  6 -1 -1</clus>
<clus scale="   31.548">  2  5  1 -1</clus>
</clustering>
</event>
<event>
 9    1  0.1426358E-005  0.9381716E+02  0.7546771E-02  0.1294341E+00
         21   -1    0    0  501  502  0.00000000000E+00  0.00000000000E+00  0.40890563032E+02  0.40890563032E+02  0.00000000000E+00 0. -1.
          2   -1    0    0  502    0 -0.00000000000E+00 -0.00000000000E+00 -0.65347494313E+03  0.65347494313E+03  0.00000000000E+00 0. -1.
         23    2    1    2    0    0  0.21636634286E+02  0.10796859091E+02 -0.38218010487E+03  0.39324747748E+03  0.89427232311E+02 0.  0.
         23    2    1    2    0    0 -0.11287748051E+02 -0.30451227976E+02 -0.25229837309E+03  0.26992916554E+03  0.90291720555E+02 0.  0.
        -11    1    4    4    0    0  0.14516964129E+02 -0.56477971160E+02 -0.13549672823E+03  0.14751225995E+03  0.00000000000E+00 0. -1.
         11    1    4    4    0    0 -0.25804712180E+02  0.26026743183E+02 -0.11680164486E+03  0.12241690558E+03  0.00000000000E+00 0.  1.
        -13    1    3    3    0    0  0.34914089383E+02  0.44411444909E+02 -0.23112100820E+03  0.23792496823E+03  0.00000000000E+00 0.  1.
         13    1    3    3    0    0 -0.13277455096E+02 -0.33614585818E+02 -0.15105909667E+03  0.15532250925E+03  0.00000000000E+00 0. -1.
          2    1    1    2  501    0 -0.10348886235E+02  0.19654368885E+02  0.21894097866E+02  0.31188863140E+02  0.00000000000E+00 0. -1.
<scales pt_clust_5="13000.00000" pt_clust_6="13000.00000" pt_clust_7="13000.00000" pt_clust_8="13000.00000" pt_clust_9="22.21247"></scales>
<clustering>
<clus scale="   22.212">  1  9  2 -1</clus>
<clus scale="   89.427">  7  8 -1 -1</clus>
<clus scale="   90.292">  5  6 -1 -1</clus>
<clus scale="   92.985">  2  7  1 -1</clus>
<clus scale="   22.212">  1  5  2 -1</clus>
</clustering>
</event>
<event>
 9    1  0.1426358E-005  0.1916026E+03  0.7546771E-02  0.1157068E+00
         -1   -1    0    0    0  501 -0.00000000000E+00  0.00000000000E+00  0.45806508479E+03  0.45806508479E+03  0.00000000000E+00 0.  1.
         21   -1    0    0  501  502  0.00000000000E+00 -0.00000000000E+00 -0.17495899508E+03  0.17495899508E+03  0.00000000000E+00 0.  1.
         23    2    1    2    0    0  0.16011751651E+03  0.13243059885E+02  0.25691889529E+03  0.31633848150E+03  0.90827960433E+02 0.  0.
         23    2    1    2    0    0 -0.18423029770E+03 -0.97804466850E+02  0.18388878977E+02  0.22840835617E+03  0.91245328514E+02 0.  0.
        -13    1    4    4    0    0 -0.78519320708E+02 -0.79043237902E+02  0.40948511433E+02  0.11870087519E+03  0.00000000000E+00 0.  1.
         13    1    4    4    0    0 -0.10571097699E+03 -0.18761228948E+02 -0.22559632457E+02  0.10970748098E+03  0.00000000000E+00 0. -1.
        -13    1    3    3    0    0  0.22668146983E+02 -0.27460786154E+02  0.87147907680E+02  0.94141900750E+02  0.00000000000E+00 0. -1.
         13    1    3    3    0    0  0.13744936953E+03  0.40703846039E+02  0.16977098761E+03  0.22219658075E+03  0.00000000000E+00 0.  1.
         -1    1    1    2    0  502  0.24112781184E+02  0.84561406965E+02  0.77983154468E+01  0.88277242187E+02  0.00000000000E+00 0.  1.
<scales pt_clust_5="13000.00000" pt_clust_6="13000.00000" pt_clust_7="13000.00000" pt_clust_8="13000.00000" pt_clust_9="87.93212"></scales>
<clustering>
<clus scale="   87.932">  2  9  1 -1</clus>
<clus scale="   90.828">  7  8 -1 -1</clus>
<clus scale="   91.245">  5  6 -1 -1</clus>
<clus scale="  191.404">  1  7  2 -1</clus>
<clus scale="   87.932">  2  5  1 -1</clus>
</clustering>
</event>
<event>
 9    1  0.1426358E-005  0.1056070E+03  0.7546771E-02  0.1270164E+00
          4   -1    0    0  502    0 -0.00000000000E+00  0.00000000000E+00  0.17372012142E+03  0.17372012142E+03  0.00000000000E+00 0. -1.
         21   -1    0    0  501  502  0.00000000000E+00 -0.00000000000E+00 -0.54957512938E+03  0.54957512938E+03  0.00000000000E+00 0. -1.
         23    2    1    2    0    0  0.50771022847E+02 -0.20709314391E+02  0.13332006820E+03  0.17075359050E+03  0.91520356317E+02 0.  0.
         23    2    1    2    0    0 -0.46924162375E+02 -0.70237422197E+02 -0.26384423358E+03  0.29086756996E+03  0.88628388047E+02 0.  0.
        -13    1    3    3    0    0  0.45126428538E+02 -0.55438005140E+02  0.87705492369E+02  0.11314601344E+03  0.00000000000E+00 0. -1.
         13    1    3    3    0    0  0.56445943089E+01  0.34728690749E+02  0.45614575834E+02  0.57607577058E+02  0.00000000000E+00 0.  1.
        -13    1    4    4    0    0 -0.54403381933E+02 -0.19124571581E+02 -0.72306760927E+02  0.92486457818E+02  0.00000000000E+00 0.  1.
         13    1    4    4    0    0  0.74792195581E+01 -0.51112850617E+02 -0.19153747265E+03  0.19838111214E+03  0.00000000000E+00 0. -1.
          4    1    1    2  501    0 -0.38468604722E+01  0.90946736589E+02 -0.24533084258E+03  0.26167409034E+03  0.00000000000E+00 0. -1.
<scales pt_clust_5="13000.00000" pt_clust_6="13000.00000" pt_clust_7="13000.00000" pt_clust_8="13000.00000" pt_clust_9="91.02806"></scales>
<clustering>
<clus scale="   88.628">  7  8 -1 -1</clus>
<clus scale="   91.028">  2  9  1 -1</clus>
<clus scale="   91.520">  5  6 -1 -1</clus>
<clus scale="  103.111">  2  7  1 -1</clus>
<clus scale="   91.028">  2  5  1 -1</clus>
</clustering>
</event>
<event>
 9    1  0.1426358E-005  0.1076679E+03  0.7546771E-02  0.1268073E+00
         21   -1    0    0  501  502  0.00000000000E+00  0.00000000000E+00  0.22639350748E+03  0.22639350748E+03  0.00000000000E+00 0. -1.
         -1   -1    0    0    0  501 -0.00000000000E+00 -0.00000000000E+00 -0.12321470288E+03  0.12321470288E+03  0.00000000000E+00 0.  1.
         23    2    1    2    0    0  0.41090283569E+02  0.96001342211E+01 -0.56089554627E+02  0.11323050573E+03  0.88851197563E+02 0.  0.
         23    2    1    2    0    0 -0.68305291408E+02 -0.46982656243E+02  0.10204890570E+03  0.16281021545E+03  0.96021894779E+02 0.  0.
        -13    1    3    3    0    0  0.14957220841E+02  0.47989853730E+02 -0.39451531033E+02  0.63899669930E+02  0.00000000000E+00 0.  1.
         13    1    3    3    0    0  0.26133062727E+02 -0.38389719509E+02 -0.16638023594E+02  0.49330835799E+02  0.00000000000E+00 0. -1.
        -13    1    4    4    0    0 -0.65846717513E+02 -0.10174390973E+02  0.15040904520E+02  0.68304738105E+02  0.00000000000E+00 0.  1.
         13    1    4    4    0    0 -0.24585738949E+01 -0.36808265270E+02  0.87008001184E+02  0.94505477343E+02  0.00000000000E+00 0. -1.
         -1    1    1    2    0  502  0.27215007839E+02  0.37382522022E+02  0.57219453516E+02  0.73567489186E+02  0.00000000000E+00 0.  1.
<scales pt_clust_5="13000.00000" pt_clust_6="13000.00000" pt_clust_7="13000.00000" pt_clust_8="13000.00000" pt_clust_9="46.23970"></scales>
<clustering>
<clus scale="   46.240">  1  9  2 -1</clus>
<clus scale="   88.851">  5  6 -1 -1</clus>
<clus scale="   96.022">  7  8 -1 -1</clus>
<clus scale="  101.325">  2  5  1 -1</clus>
<clus scale="   46.240">  1  5  2 -1</clus>
</clustering>
</event>
<event>
 9    1  0.1426358E-005  0.1111948E+03  0.7546771E-02  0.1258489E+00
          4   -1    0    0  502    0 -0.00000000000E+00  0.00000000000E+00  0.13195800237E+03  0.13195800237E+03  0.00000000000E+00 0. -1.
         21   -1    0    0  501  502  0.00000000000E+00 -0.00000000000E+00 -0.16495821564E+03  0.16495821564E+03  0.00000000000E+00 0. -1.
         23    2    1    2    0    0  0.57609342558E+02 -0.25777991629E+02  0.27313847507E+02  0.11418274359E+03  0.91149939474E+02 0.  0.
         23    2    1    2    0    0 -0.38750721231E+02  0.59261484297E+02 -0.48757416045E+01  0.11527831070E+03  0.90839276444E+02 0.  0.
        -11    1    4    4    0    0  0.26660684085E+02  0.36923770554E+00  0.33736113079E+01  0.26875819348E+02  0.00000000000E+00 0. -1.
         11    1    4    4    0    0 -0.65411405316E+02  0.58892246592E+02 -0.82493529124E+01  0.88402491354E+02  0.00000000000E+00 0.  1.
        -13    1    3    3    0    0  0.39357409796E+02  0.30139872813E+02  0.24495034907E+02  0.55293981355E+02  0.00000000000E+00 0. -1.
         13    1    3    3    0    0  0.18251932762E+02 -0.55917864441E+02  0.28188126002E+01  0.58888762236E+02  0.00000000000E+00 0.  1.
          4    1    1    2  501    0 -0.18858621326E+02 -0.33483492668E+02 -0.55438319175E+02  0.67455163720E+02  0.00000000000E+00 0. -1.
<scales pt_clust_5="13000.00000" pt_clust_6="13000.00000" pt_clust_7="13000.00000" pt_clust_8="13000.00000" pt_clust_9="38.42905"></scales>
<clustering>
<clus scale="   38.429">  2  9  1 -1</clus>
<clus scale="   90.839">  5  6 -1 -1</clus>
<clus scale="   91.150">  7  8 -1 -1</clus>
<clus scale="  110.940">  2  5  1 -1</clus>
<clus scale="   38.429">  2  5  1 -1</clus>
</clustering>
</event>
<event>
 9    1  0.1426358E-005  0.2272811E+03  0.7546771E-02  0.1128593E+00
          1   -1    0    0  502    0 -0.00000000000E+00  0.00000000000E+00  0.86955738510E+02  0.86955738510E+02  0.00000000000E+00 0. -1.
         21   -1    0    0  501  502  0.00000000000E+00 -0.00000000000E+00 -0.68892870518E+03  0.68892870518E+03  0.00000000000E+00 0.  1.
         23    2    1    2    0    0  0.18095862704E+03 -0.81615313980E+02 -0.26354302716E+03  0.34248713716E+03  0.91844584921E+02 0.  0.
         23    2    1    2    0    0 -0.20806822627E+03  0.66682876633E+02 -0.27597086875E+03  0.36369046629E+03  0.91497770775E+02 0.  0.
        -11    1    4    4    0    0 -0.18099902921E+03  0.74800895833E+02 -0.18871690195E+03  0.27197406434E+03  0.00000000000E+00 0.  1.
         11    1    4    4    0    0 -0.27069197056E+02 -0.81180191997E+01 -0.87253966797E+02  0.91716401950E+02  0.00000000000E+00 0. -1.
        -11    1    3    3    0    0  0.11634317305E+03 -0.29584244659E+02 -0.21533737872E+03  0.24653832992E+03  0.00000000000E+00 0. -1.
         11    1    3    3    0    0  0.64615453991E+02 -0.52031069321E+02 -0.48205648445E+02  0.95948807242E+02  0.00000000000E+00 0.  1.
          1    1    1    2  501    0  0.27109599225E+02  0.14932437346E+02 -0.62459070761E+02  0.69706840235E+02  0.00000000000E+00 0. -1.
<scales pt_clust_5="13000.00000" pt_clust_6="13000.00000" pt_clust_7="13000.00000" pt_clust_8="13000.00000" pt_clust_9="30.95009"></scales>
<clustering>
<clus scale="   30.950">  2  9  1 -1</clus>
<clus scale="   91.498">  5  6 -1 -1</clus>
<clus scale="   91.845">  7  8 -1 -1</clus>
<clus scale="  227.141">  2  5  1 -1</clus>
<clus scale="   30.950">  2  5  1 -1</clus>
</clustering>
</event>
<event>
 9    1  0.1426358E-005  0.1151786E+03  0.7546771E-02  0.1251271E+00
          1   -1    0    0  502    0 -0.00000000000E+00  0.00000000000E+00  0.55182284657E+03  0.55182284657E+03  0.00000000000E+00 0. -1.
         21   -1    0    0  501  502  0.00000000000E+00 -0.00000000000E+00 -0.50161539175E+02  0.50161539175E+02  0.00000000000E+00 0. -1.
         23    2    1    2    0    0 -0.22485479305E+02  0.53209989914E+02  0.23852387915E+03  0.26220865240E+03  0.92319210704E+02 0.  0.
         23    2    1    2    0    0  0.25975944712E+02 -0.76600715039E+02  0.28326827743E+03  0.30871835967E+03  0.92323828724E+02 0.  0.
        -11    1    3    3    0    0 -0.54911742070E+02  0.52577070963E+02  0.15594273535E+03  0.17348713070E+03  0.00000000000E+00 0.  1.
         11    1    3    3    0    0  0.32426262765E+02  0.63291895157E+00  0.82581143794E+02  0.88721521705E+02  0.00000000000E+00 0. -1.
        -13    1    4    4    0    0 -0.23479678845E+01 -0.42044021751E+02  0.30408368238E+02  0.51941135693E+02  0.00000000000E+00 0.  1.
         13    1    4    4    0    0  0.28323912597E+02 -0.34556693287E+02  0.25285990920E+03  0.25677722398E+03  0.00000000000E+00 0. -1.
          1    1    1    2  501    0 -0.34904654076E+01  0.23390725124E+02 -0.20130849183E+02  0.31057373673E+02  0.00000000000E+00 0. -1.
<scales pt_clust_5="13000.00000" pt_clust_6="13000.00000" pt_clust_7="13000.00000" pt_clust_8="13000.00000" pt_clust_9="23.64972"></scales>
<clustering>
<clus scale="   23.650">  2  9  1 -1</clus>
<clus scale="   92.319">  5  6 -1 -1</clus>
<clus scale="   92.324">  7  8 -1 -1</clus>
<clus scale="  115.175">  1  5  2 -1</clus>
<clus scale="   23.650">  2  5  1 -1</clus>
</clustering>
</event>
<event>
 9    1  0.1426358E-005  0.1359410E+03  0.7546771E-02  0.1219716E+00
         21   -1    0    0  501  502  0.00000000000E+00  0.00000000000E+00  0.99703879844E+02  0.99703879844E+02  0.00000000000E+00 0.  1.
         -3   -1    0    0    0  501 -0.00000000000E+00 -0.00000000000E+00 -0.29100812302E+03  0.29100812302E+03  0.00000000000E+00 0.  1.
         23    2    1    2    0    0 -0.23778409776E+02  0.89905788103E+02 -0.12131624429E+03  0.17842073198E+03  0.92020991988E+02 0.  0.
         23    2    1    2    0    0  0.50743381613E+02 -0.90348070866E+02 -0.99412764652E+02  0.17237733646E+03  0.95359234804E+02 0.  0.
        -11    1    3    3    0    0  0.17080311633E+02  0.57668362352E+02 -0.10968371231E+03  0.12509154172E+03  0.00000000000E+00 0.  1.
         11    1    3    3    0    0 -0.40858721409E+02  0.32237425751E+02 -0.11632531976E+02  0.53329190266E+02  0.00000000000E+00 0. -1.
        -13    1    4    4    0    0  0.14359245461E+02 -0.99871711250E+02 -0.57777590607E+02  0.11627036000E+03  0.00000000000E+00 0.  1.
         13    1    4    4    0    0  0.36384136152E+02  0.95236403839E+01 -0.41635174045E+02  0.56106976460E+02  0.00000000000E+00 0. -1.
         -3    1    1    2    0  502 -0.26964971837E+02  0.44228276255E+00  0.29424765769E+02  0.39913934419E+02  0.00000000000E+00 0.  1.
<scales pt_clust_5="13000.00000" pt_clust_6="13000.00000" pt_clust_7="13000.00000" pt_clust_8="13000.00000" pt_clust_9="26.96860"></scales>
<clustering>
<clus scale="   26.969">  1  9  2 -1</clus>
<clus scale="   92.021">  5  6 -1 -1</clus>
<clus scale="   95.359">  7  8 -1 -1</clus>
<clus scale="  133.620">  2  5  1 -1</clus>
<clus scale="   26.969">  1  5  2 -1</clus>
</clustering>
</event>
<event>
 9    1  0.1426358E-005  0.1269342E+03  0.7546771E-02  0.1237152E+00
         21   -1    0    0  501  502  0.00000000000E+00  0.00000000000E+00  0.49737043055E+02  0.49737043055E+02  0.00000000000E+00 0. -1.
         -1   -1    0    0    0  501 -0.00000000000E+00 -0.00000000000E+00 -0.44505803561E+03  0.44505803561E+03  0.00000000000E+00 0.  1.
         23    2    1    2    0    0  0.46898793295E+02  0.50635751823E+02 -0.25955017453E+03  0.28312710510E+03  0.89616897793E+02 0.  0.
         23    2    1    2    0    0 -0.29926327650E+02 -0.73914647722E+02 -0.12206045502E+03  0.17976271321E+03  0.10515188133E+03 0.  0.
        -11    1    4    4    0    0 -0.50219401574E+02 -0.89226411363E+02 -0.11368834469E+03  0.15299797547E+03  0.00000000000E+00 0. -1.
         11    1    4    4    0    0  0.20293073924E+02  0.15311763642E+02 -0.83721103327E+01  0.26764737744E+02  0.00000000000E+00 0.  1.
        -11    1    3    3    0    0  0.11109111956E+02  0.65738398017E+02 -0.11011548389E+03  0.12872594585E+03  0.00000000000E+00 0. -1.
         11    1    3    3    0    0  0.35789681340E+02 -0.15102646193E+02 -0.14943469064E+03  0.15440115926E+03  0.00000000000E+00 0.  1.
         -1    1    1    2    0  502 -0.16972465645E+02  0.23278895898E+02 -0.13710363003E+02  0.31905260350E+02  0.00000000000E+00 0.  1.
<scales pt_clust_5="13000.00000" pt_clust_6="13000.00000" pt_clust_7="13000.00000" pt_clust_8="13000.00000" pt_clust_9="28.80923"></scales>
<clustering>
<clus scale="   28.809">  1  9  2 -1</clus>
<clus scale="   89.617">  7  8 -1 -1</clus>
<clus scale="  105.152">  5  6 -1 -1</clus>
<clus scale="  114.396">  2  7  1 -1</clus>
<clus scale="   28.809">  1  5  2 -1</clus>
</clustering>
</event>
<event>
 9    1  0.1426358E-005  0.9986341E+02  0.7546771E-02  0.1281168E+00
          2   -1    0    0  502    0 -0.00000000000E+00  0.00000000000E+00  0.52282781982E+03  0.52282781982E+03  0.00000000000E+00 0. -1.
         21   -1    0    0  501  502  0.00000000000E+00 -0.00000000000E+00 -0.57197485740E+02  0.57197485740E+02  0.00000000000E+00 0. -1.
         23    2    1    2    0    0  0.14567128798E+02 -0.22320056733E+02  0.20841968894E+03  0.22913536834E+03  0.91399475453E+02 0.  0.
         23    2    1    2    0    0 -0.36866216500E+02  0.73876066713E+02  0.45955480284E+02  0.13229438339E+03  0.92591071682E+02 0.  0.
        -11    1    3    3    0    0  0.53369581627E+02 -0.87505715633E+01  0.12058256366E+03  0.13215536086E+03  0.00000000000E+00 0. -1.
         11    1    3    3    0    0 -0.38802452829E+02 -0.13569485170E+02  0.87837125278E+02  0.96980007478E+02  0.00000000000E+00 0.  1.
        -11    1    4    4    0    0 -0.53481303820E+02  0.58784454831E+01  0.24182906890E+02  0.58988295154E+02  0.00000000000E+00 0. -1.
         11    1    4    4    0    0  0.16615087320E+02  0.67997621230E+02  0.21772573395E+02  0.73306088232E+02  0.00000000000E+00 0.  1.
          2    1    1    2  501    0  0.22299087702E+02 -0.51556009980E+02  0.21125516486E+03  0.21859555383E+03  0.00000000000E+00 0. -1.
<scales pt_clust_5="13000.00000" pt_clust_6="13000.00000" pt_clust_7="13000.00000" pt_clust_8="13000.00000" pt_clust_9="56.17183"></scales>
<clustering>
<clus scale="   56.172">  2  9  1 -1</clus>
<clus scale="   91.399">  5  6 -1 -1</clus>
<clus scale="   92.591">  7  8 -1 -1</clus>
<clus scale="   98.760">  1  5  2 -1</clus>
<clus scale="   56.172">  2  5  1 -1</clus>
</clustering>
</event>
<event>
 9    1  0.1426358E-005  0.2133070E+03  0.7546771E-02  0.1139449E+00
         21   -1    0    0  501  502  0.00000000000E+00  0.00000000000E+00  0.11553310888E+03  0.11553310888E+03  0.00000000000E+00 0.  1.
         -1   -1    0    0    0  501 -0.00000000000E+00 -0.00000000000E+00 -0.93021900615E+03  0.93021900615E+03  0.00000000000E+00 0.  1.
         23    2    1    2    0    0  0.22459000386E+03 -0.22276577634E+01 -0.62727790911E+03  0.67256237686E+03  0.91743900149E+02 0.  0.
         23    2    1    2    0    0 -0.14412675021E+03 -0.88648793041E+01 -0.22434940427E+03  0.28395943058E+03  0.97206979223E+02 0.  0.
        -13    1    3    3    0    0  0.57646232024E+02 -0.50095644283E+01 -0.70054540788E+02  0.90861556708E+02  0.00000000000E+00 0. -1.
         13    1    3    3    0    0  0.16694377184E+03  0.27819066650E+01 -0.55722336833E+03  0.58170082015E+03  0.00000000000E+00 0.  1.
        -13    1    4    4    0    0 -0.33335907668E+02 -0.44557672278E+02 -0.53251251949E+02  0.77021845817E+02  0.00000000000E+00 0.  1.
         13    1    4    4    0    0 -0.11079084254E+03  0.35692792974E+02 -0.17109815232E+03  0.20693758476E+03  0.00000000000E+00 0. -1.
         -1    1    1    2    0  502 -0.80463253655E+02  0.11092537067E+02  0.36941416116E+02  0.89230307586E+02  0.00000000000E+00 0.  1.
<scales pt_clust_5="13000.00000" pt_clust_6="13000.00000" pt_clust_7="13000.00000" pt_clust_8="13000.00000" pt_clust_9="81.22425"></scales>
<clustering>
<clus scale="   81.224">  1  9  2 -1</clus>
<clus scale="   91.744">  5  6 -1 -1</clus>
<clus scale="   97.207">  7  8 -1 -1</clus>
<clus scale="  210.873">  2  5  1 -1</clus>
<clus scale="   81.224">  1  5  2 -1</clus>
</clustering>
</event>
<event>
 9    1  0.1426358E-005  0.1137005E+03  0.7546771E-02  0.1254127E+00
         21   -1    0    0  501  502  0.00000000000E+00  0.00000000000E+00  0.38408452558E+03  0.38408452558E+03  0.00000000000E+00 0.  1.
          1   -1    0    0  502    0 -0.00000000000E+00 -0.00000000000E+00 -0.77298439916E+02  0.77298439916E+02  0.00000000000E+00 0. -1.
         23    2    1    2    0    0 -0.55800623372E+02 -0.25135330756E+02  0.58634704112E+01  0.10968848926E+03  0.90838813129E+02 0.  0.
         23    2    1    2    0    0  0.98406317462E+02  0.95579215503E+01  0.19505950004E+03  0.23652112858E+03  0.90104819679E+02 0.  0.
        -11    1    4    4    0    0  0.97665817966E+02 -0.20104019030E+02  0.17250581396E+03  0.19925119681E+03  0.00000000000E+00 0.  1.
         11    1    4    4    0    0  0.74049949540E+00  0.29661940581E+02  0.22553686078E+02  0.37269931771E+02  0.00000000000E+00 0. -1.
        -11    1    3    3    0    0 -0.13019064853E+02 -0.54715765122E+02  0.11385100666E+02  0.57384070261E+02  0.00000000000E+00 0. -1.
         11    1    3    3    0    0 -0.42781558519E+02  0.29580434366E+02 -0.55216302549E+01  0.52304419003E+02  0.00000000000E+00 0.  1.
          1    1    1    2  501    0 -0.42605694089E+02  0.15577409206E+02  0.10586311522E+03  0.11517334766E+03  0.00000000000E+00 0. -1.
<scales pt_clust_5="13000.00000" pt_clust_6="13000.00000" pt_clust_7="13000.00000" pt_clust_8="13000.00000" pt_clust_9="45.36409"></scales>
<clustering>
<clus scale="   45.364">  1  9  2 -1</clus>
<clus scale="   90.105">  5  6 -1 -1</clus>
<clus scale="   90.839">  7  8 -1 -1</clus>
<clus scale="  113.115">  1  5  2 -1</clus>
<clus scale="   45.364">  1  5  2 -1</clus>
</clustering>
</event>
<event>
 9    1  0.1426358E-005  0.9988069E+02  0.7546771E-02  0.1281441E+00
          1   -1    0    0  502    0 -0.00000000000E+00  0.00000000000E+00  0.17002274155E+03  0.17002274155E+03  0.00000000000E+00 0. -1.
         21   -1    0    0  501  502  0.00000000000E+00 -0.00000000000E+00 -0.15711971356E+03  0.15711971356E+03  0.00000000000E+00 0. -1.
         23    2    1    2    0    0  0.39829613048E+02 -0.25199039969E+01  0.11318780235E+03  0.15068332515E+03  0.91111129328E+02 0.  0.
         23    2    1    2    0    0 -0.22710731051E+02 -0.29078448904E+02 -0.42996884523E+02  0.10883210615E+03  0.92921266434E+02 0.  0.
        -11    1    3    3    0    0  0.14565815489E+02  0.43887217269E+02  0.46212716823E+02  0.65374811790E+02  0.00000000000E+00 0.  1.
         11    1    3    3    0    0  0.25263797559E+02 -0.46407121266E+02  0.66975085524E+02  0.85308513363E+02  0.00000000000E+00 0. -1.
        -13    1    4    4    0    0 -0.44285601042E+02  0.13469842438E+02 -0.39753451697E+02  0.61016293207E+02  0.00000000000E+00 0.  1.
         13    1    4    4    0    0  0.21574869990E+02 -0.42548291342E+02 -0.32434328261E+01  0.47815812946E+02  0.00000000000E+00 0. -1.
          1    1    1    2  501    0 -0.17118881997E+02  0.31598352901E+02 -0.57287889829E+02  0.67627023799E+02  0.00000000000E+00 0. -1.
<scales pt_clust_5="13000.00000" pt_clust_6="13000.00000" pt_clust_7="13000.00000" pt_clust_8="13000.00000" pt_clust_9="35.93761"></scales>
<clustering>
<clus scale="   35.938">  2  9  1 -1</clus>
<clus scale="   91.111">  5  6 -1 -1</clus>
<clus scale="   92.921">  7  8 -1 -1</clus>
<clus scale="   98.199">  1  5  2 -1</clus>
<clus scale="   35.938">  2  5  1 -1</clus>
</clustering>
</event>
<event>
 9    1  0.1426358E-005  0.1203340E+03  0.7546771E-02  0.1245774E+00
         21   -1    0    0  501  502  0.00000000000E+00  0.00000000000E+00  0.28058700688E+03  0.28058700688E+03  0.00000000000E+00 0.  1.
         -4   -1    0    0    0  501 -0.00000000000E+00 -0.00000000000E+00 -0.82353314616E+02  0.82353314616E+02  0.00000000000E+00 0.  1.
         23    2    1    2    0    0  0.54630165503E+02  0.48644240866E+02  0.33811441758E+02  0.13035024133E+03  0.10245611093E+03 0.  0.
         23    2    1    2    0    0 -0.53386790202E+02 -0.14119235245E+02  0.63103716922E+02  0.12554351440E+03  0.93432289638E+02 0.  0.
        -13    1    3    3    0    0  0.63897913507E+02  0.68420174033E+02  0.47086669304E+02  0.10479226112E+03  0.00000000000E+00 0. -1.
         13    1    3    3    0    0 -0.92677480033E+01 -0.19775933167E+02 -0.13275227545E+02  0.25557980203E+02  0.00000000000E+00 0.  1.
        -13    1    4    4    0    0 -0.75537876382E+02  0.95150034991E+01  0.44800046081E+02  0.88337705363E+02  0.00000000000E+00 0.  1.
         13    1    4    4    0    0  0.22151086180E+02 -0.23634238744E+02  0.18303670841E+02  0.37205809039E+02  0.00000000000E+00 0. -1.
         -4    1    1    2    0  502 -0.12433753013E+01 -0.34525005621E+02  0.10131853359E+03  0.10704656577E+03  0.00000000000E+00 0.  1.
<scales pt_clust_5="13000.00000" pt_clust_6="13000.00000" pt_clust_7="13000.00000" pt_clust_8="13000.00000" pt_clust_9="34.54739"></scales>
<clustering>
<clus scale="   34.547">  1  9  2 -1</clus>
<clus scale="   93.432">  7  8 -1 -1</clus>
<clus scale="  102.456">  5  6 -1 -1</clus>
<clus scale="  112.750">  1  7  2 -1</clus>
<clus scale="   34.547">  1  5  2 -1</clus>
</clustering>
</event>
<event>
 9    1  0.1426358E-005  0.1006303E+03  0.7546771E-02  0.1279956E+00
         21   -1    0    0  501  502  0.00000000000E+00  0.00000000000E+00  0.19967418404E+03  0.19967418404E+03  0.00000000000E+00 0.  1.
          1   -1    0    0  502    0 -0.00000000000E+00 -0.00000000000E+00 -0.21166612007E+03  0.21166612007E+03  0.00000000000E+00 0. -1.
         23    2    1    2    0    0  0.37975150782E+02  0.39479697978E+01 -0.17364302523E+03  0.20077238255E+03  0.93273527016E+02 0.  0.
         23    2    1    2    0    0 -0.29192373373E+02 -0.34520106786E+02  0.11000736593E+03  0.14991425810E+03  0.91262433604E+02 0.  0.
        -13    1    4    4    0    0  0.14110991392E+01 -0.52348419255E+02  0.10036800570E+03  0.11320814797E+03  0.00000000000E+00 0.  1.
         13    1    4    4    0    0 -0.30603472512E+02  0.17828312470E+02  0.96393602364E+01  0.36706110133E+02  0.00000000000E+00 0. -1.
        -13    1    3    3    0    0 -0.31306452517E+01  0.42814500227E+02 -0.59385743818E+02  0.73277206130E+02  0.00000000000E+00 0.  1.
         13    1    3    3    0    0  0.41105796034E+02 -0.38866530430E+02 -0.11425728141E+03  0.12749517642E+03  0.00000000000E+00 0. -1.
          1    1    1    2  501    0 -0.87827774094E+01  0.30572136988E+02  0.51643723259E+02  0.60653663459E+02  0.00000000000E+00 0. -1.
<scales pt_clust_5="13000.00000" pt_clust_6="13000.00000" pt_clust_7="13000.00000" pt_clust_8="13000.00000" pt_clust_9="31.80869"></scales>
<clustering>
<clus scale="   31.809">  1  9  2 -1</clus>
<clus scale="   91.262">  5  6 -1 -1</clus>
<clus scale="   93.274">  7  8 -1 -1</clus>
<clus scale="   98.769">  1  5  2 -1</clus>
<clus scale="   31.809">  1  5  2 -1</clus>
</clustering>
</event>
<event>
 9    1  0.1426358E-005  0.1817331E+03  0.7546771E-02  0.1169960E+00
          1   -1    0    0  502    0 -0.00000000000E+00  0.00000000000E+00  0.73725412149E+03  0.73725412149E+03  0.00000000000E+00 0. -1.
         21   -1    0    0  501  502  0.00000000000E+00 -0.00000000000E+00 -0.60096598850E+02  0.60096598850E+02  0.00000000000E+00 0. -1.
         23    2    1    2    0    0 -0.12419263925E+03 -0.57703918033E+02  0.44458287756E+03  0.47987980558E+03  0.11780126905E+03 0.  0.
         23    2    1    2    0    0  0.14176917901E+03  0.27592093895E+02  0.15008337563E+03  0.22791385898E+03  0.92519639617E+02 0.  0.
        -11    1    4    4    0    0  0.63244014050E+02  0.30517143071E+02  0.15257691912E+02  0.71860270643E+02  0.00000000000E+00 0.  1.
         11    1    4    4    0    0  0.78525164955E+02 -0.29250491758E+01  0.13482568372E+03  0.15605358834E+03  0.00000000000E+00 0. -1.
        -13    1    3    3    0    0 -0.43646932823E+02 -0.36294621631E+02  0.47123743181E+02  0.73776700086E+02  0.00000000000E+00 0.  1.
         13    1    3    3    0    0 -0.80545706424E+02 -0.21409296402E+02  0.39745913437E+03  0.40610310550E+03  0.00000000000E+00 0. -1.
          1    1    1    2  501    0 -0.17576539758E+02  0.30111824138E+02  0.82491269451E+02  0.89557055771E+02  0.00000000000E+00 0. -1.
<scales pt_clust_5="13000.00000" pt_clust_6="13000.00000" pt_clust_7="13000.00000" pt_clust_8="13000.00000" pt_clust_9="34.86629"></scales>
<clustering>
<clus scale="   34.866">  2  9  1 -1</clus>
<clus scale="   92.520">  5  6 -1 -1</clus>
<clus scale="  117.801">  7  8 -1 -1</clus>
<clus scale="  166.462">  2  5  1 -1</clus>
<clus scale="   34.866">  2  5  1 -1</clus>
</clustering>
</event>
<event>
 9    1  0.1426358E-005  0.1480964E+03  0.7546771E-02  0.1204163E+00
          1   -1    0    0  502    0 -0.00000000000E+00  0.00000000000E+00  0.10847156514E+03  0.10847156514E+03  0.00000000000E+00 0. -1.
         21   -1    0    0  501  502  0.00000000000E+00 -0.00000000000E+00 -0.69567753387E+03  0.69567753387E+03  0.00000000000E+00 0. -1.
         23    2    1    2    0    0  0.18424148115E+02  0.11678473063E+03  0.35833444423E+02  0.15703215478E+03  0.96937811780E+02 0.  0.
         23    2    1    2    0    0 -0.21868475850E+01 -0.77635010245E+02 -0.32664758724E+03  0.34771008894E+03  0.90397359368E+02 0.  0.
        -11    1    3    3    0    0  0.36880258622E+02  0.29131456917E+01  0.14408099116E+02  0.39701803662E+02  0.00000000000E+00 0.  1.
         11    1    3    3    0    0 -0.18456110507E+02  0.11387158494E+03  0.21425345307E+02  0.11733035111E+03  0.00000000000E+00 0. -1.
        -13    1    4    4    0    0 -0.38123113880E+02 -0.61802714087E+02 -0.14872550284E+03  0.16550595904E+03  0.00000000000E+00 0.  1.
         13    1    4    4    0    0  0.35936266295E+02 -0.15832296158E+02 -0.17792208440E+03  0.18220412990E+03  0.00000000000E+00 0. -1.
          1    1    1    2  501    0 -0.16237300530E+02 -0.39149720383E+02 -0.29639182591E+03  0.29940685530E+03  0.00000000000E+00 0. -1.
<scales pt_clust_5="13000.00000" pt_clust_6="13000.00000" pt_clust_7="13000.00000" pt_clust_8="13000.00000" pt_clust_9="42.38338"></scales>
<clustering>
<clus scale="   42.383">  2  9  1 -1</clus>
<clus scale="   90.397">  7  8 -1 -1</clus>
<clus scale="   96.938">  5  6 -1 -1</clus>
<clus scale="  143.900">  2  7  1 -1</clus>
<clus scale="   42.383">  2  5  1 -1</clus>
</clustering>
</event>
<event>
 9    1  0.1426358E-005  0.1602749E+03  0.7546771E-02  0.1189901E+00
         21   -1    0    0  501  502  0.00000000000E+00  0.00000000000E+00  0.33049871559E+02  0.33049871559E+02  0.00000000000E+00 0. -1.
          1   -1    0    0  502    0 -0.00000000000E+00 -0.00000000000E+00 -0.10671365575E+04  0.10671365575E+04  0.00000000000E+00 0. -1.
         23    2    1    2    0    0  0.98597826701E+02  0.65982685000E+02 -0.48984205572E+03  0.51240697591E+03  0.92414410451E+02 0.  0.
         23    2    1    2    0    0 -0.13885029003E+03 -0.52598097502E+02 -0.49151744286E+03  0.52010697518E+03  0.82921083527E+02 0.  0.
        -13    1    3    3    0    0  0.35571664100E+02 -0.21732976213E+02 -0.11541170843E+03  0.12270911941E+03  0.00000000000E+00 0.  1.
         13    1    3    3    0    0  0.63026162601E+02  0.87715661213E+02 -0.37443034729E+03  0.38969785650E+03  0.00000000000E+00 0. -1.
        -13    1    4    4    0    0 -0.79581110991E+02 -0.14940949687E+02 -0.14074273658E+03  0.16237272894E+03  0.00000000000E+00 0. -1.
         13    1    4    4    0    0 -0.59269179041E+02 -0.37657147815E+02 -0.35077470628E+03  0.35773424624E+03  0.00000000000E+00 0.  1.
          1    1    1    2  501    0  0.40252463332E+02 -0.13384587498E+02 -0.52727187338E+02  0.67672477946E+02  0.00000000000E+00 0. -1.
<scales pt_clust_5="13000.00000" pt_clust_6="13000.00000" pt_clust_7="13000.00000" pt_clust_8="13000.00000" pt_clust_9="42.41943"></scales>
<clustering>
<clus scale="   42.419">  1  9  2 -1</clus>
<clus scale="   82.921">  7  8 -1 -1</clus>
<clus scale="   92.414">  5  6 -1 -1</clus>
<clus scale="  154.995">  1  7  2 -1</clus>
<clus scale="   42.419">  1  5  2 -1</clus>
</clustering>
</event>
<event>
 9    1  0.1426358E-005  0.1082368E+03  0.7546771E-02  0.1264764E+00
         21   -1    0    0  501  502  0.00000000000E+00  0.00000000000E+00  0.74391883176E+03  0.74391883176E+03  0.00000000000E+00 0.  1.
          3   -1    0    0  502    0 -0.00000000000E+00 -0.00000000000E+00 -0.25115407263E+02  0.25115407263E+02  0.00000000000E+00 0. -1.
         23    2    1    2    0    0  0.55008558414E+02  0.54875463810E+01  0.15490166111E+03  0.18704923417E+03  0.89088925946E+02 0.  0.
         23    2    1    2    0    0 -0.65610829620E+02  0.20273506410E+02  0.41195303114E+03  0.42750375282E+03  0.91314636222E+02 0.  0.
        -11    1    3    3    0    0  0.16576172383E+02  0.39569982623E+02  0.11263083398E+03  0.12052492597E+03  0.00000000000E+00 0.  1.
         11    1    3    3    0    0  0.38432386031E+02 -0.34082436242E+02  0.42270827123E+02  0.66524308203E+02  0.00000000000E+00 0. -1.
        -11    1    4    4    0    0 -0.76168980563E+02  0.43591517349E+02  0.29473295396E+03  0.30752145963E+03  0.00000000000E+00 0.  1.
         11    1    4    4    0    0  0.10558150943E+02 -0.23318010939E+02  0.11722007718E+03  0.11998229319E+03  0.00000000000E+00 0. -1.
          3    1    1    2  501    0  0.10602271206E+02 -0.25761052791E+02  0.15194873225E+03  0.15448125203E+03  0.00000000000E+00 0. -1.
<scales pt_clust_5="13000.00000" pt_clust_6="13000.00000" pt_clust_7="13000.00000" pt_clust_8="13000.00000" pt_clust_9="27.85749"></scales>
<clustering>
<clus scale="   27.857">  1  9  2 -1</clus>
<clus scale="   89.089">  5  6 -1 -1</clus>
<clus scale="   91.315">  7  8 -1 -1</clus>
<clus scale="  106.366">  2  5  1 -1</clus>
<clus scale="   27.857">  1  5  2 -1</clus>
</clustering>
</event>
<event>
 9    1  0.1426358E-005  0.1389236E+03  0.7546771E-02  0.1215253E+00
          1   -1    0    0  502    0 -0.00000000000E+00  0.00000000000E+00  0.12649849506E+04  0.12649849506E+04  0.00000000000E+00 0. -1.
         21   -1    0    0  501  502  0.00000000000E+00 -0.00000000000E+00 -0.29507056712E+02  0.29507056712E+02  0.00000000000E+00 0.  1.
         23    2    1    2    0    0 -0.14681472670E+02  0.84584274096E+02  0.57475469939E+03  0.58807544999E+03  0.90109518629E+02 0.  0.
         23    2    1    2    0    0  0.54158220097E+02 -0.13170767185E+03  0.58712682341E+03  0.61052362724E+03  0.87983913427E+02 0.  0.
        -13    1    3    3    0    0  0.33489297659E+02  0.21693787695E+02  0.11966452702E+03  0.12614179525E+03  0.00000000000E+00 0.  1.
         13    1    3    3    0    0 -0.48170770329E+02  0.62890486401E+02  0.45509017237E+03  0.46193365474E+03  0.00000000000E+00 0. -1.
        -13    1    4    4    0    0  0.52471640105E+02 -0.22470755603E+02  0.16999329510E+03  0.17932074127E+03  0.00000000000E+00 0.  1.
         13    1    4    4    0    0  0.16865799921E+01 -0.10923691625E+03  0.41713352831E+03  0.43120288597E+03  0.00000000000E+00 0. -1.
          1    1    1    2  501    0 -0.39476747427E+02  0.47123397755E+02  0.73596371115E+02  0.95892930108E+02  0.00000000000E+00 0. -1.
<scales pt_clust_5="13000.00000" pt_clust_6="13000.00000" pt_clust_7="13000.00000" pt_clust_8="13000.00000" pt_clust_9="61.47380"></scales>
<clustering>
<clus scale="   61.474">  2  9  1 -1</clus>
<clus scale="   87.984">  7  8 -1 -1</clus>
<clus scale="   90.110">  5  6 -1 -1</clus>
<clus scale="  137.554">  2  7  1 -1</clus>
<clus scale="   61.474">  2  5  1 -1</clus>
</clustering>
</event>
<event>
 9    1  0.1426358E-005  0.9659557E+02  0.7546771E-02  0.1288984E+00
         -1   -1    0    0    0  501 -0.00000000000E+00  0.00000000000E+00  0.16330546487E+03  0.16330546487E+03  0.00000000000E+00 0.  1.
         21   -1    0    0  501  502  0.00000000000E+00 -0.00000000000E+00 -0.12707272981E+03  0.12707272981E+03  0.00000000000E+00 0. -1.
         23    2    1    2    0    0 -0.37665377419E+02 -0.13823504509E+02  0.80414184061E+02  0.12737147726E+03  0.90262297156E+02 0.  0.
         23    2    1    2    0    0 -0.16655933960E+02  0.23049686470E+02 -0.86551327616E+01  0.97447229555E+02  0.92802710319E+02 0.  0.
        -11    1    3    3    0    0 -0.57712368630E+02 -0.25309761028E+02  0.82900594380E+02  0.10413361630E+03  0.00000000000E+00 0.  1.
         11    1    3    3    0    0  0.20046991211E+02  0.11486256518E+02 -0.24864103193E+01  0.23237860954E+02  0.00000000000E+00 0. -1.
        -13    1    4    4    0    0  0.28692687053E+02 -0.17104495850E+02  0.85481531050E+01  0.34480501594E+02  0.00000000000E+00 0.  1.
         13    1    4    4    0    0 -0.45348621013E+02  0.40154182320E+02 -0.17203285867E+02  0.62966727962E+02  0.00000000000E+00 0. -1.
         -1    1    1    2    0  502  0.54321311379E+02 -0.92261819606E+01 -0.35526316244E+02  0.65559487867E+02  0.00000000000E+00 0.  1.
<scales pt_clust_5="13000.00000" pt_clust_6="13000.00000" pt_clust_7="13000.00000" pt_clust_8="13000.00000" pt_clust_9="55.09925"></scales>
<clustering>
<clus scale="   55.099">  2  9  1 -1</clus>
<clus scale="   90.262">  5  6 -1 -1</clus>
<clus scale="   92.803">  7  8 -1 -1</clus>
<clus scale="   94.158">  1  5  2 -1</clus>
<clus scale="   55.099">  2  5  1 -1</clus>
</clustering>
</event>
<event>
 9    1  0.1426358E-005  0.1030034E+03  0.7546771E-02  0.1276281E+00
         21   -1    0    0  501  502  0.00000000000E+00  0.00000000000E+00  0.25534978539E+03  0.25534978539E+03  0.00000000000E+00 0. -1.
          1   -1    0    0  502    0 -0.00000000000E+00 -0.00000000000E+00 -0.98161751859E+02  0.98161751859E+02  0.00000000000E+00 0. -1.
         23    2    1    2    0    0  0.36702667652E+02 -0.54486259309E+00  0.11537988265E+02  0.98074502206E+02  0.90211419021E+02 0.  0.
         23    2    1    2    0    0 -0.61070936936E+02 -0.15385524129E+02 -0.83178587136E+00  0.10609006781E+03  0.85370000168E+02 0.  0.
        -11    1    3    3    0    0  0.15579981972E+02 -0.24265648112E+02  0.44032732840E+02  0.52634960605E+02  0.00000000000E+00 0.  1.
         11    1    3    3    0    0  0.21122685680E+02  0.23720785518E+02 -0.32494744575E+02  0.45439541601E+02  0.00000000000E+00 0. -1.
        -11    1    4    4    0    0  0.18215633290E+02 -0.18467311067E+02 -0.58296461133E+01  0.26586380874E+02  0.00000000000E+00 0.  1.
         11    1    4    4    0    0 -0.79286570226E+02  0.30817869378E+01  0.49978602420E+01  0.79503686933E+02  0.00000000000E+00 0. -1.
          1    1    1    2  501    0  0.24368269285E+02  0.15930386722E+02  0.14648183114E+03  0.14934696724E+03  0.00000000000E+00 0. -1.
<scales pt_clust_5="13000.00000" pt_clust_6="13000.00000" pt_clust_7="13000.00000" pt_clust_8="13000.00000" pt_clust_9="29.11340"></scales>
<clustering>
<clus scale="   29.113">  1  9  2 -1</clus>
<clus scale="   85.370">  7  8 -1 -1</clus>
<clus scale="   90.211">  5  6 -1 -1</clus>
<clus scale="   98.791">  1  7  2 -1</clus>
<clus scale="   29.113">  1  5  2 -1</clus>
</clustering>
</event>
<event>
 9    1  0.1426358E-005  0.1515456E+03  0.7546771E-02  0.1198774E+00
         -3   -1    0    0    0  501 -0.00000000000E+00  0.00000000000E+00  0.24735362516E+03  0.24735362516E+03  0.00000000000E+00 0.  1.
         21   -1    0    0  501  502  0.00000000000E+00 -0.00000000000E+00 -0.38035829153E+03  0.38035829153E+03  0.00000000000E+00 0.  1.
         23    2    1    2    0    0 -0.12040839377E+03  0.99641899106E+01  0.12897751888E+03  0.19745501032E+03  0.88067101422E+02 0.  0.
         23    2    1    2    0    0  0.12405268898E+03 -0.44881828911E+02  0.77814196053E+01  0.15821844418E+03  0.87000444691E+02 0.  0.
        -11    1    4    4    0    0  0.79419085034E+02 -0.44160043624E+02 -0.34051308347E+02  0.97041187754E+02  0.00000000000E+00 0. -1.
         11    1    4    4    0    0  0.44633603950E+02 -0.72178528624E+00  0.41832727952E+02  0.61177256423E+02  0.00000000000E+00 0.  1.
        -13    1    3    3    0    0 -0.31979182226E+02  0.43957132868E+02  0.40056143295E+02  0.67523271851E+02  0.00000000000E+00 0. -1.
         13    1    3    3    0    0 -0.88429211548E+02 -0.33992942958E+02  0.88921375587E+02  0.12993173847E+03  0.00000000000E+00 0.  1.
         -3    1    1    2    0  502 -0.36442952098E+01  0.34917639000E+02 -0.26976360486E+03  0.27203846218E+03  0.00000000000E+00 0.  1.
<scales pt_clust_5="13000.00000" pt_clust_6="13000.00000" pt_clust_7="13000.00000" pt_clust_8="13000.00000" pt_clust_9="35.10730"></scales>
<clustering>
<clus scale="   35.107">  2  9  1 -1</clus>
<clus scale="   87.000">  5  6 -1 -1</clus>
<clus scale="   88.067">  7  8 -1 -1</clus>
<clus scale="  150.928">  2  5  1 -1</clus>
<clus scale="   35.107">  2  5  1 -1</clus>
</clustering>
</event>
<event>
 9    1  0.1426358E-005  0.9570266E+02  0.7546771E-02  0.1291030E+00
         21   -1    0    0  501  502  0.00000000000E+00  0.00000000000E+00  0.74331066980E+02  0.74331066980E+02  0.00000000000E+00 0. -1.
         -1   -1    0    0    0  501 -0.00000000000E+00 -0.00000000000E+00 -0.18116620561E+03  0.18116620561E+03  0.00000000000E+00 0.  1.
         23    2    1    2    0    0  0.67212046576E+01 -0.44104820387E+01 -0.59595572361E+02  0.11177233469E+03  0.94216748051E+02 0.  0.
         23    2    1    2    0    0 -0.33278965699E+02 -0.12168550813E+01 -0.10546828165E+02  0.98081333482E+02  0.91650106922E+02 0.  0.
        -11    1    4    4    0    0  0.61194699058E+01  0.39599189106E+02 -0.10217024422E+02  0.41351315310E+02  0.00000000000E+00 0. -1.
         11    1    4    4    0    0 -0.39398435605E+02 -0.40816044188E+02 -0.32980374236E+00  0.56730018172E+02  0.00000000000E+00 0.  1.
        -13    1    3    3    0    0 -0.37496219289E+02 -0.11681832106E+02 -0.27246170831E+01  0.39368200372E+02  0.00000000000E+00 0. -1.
         13    1    3    3    0    0  0.44217423946E+02  0.72713500673E+01 -0.56870955278E+02  0.72404134319E+02  0.00000000000E+00 0.  1.
         -1    1    1    2    0  502  0.26557761042E+02  0.56273371200E+01 -0.36692738105E+02  0.45643604418E+02  0.00000000000E+00 0.  1.
<scales pt_clust_5="13000.00000" pt_clust_6="13000.00000" pt_clust_7="13000.00000" pt_clust_8="13000.00000" pt_clust_9="27.14742"></scales>
<clustering>
<clus scale="   27.147">  1  9  2 -1</clus>
<clus scale="   91.650">  5  6 -1 -1</clus>
<clus scale="   93.177">  1  5  2 -1</clus>
<clus scale="   94.217">  7  8 -1 -1</clus>
<clus scale="   27.147">  1  5  2 -1</clus>
</clustering>
</event>
<event>
 9    1  0.1426358E-005  0.9660284E+02  0.7546771E-02  0.1289502E+00
          1   -1    0    0  502    0 -0.00000000000E+00  0.00000000000E+00  0.20351820122E+03  0.20351820122E+03  0.00000000000E+00 0. -1.
         21   -1    0    0  501  502  0.00000000000E+00 -0.00000000000E+00 -0.15173362375E+03  0.15173362375E+03  0.00000000000E+00 0.  1.
         23    2    1    2    0    0  0.19462151807E+02 -0.11552132436E+02  0.14381443578E+03  0.17074766737E+03  0.89218534282E+02 0.  0.
         23    2    1    2    0    0 -0.42206272619E+02  0.20985540390E+02 -0.16841199901E+02  0.10538640630E+03  0.92741071082E+02 0.  0.
        -13    1    3    3    0    0  0.28708290494E+02 -0.46767281596E+02  0.96940213010E+02  0.11139456661E+03  0.00000000000E+00 0. -1.
         13    1    3    3    0    0 -0.92461386866E+01  0.35215149159E+02  0.46874222766E+02  0.59353100769E+02  0.00000000000E+00 0.  1.
        -13    1    4    4    0    0  0.22589335400E+02 -0.10105843309E+02  0.12541119065E+02  0.27743211966E+02  0.00000000000E+00 0. -1.
         13    1    4    4    0    0 -0.64795608019E+02  0.31091383699E+02 -0.29382318967E+02  0.77643194336E+02  0.00000000000E+00 0.  1.
          1    1    1    2  501    0  0.22744120812E+02 -0.94334079536E+01 -0.75188658400E+02  0.79117751289E+02  0.00000000000E+00 0. -1.
<scales pt_clust_5="13000.00000" pt_clust_6="13000.00000" pt_clust_7="13000.00000" pt_clust_8="13000.00000" pt_clust_9="24.62284"></scales>
<clustering>
<clus scale="   24.623">  2  9  1 -1</clus>
<clus scale="   89.219">  5  6 -1 -1</clus>
<clus scale="   92.741">  7  8 -1 -1</clus>
<clus scale="   93.226">  1  5  2 -1</clus>
<clus scale="   24.623">  2  5  1 -1</clus>
</clustering>
</event>
<event>
 9    1  0.1426358E-005  0.1380258E+03  0.7546771E-02  0.1216758E+00
          1   -1    0    0  502    0 -0.00000000000E+00  0.00000000000E+00  0.11951622931E+03  0.11951622931E+03  0.00000000000E+00 0. -1.
         21   -1    0    0  501  502  0.00000000000E+00 -0.00000000000E+00 -0.28801912417E+03  0.28801912417E+03  0.00000000000E+00 0.  1.
         23    2    1    2    0    0  0.14445317326E+01 -0.97510362600E+02 -0.27404363733E+00  0.13114996121E+03  0.87691959372E+02 0.  0.
         23    2    1    2    0    0 -0.39123094219E+02  0.11108665371E+03 -0.59107804430E+02  0.16014687627E+03  0.91007847462E+02 0.  0.
        -11    1    3    3    0    0 -0.18190433044E+02 -0.10262756543E+03 -0.16039709943E+02  0.10545416699E+03  0.00000000000E+00 0. -1.
         11    1    3    3    0    0  0.19634964776E+02  0.51172028275E+01  0.15765666306E+02  0.25695794220E+02  0.00000000000E+00 0.  1.
        -13    1    4    4    0    0 -0.44287825386E+02  0.72827327302E+01 -0.19174295943E+02  0.48806795617E+02  0.00000000000E+00 0. -1.
         13    1    4    4    0    0  0.51647311670E+01  0.10380392098E+03 -0.39933508487E+02  0.11134008065E+03  0.00000000000E+00 0.  1.
          1    1    1    2  501    0  0.37678562487E+02 -0.13576291114E+02 -0.10912104679E+03  0.11623851601E+03  0.00000000000E+00 0. -1.
<scales pt_clust_5="13000.00000" pt_clust_6="13000.00000" pt_clust_7="13000.00000" pt_clust_8="13000.00000" pt_clust_9="40.04984"></scales>
<clustering>
<clus scale="   40.050">  2  9  1 -1</clus>
<clus scale="   87.692">  5  6 -1 -1</clus>
<clus scale="   91.008">  7  8 -1 -1</clus>
<clus scale="  135.862">  1  5  2 -1</clus>
<clus scale="   40.050">  2  5  1 -1</clus>
</clustering>
</event>
<event>
 9    1  0.1426358E-005  0.9583899E+02  0.7546771E-02  0.1290072E+00
          3   -1    0    0  502    0 -0.00000000000E+00  0.00000000000E+00  0.15530148748E+03  0.15530148748E+03  0.00000000000E+00 0. -1.
         21   -1    0    0  501  502  0.00000000000E+00 -0.00000000000E+00 -0.10656829143E+03  0.10656829143E+03  0.00000000000E+00 0. -1.
         23    2    1    2    0    0  0.29313742347E+02  0.13541221691E+02  0.87367835441E+02  0.13108662432E+03  0.92238301325E+02 0.  0.
         23    2    1    2    0    0 -0.88440019354E+01 -0.92005329671E+01 -0.58389312048E+01  0.91880579782E+02  0.90802431941E+02 0.  0.
        -11    1    3    3    0    0 -0.15949239252E+02  0.39250972595E+02  0.56316290154E+02  0.70473694518E+02  0.00000000000E+00 0. -1.
         11    1    3    3    0    0  0.45262981599E+02 -0.25709750904E+02  0.31051545288E+02  0.60612929805E+02  0.00000000000E+00 0.  1.
        -11    1    4    4    0    0  0.19877416052E+02  0.29103973799E+02  0.16657233506E+02  0.38982257347E+02  0.00000000000E+00 0. -1.
         11    1    4    4    0    0 -0.28721417987E+02 -0.38304506767E+02 -0.22496164710E+02  0.52898322435E+02  0.00000000000E+00 0.  1.
          3    1    1    2  501    0 -0.20469740412E+02 -0.43406887236E+01 -0.32795708181E+02  0.38902574802E+02  0.00000000000E+00 0. -1.
<scales pt_clust_5="13000.00000" pt_clust_6="13000.00000" pt_clust_7="13000.00000" pt_clust_8="13000.00000" pt_clust_9="20.92491"></scales>
<clustering>
<clus scale="   20.925">  2  9  1 -1</clus>
<clus scale="   90.802">  7  8 -1 -1</clus>
<clus scale="   92.238">  5  6 -1 -1</clus>
<clus scale="   94.458">  2  7  1 -1</clus>
<clus scale="   20.925">  2  5  1 -1</clus>
</clustering>
</event>
<event>
 9    1  0.1426358E-005  0.1007951E+03  0.7546771E-02  0.1278861E+00
         21   -1    0    0  501  502  0.00000000000E+00  0.00000000000E+00  0.30637535548E+03  0.30637535548E+03  0.00000000000E+00 0. -1.
          3   -1    0    0  502    0 -0.00000000000E+00 -0.00000000000E+00 -0.77729600322E+02  0.77729600322E+02  0.00000000000E+00 0. -1.
         23    2    1    2    0    0 -0.19713817425E+02 -0.22991220629E+02  0.31255948086E+02  0.10081978904E+03  0.90942095580E+02 0.  0.
         23    2    1    2    0    0  0.17858698757E+02  0.53938464685E+02  0.28194628143E+02  0.11127301035E+03  0.91424584671E+02 0.  0.
        -11    1    4    4    0    0  0.34971542041E+02  0.36994263150E+02 -0.22109520351E+02  0.55501487808E+02  0.00000000000E+00 0. -1.
         11    1    4    4    0    0 -0.17112843285E+02  0.16944201535E+02  0.50304148494E+02  0.55771522542E+02  0.00000000000E+00 0.  1.
        -13    1    3    3    0    0 -0.13393056627E+02 -0.56104043736E+02  0.34071316542E+02  0.66991733074E+02  0.00000000000E+00 0.  1.
         13    1    3    3    0    0 -0.63207607980E+01  0.33112823106E+02 -0.28153684561E+01  0.33828055969E+02  0.00000000000E+00 0. -1.
          3    1    1    2  501    0  0.18551186677E+01 -0.30947244055E+02  0.16919517893E+03  0.17201215641E+03  0.00000000000E+00 0. -1.
<scales pt_clust_5="13000.00000" pt_clust_6="13000.00000" pt_clust_7="13000.00000" pt_clust_8="13000.00000" pt_clust_9="31.00280"></scales>
<clustering>
<clus scale="   31.003">  1  9  2 -1</clus>
<clus scale="   90.942">  7  8 -1 -1</clus>
<clus scale="   91.425">  5  6 -1 -1</clus>
<clus scale="  100.358">  2  7  1 -1</clus>
<clus scale="   31.003">  1  5  2 -1</clus>
</clustering>
</event>
<event>
 9    1  0.1426358E-005  0.1632949E+03  0.7546771E-02  0.1185112E+00
          2   -1    0    0  502    0 -0.00000000000E+00  0.00000000000E+00  0.89888718797E+02  0.89888718797E+02  0.00000000000E+00 0. -1.
         21   -1    0    0  501  502  0.00000000000E+00 -0.00000000000E+00 -0.88035707083E+03  0.88035707083E+03  0.00000000000E+00 0. -1.
         23    2    1    2    0    0 -0.13256671272E+03  0.11827645515E+02 -0.10380396363E+02  0.16153483324E+03  0.90950113801E+02 0.  0.
         23    2    1    2    0    0  0.15087159103E+03 -0.33933159671E+02 -0.59387946061E+03  0.62030361588E+03  0.90388416442E+02 0.  0.
        -13    1    3    3    0    0 -0.65194486743E+02  0.17034501307E+02 -0.49357347971E+02  0.83526302056E+02  0.00000000000E+00 0.  1.
         13    1    3    3    0    0 -0.67372225982E+02 -0.52068557921E+01  0.38976951607E+02  0.78008531185E+02  0.00000000000E+00 0. -1.
        -13    1    4    4    0    0  0.13408102981E+03 -0.10211340263E+02 -0.55878736791E+03  0.57473934662E+03  0.00000000000E+00 0. -1.
         13    1    4    4    0    0  0.16790561223E+02 -0.23721819408E+02 -0.35092092708E+02  0.45564269256E+02  0.00000000000E+00 0.  1.
          2    1    1    2  501    0 -0.18304878310E+02  0.22105514156E+02 -0.18620849506E+03  0.18840734051E+03  0.00000000000E+00 0. -1.
<scales pt_clust_5="13000.00000" pt_clust_6="13000.00000" pt_clust_7="13000.00000" pt_clust_8="13000.00000" pt_clust_9="28.70056"></scales>
<clustering>
<clus scale="   28.701">  2  9  1 -1</clus>
<clus scale="   90.388">  7  8 -1 -1</clus>
<clus scale="   90.950">  5  6 -1 -1</clus>
<clus scale="  162.983">  2  7  1 -1</clus>
<clus scale="   28.701">  2  5  1 -1</clus>
</clustering>
</event>
<event>
 9    1  0.1426358E-005  0.1049304E+03  0.7546771E-02  0.1273041E+00
         21   -1    0    0  501  502  0.00000000000E+00  0.00000000000E+00  0.12279748725E+03  0.12279748725E+03  0.00000000000E+00 0.  1.
          3   -1    0    0  502    0 -0.00000000000E+00 -0.00000000000E+00 -0.15140975825E+03  0.15140975825E+03  0.00000000000E+00 0. -1.
         23    2    1    2    0    0 -0.27502555450E+02  0.41720444833E+02 -0.71793144036E+02  0.12188213958E+03  0.84876465193E+02 0.  0.
         23    2    1    2    0    0  0.28597648613E+01 -0.64231280319E+02  0.40876258370E+02  0.11886892427E+03  0.91242079290E+02 0.  0.
        -11    1    3    3    0    0  0.91235871255E+00  0.57344791963E+02 -0.19930734271E+02  0.60716486495E+02  0.00000000000E+00 0. -1.
         11    1    3    3    0    0 -0.28414914163E+02 -0.15624347131E+02 -0.51862409765E+02  0.61165653081E+02  0.00000000000E+00 0.  1.
        -13    1    4    4    0    0 -0.16165864126E+02 -0.37320667327E+02  0.65933173260E+02  0.77468385222E+02  0.00000000000E+00 0.  1.
         13    1    4    4    0    0  0.19025628987E+02 -0.26910612993E+02 -0.25056914890E+02  0.41400539052E+02  0.00000000000E+00 0. -1.
          3    1    1    2  501    0  0.24642790589E+02  0.22510835487E+02  0.23046146627E+01  0.33456181657E+02  0.00000000000E+00 0. -1.
<scales pt_clust_5="13000.00000" pt_clust_6="13000.00000" pt_clust_7="13000.00000" pt_clust_8="13000.00000" pt_clust_9="33.37671"></scales>
<clustering>
<clus scale="   33.377">  1  9  2 -1</clus>
<clus scale="   84.876">  5  6 -1 -1</clus>
<clus scale="   91.242">  7  8 -1 -1</clus>
<clus scale="   99.445">  2  5  1 -1</clus>
<clus scale="   33.377">  1  5  2 -1</clus>
</clustering>
</event>
<event>
 9    1  0.1426358E-005  0.2155731E+03  0.7546771E-02  0.1137721E+00
          2   -1    0    0  502    0 -0.00000000000E+00  0.00000000000E+00  0.28322344473E+03  0.28322344473E+03  0.00000000000E+00 0. -1.
         21   -1    0    0  501  502  0.00000000000E+00 -0.00000000000E+00 -0.25075963018E+03  0.25075963018E+03  0.00000000000E+00 0.  1.
         23    2    1    2    0    0  0.19794307940E+02 -0.20114424474E+03  0.67128760054E+02  0.23063286529E+03  0.88512294668E+02 0.  0.
         23    2    1    2    0    0 -0.57722219230E+02  0.17816849726E+03  0.42788616986E+02  0.21410075152E+03  0.94511364656E+02 0.  0.
        -11    1    3    3    0    0  0.49638198153E+02 -0.12733932098E+03  0.20025709696E+02  0.13813139553E+03  0.00000000000E+00 0.  1.
         11    1    3    3    0    0 -0.29843890212E+02 -0.73804923762E+02  0.47103050359E+02  0.92501469759E+02  0.00000000000E+00 0. -1.
        -13    1    4    4    0    0 -0.36592575042E+02  0.18307575000E+03  0.30506291953E+02  0.18917288557E+03  0.00000000000E+00 0.  1.
         13    1    4    4    0    0 -0.21129644187E+02 -0.49072527334E+01  0.12282325033E+02  0.24927865955E+02  0.00000000000E+00 0. -1.
          2    1    1    2  501    0  0.37927911289E+02  0.22975747478E+02 -0.77453562492E+02  0.89249458092E+02  0.00000000000E+00 0. -1.
<scales pt_clust_5="13000.00000" pt_clust_6="13000.00000" pt_clust_7="13000.00000" pt_clust_8="13000.00000" pt_clust_9="44.34424"></scales>
<clustering>
<clus scale="   44.344">  2  9  1 -1</clus>
<clus scale="   88.512">  5  6 -1 -1</clus>
<clus scale="   94.511">  7  8 -1 -1</clus>
<clus scale="  213.011">  1  5  2 -1</clus>
<clus scale="   44.344">  2  5  1 -1</clus>
</clustering>
</event>
<event>
 9    1  0.1426358E-005  0.1084426E+03  0.7546771E-02  0.1265547E+00
         21   -1    0    0  501  502  0.00000000000E+00  0.00000000000E+00  0.16483262219E+03  0.16483262219E+03  0.00000000000E+00 0. -1.
         -2   -1    0    0    0  501 -0.00000000000E+00 -0.00000000000E+00 -0.27831070570E+03  0.27831070570E+03  0.00000000000E+00 0.  1.
         23    2    1    2    0    0 -0.34580350482E+02 -0.35401671975E+01 -0.96131358223E+02  0.13731556490E+03  0.91684202055E+02 0.  0.
         23    2    1    2    0    0  0.84330899061E+02 -0.18520440347E+02 -0.13137994886E+03  0.17947364328E+03  0.86575922886E+02 0.  0.
        -11    1    3    3    0    0  0.24490595778E+01  0.23082167167E+02 -0.87975146625E+02  0.90985772281E+02  0.00000000000E+00 0.  1.
         11    1    3    3    0    0 -0.37029410059E+02 -0.26622334365E+02 -0.81562115985E+01  0.46329792618E+02  0.00000000000E+00 0. -1.
        -11    1    4    4    0    0  0.90831383925E+02 -0.39202015348E+02 -0.95201072122E+02  0.13729669496E+03  0.00000000000E+00 0. -1.
         11    1    4    4    0    0 -0.65004848631E+01  0.20681575001E+02 -0.36178876740E+02  0.42176948327E+02  0.00000000000E+00 0.  1.
         -2    1    1    2    0  502 -0.49750548580E+02  0.22060607544E+02  0.11403322357E+03  0.12635411971E+03  0.00000000000E+00 0.  1.
<scales pt_clust_5="13000.00000" pt_clust_6="13000.00000" pt_clust_7="13000.00000" pt_clust_8="13000.00000" pt_clust_9="54.42231"></scales>
<clustering>
<clus scale="   54.422">  1  9  2 -1</clus>
<clus scale="   86.576">  7  8 -1 -1</clus>
<clus scale="   91.684">  5  6 -1 -1</clus>
<clus scale="  104.159">  1  7  2 -1</clus>
<clus scale="   54.422">  1  5  2 -1</clus>
</clustering>
</event>
<event>
 9    1  0.1426358E-005  0.1269162E+03  0.7546771E-02  0.1232564E+00
         21   -1    0    0  501  502  0.00000000000E+00  0.00000000000E+00  0.13517784596E+03  0.13517784596E+03  0.00000000000E+00 0. -1.
          1   -1    0    0  502    0 -0.00000000000E+00 -0.00000000000E+00 -0.39543388765E+03  0.39543388765E+03  0.00000000000E+00 0. -1.
         23    2    1    2    0    0 -0.49730934446E+01  0.96990475437E+02 -0.18712055611E+03  0.22979388771E+03  0.91428903136E+02 0.  0.
         23    2    1    2    0    0 -0.81980351849E+02 -0.57333607755E+02 -0.13084099529E+03  0.18917782327E+03  0.93064290137E+02 0.  0.
        -11    1    3    3    0    0  0.42549032780E+02  0.37988084577E+02 -0.91114647239E+02  0.10749601714E+03  0.00000000000E+00 0.  1.
         11    1    3    3    0    0 -0.47522126225E+02  0.59002390860E+02 -0.96005908868E+02  0.12229787057E+03  0.00000000000E+00 0. -1.
        -13    1    4    4    0    0 -0.79161900912E+02 -0.19232617050E+02 -0.40261376421E+02  0.90870669338E+02  0.00000000000E+00 0. -1.
         13    1    4    4    0    0 -0.28184509372E+01 -0.38100990705E+02 -0.90579618872E+02  0.98307153928E+02  0.00000000000E+00 0.  1.
          1    1    1    2  501    0  0.86953445293E+02 -0.39656867682E+02  0.57705509711E+02  0.11164002263E+03  0.00000000000E+00 0. -1.
<scales pt_clust_5="13000.00000" pt_clust_6="13000.00000" pt_clust_7="13000.00000" pt_clust_8="13000.00000" pt_clust_9="95.56971"></scales>
<clustering>
<clus scale="   91.429">  5  6 -1 -1</clus>
<clus scale="   93.064">  7  8 -1 -1</clus>
<clus scale="   95.570">  1  9  2 -1</clus>
<clus scale="  125.722">  2  5  1 -1</clus>
<clus scale="   95.570">  1  5  2 -1</clus>
</clustering>
</event>
<event>
 9    1  0.1426358E-005  0.1217663E+03  0.7546771E-02  0.1240220E+00
         21   -1    0    0  501  502  0.00000000000E+00  0.00000000000E+00  0.13843715450E+03  0.13843715450E+03  0.00000000000E+00 0. -1.
         -3   -1    0    0    0  501 -0.00000000000E+00 -0.00000000000E+00 -0.38596731552E+03  0.38596731552E+03  0.00000000000E+00 0.  1.
         23    2    1    2    0    0  0.45301962575E+02  0.64427734953E+02 -0.24921444542E+03  0.27686982905E+03  0.91355687241E+02 0.  0.
         23    2    1    2    0    0 -0.78401302491E+02 -0.45541420420E+02 -0.84054141065E+02  0.15370854235E+03  0.91325966493E+02 0.  0.
        -11    1    4    4    0    0 -0.52910418867E+02 -0.26883642778E+02  0.46666802484E+01  0.59531677099E+02  0.00000000000E+00 0. -1.
         11    1    4    4    0    0 -0.25490883624E+02 -0.18657777642E+02 -0.88720821314E+02  0.94176865254E+02  0.00000000000E+00 0.  1.
        -11    1    3    3    0    0 -0.16145351366E+02  0.37582292769E+02 -0.40154593341E+02  0.57319215511E+02  0.00000000000E+00 0.  1.
         11    1    3    3    0    0  0.61447313941E+02  0.26845442185E+02 -0.20905985208E+03  0.21955061354E+03  0.00000000000E+00 0. -1.
         -3    1    1    2    0  502  0.33099339916E+02 -0.18886314534E+02  0.85738425460E+02  0.93826098607E+02  0.00000000000E+00 0.  1.
<scales pt_clust_5="13000.00000" pt_clust_6="13000.00000" pt_clust_7="13000.00000" pt_clust_8="13000.00000" pt_clust_9="38.10852"></scales>
<clustering>
<clus scale="   38.109">  1  9  2 -1</clus>
<clus scale="   91.326">  5  6 -1 -1</clus>
<clus scale="   91.356">  7  8 -1 -1</clus>
<clus scale="  121.744">  1  5  2 -1</clus>
<clus scale="   38.109">  1  5  2 -1</clus>
</clustering>
</event>
<event>
 9    1  0.1426358E-005  0.1471260E+03  0.7546771E-02  0.1204511E+00
         21   -1    0    0  501  502  0.00000000000E+00  0.00000000000E+00  0.45553877680E+02  0.45553877680E+02  0.00000000000E+00 0. -1.
          2   -1    0    0  502    0 -0.00000000000E+00 -0.00000000000E+00 -0.10302796903E+04  0.10302796903E+04  0.00000000000E+00 0. -1.
         23    2    1    2    0    0  0.96010462213E+02  0.78410973144E+02 -0.82782171050E+03  0.84202462509E+03  0.91380497483E+02 0.  0.
         23    2    1    2    0    0 -0.62127363191E+02 -0.62460443906E+02 -0.15053533597E+03  0.19582151125E+03  0.89017192617E+02 0.  0.
        -11    1    3    3    0    0  0.95071249851E+01  0.64625718627E+02 -0.30508059189E+03  0.31199525073E+03  0.00000000000E+00 0. -1.
         11    1    3    3    0    0  0.86503337228E+02  0.13785254517E+02 -0.52274111861E+03  0.53002937436E+03  0.00000000000E+00 0.  1.
        -11    1    4    4    0    0 -0.21238839246E+02 -0.76231039324E+02 -0.11665702985E+03  0.14096496821E+03  0.00000000000E+00 0. -1.
         11    1    4    4    0    0 -0.40888523944E+02  0.13770595419E+02 -0.33878306127E+02  0.54856543042E+02  0.00000000000E+00 0.  1.
          2    1    1    2  501    0 -0.33883099022E+02 -0.15950529238E+02 -0.63687661765E+01  0.37987431671E+02  0.00000000000E+00 0. -1.
<scales pt_clust_5="13000.00000" pt_clust_6="13000.00000" pt_clust_7="13000.00000" pt_clust_8="13000.00000" pt_clust_9="37.44975"></scales>
<clustering>
<clus scale="   37.450">  1  9  2 -1</clus>
<clus scale="   89.017">  7  8 -1 -1</clus>
<clus scale="   91.380">  5  6 -1 -1</clus>
<clus scale="  145.670">  1  7  2 -1</clus>
<clus scale="   37.450">  1  5  2 -1</clus>
</clustering>
</event>
<event>
 9    1  0.1426358E-005  0.1148156E+03  0.7546771E-02  0.1252357E+00
         -1   -1    0    0    0  501 -0.00000000000E+00  0.00000000000E+00  0.10368903541E+04  0.10368903541E+04  0.00000000000E+00 0.  1.
         21   -1    0    0  501  502  0.00000000000E+00 -0.00000000000E+00 -0.18881595667E+02  0.18881595667E+02  0.00000000000E+00 0. -1.
         23    2    1    2    0    0  0.49502074814E+02  0.22196185126E+02  0.42504562462E+03  0.43770032267E+03  0.89300970980E+02 0.  0.
         23    2    1    2    0    0 -0.82115932524E+02 -0.36199217950E+02  0.53594139031E+03  0.55090595226E+03  0.90613380001E+02 0.  0.
        -11    1    4    4    0    0 -0.10526330482E+02  0.21102998327E+02  0.39005033516E+02  0.45579960633E+02  0.00000000000E+00 0. -1.
         11    1    4    4    0    0 -0.71589602041E+02 -0.57302216276E+02  0.49693635679E+03  0.50532599163E+03  0.00000000000E+00 0.  1.
        -11    1    3    3    0    0 -0.38746745013E+01  0.43492140056E+02  0.13081320767E+03  0.13790821096E+03  0.00000000000E+00 0.  1.
         11    1    3    3    0    0  0.53376749315E+02 -0.21295954931E+02  0.29423241694E+03  0.29979211171E+03  0.00000000000E+00 0. -1.
         -1    1    1    2    0  502  0.32613857710E+02  0.14003032824E+02  0.57021743499E+02  0.67165674825E+02  0.00000000000E+00 0.  1.
<scales pt_clust_5="13000.00000" pt_clust_6="13000.00000" pt_clust_7="13000.00000" pt_clust_8="13000.00000" pt_clust_9="35.49294"></scales>
<clustering>
<clus scale="   35.493">  2  9  1 -1</clus>
<clus scale="   89.301">  7  8 -1 -1</clus>
<clus scale="   90.613">  5  6 -1 -1</clus>
<clus scale="  113.783">  1  7  2 -1</clus>
<clus scale="   35.493">  2  5  1 -1</clus>
</clustering>
</event>
<event>
 9    1  0.1426358E-005  0.1301828E+03  0.7546771E-02  0.1227352E+00
         21   -1    0    0  501  502  0.00000000000E+00  0.00000000000E+00  0.58930554082E+02  0.58930554082E+02  0.00000000000E+00 0.  1.
          1   -1    0    0  502    0 -0.00000000000E+00 -0.00000000000E+00 -0.53575600412E+03  0.53575600412E+03  0.00000000000E+00 0. -1.
         23    2    1    2    0    0  0.73267244330E+02 -0.68352339494E+02 -0.40294556829E+03  0.42506330590E+03  0.90959065548E+02 0.  0.
         23    2    1    2    0    0 -0.53275378700E+02  0.47113040050E+02 -0.78573439541E+02  0.14007986020E+03  0.91600640350E+02 0.  0.
        -11    1    3    3    0    0 -0.72904308752E+01 -0.36328098779E+02 -0.53855668925E+02  0.65370591389E+02  0.00000000000E+00 0.  1.
         11    1    3    3    0    0  0.80557675205E+02 -0.32024240716E+02 -0.34908989937E+03  0.35969271451E+03  0.00000000000E+00 0. -1.
        -13    1    4    4    0    0  0.12861951116E+02  0.46069258296E+02 -0.45950777863E+02  0.66327070888E+02  0.00000000000E+00 0. -1.
         13    1    4    4    0    0 -0.66137329816E+02  0.10437817540E+01 -0.32622661678E+02  0.73752789307E+02  0.00000000000E+00 0.  1.
          1    1    1    2  501    0 -0.19991865631E+02  0.21239299444E+02  0.46935578016E+01  0.29543392106E+02  0.00000000000E+00 0. -1.
<scales pt_clust_5="13000.00000" pt_clust_6="13000.00000" pt_clust_7="13000.00000" pt_clust_8="13000.00000" pt_clust_9="29.16818"></scales>
<clustering>
<clus scale="   29.168">  1  9  2 -1</clus>
<clus scale="   90.959">  5  6 -1 -1</clus>
<clus scale="   91.601">  7  8 -1 -1</clus>
<clus scale="  129.732">  2  5  1 -1</clus>
<clus scale="   29.168">  1  5  2 -1</clus>
</clustering>
</event>
<event>
 9    1  0.1426358E-005  0.1005400E+03  0.7546771E-02  0.1293508E+00
         21   -1    0    0  501  502  0.00000000000E+00  0.00000000000E+00  0.39978621078E+03  0.39978621078E+03  0.00000000000E+00 0.  1.
         -2   -1    0    0    0  501 -0.00000000000E+00 -0.00000000000E+00 -0.37032715928E+02  0.37032715928E+02  0.00000000000E+00 0.  1.
         23    2    1    2    0    0 -0.74612261937E+01 -0.33390770549E+02  0.58485199942E+02  0.11785917874E+03  0.96434713397E+02 0.  0.
         23    2    1    2    0    0  0.10453512083E+02  0.11607555430E+02  0.21579972955E+03  0.22779972771E+03  0.71268375968E+02 0.  0.
        -11    1    4    4    0    0 -0.28726789459E+02 -0.58890141460E+01  0.72255668766E+02  0.77979424139E+02  0.00000000000E+00 0. -1.
         11    1    4    4    0    0  0.39180301541E+02  0.17496569576E+02  0.14354406079E+03  0.14982030357E+03  0.00000000000E+00 0.  1.
        -11    1    3    3    0    0 -0.47728623370E+02 -0.36424392526E+02  0.23654006159E+02  0.64531154236E+02  0.00000000000E+00 0.  1.
         11    1    3    3    0    0  0.40267397176E+02  0.30336219765E+01  0.34831193782E+02  0.53328024508E+02  0.00000000000E+00 0. -1.
         -2    1    1    2    0  502 -0.29922858888E+01  0.21783215119E+02  0.88468565356E+02  0.91160020250E+02  0.00000000000E+00 0.  1.
<scales pt_clust_5="13000.00000" pt_clust_6="13000.00000" pt_clust_7="13000.00000" pt_clust_8="13000.00000" pt_clust_9="21.98777"></scales>
<clustering>
<clus scale="   21.988">  1  9  2 -1</clus>
<clus scale="   71.268">  5  6 -1 -1</clus>
<clus scale="   76.732">  1  5  2 -1</clus>
<clus scale="   96.435">  7  8 -1 -1</clus>
<clus scale="   21.988">  1  5  2 -1</clus>
</clustering>
</event>
<event>
 9    1  0.1426358E-005  0.1114902E+03  0.7546771E-02  0.1258912E+00
         -1   -1    0    0    0  501 -0.00000000000E+00  0.00000000000E+00  0.13245283359E+03  0.13245283359E+03  0.00000000000E+00 0.  1.
         21   -1    0    0  501  502  0.00000000000E+00 -0.00000000000E+00 -0.53752147789E+03  0.53752147789E+03  0.00000000000E+00 0.  1.
         23    2    1    2    0    0 -0.55110680212E+02  0.21506052696E+02  0.31254926038E+02  0.11231313621E+03  0.90209050470E+02 0.  0.
         23    2    1    2    0    0  0.71143341190E+02  0.30627866913E+02 -0.31775445597E+01  0.12109448915E+03  0.93028690659E+02 0.  0.
        -11    1    3    3    0    0 -0.24661306253E+02 -0.35230943379E+02  0.73532187500E+01  0.43628766009E+02  0.00000000000E+00 0. -1.
         11    1    3    3    0    0 -0.30449373959E+02  0.56736996075E+02  0.23901707288E+02  0.68684370197E+02  0.00000000000E+00 0.  1.
        -13    1    4    4    0    0  0.41973639391E+02 -0.30300011610E+02 -0.11510880723E+02  0.53031853468E+02  0.00000000000E+00 0. -1.
         13    1    4    4    0    0  0.29169701799E+02  0.60927878522E+02  0.83333361632E+01  0.68062635681E+02  0.00000000000E+00 0.  1.
         -1    1    1    2    0  502 -0.16032660977E+02 -0.52133919609E+02 -0.43314602578E+03  0.43656668613E+03  0.00000000000E+00 0.  1.
<scales pt_clust_5="13000.00000" pt_clust_6="13000.00000" pt_clust_7="13000.00000" pt_clust_8="13000.00000" pt_clust_9="54.54349"></scales>
<clustering>
<clus scale="   54.543">  2  9  1 -1</clus>
<clus scale="   90.209">  5  6 -1 -1</clus>
<clus scale="   93.029">  7  8 -1 -1</clus>
<clus scale="  109.148">  1  5  2 -1</clus>
<clus scale="   54.543">  2  5  1 -1</clus>
</clustering>
</event>
<event>
 9    1  0.1426358E-005  0.9342217E+02  0.7546771E-02  0.1295745E+00
         21   -1    0    0  501  502  0.00000000000E+00  0.00000000000E+00  0.22262744978E+02  0.22262744978E+02  0.00000000000E+00 0. -1.
          2   -1    0    0  502    0 -0.00000000000E+00 -0.00000000000E+00 -0.65972323508E+03  0.65972323508E+03  0.00000000000E+00 0. -1.
         23    2    1    2    0    0 -0.37121859929E+01  0.96175188799E+01 -0.23014854543E+03  0.24789148603E+03  0.91518079554E+02 0.  0.
         23    2    1    2    0    0 -0.36280604337E+02 -0.16768412391E+02 -0.20014254110E+03  0.22297907458E+03  0.89806286169E+02 0.  0.
        -11    1    3    3    0    0  0.40410400534E+02  0.15262215046E+02 -0.75619197716E+02  0.87087305290E+02  0.00000000000E+00 0.  1.
         11    1    3    3    0    0 -0.44122586527E+02 -0.56446961664E+01 -0.15452934772E+03  0.16080418074E+03  0.00000000000E+00 0. -1.
        -13    1    4    4    0    0 -0.38179963126E+02  0.30168038212E+02 -0.12751450812E+03  0.13648358837E+03  0.00000000000E+00 0. -1.
         13    1    4    4    0    0  0.18993587888E+01 -0.46936450604E+02 -0.72628032983E+02  0.86495486206E+02  0.00000000000E+00 0.  1.
          2    1    1    2  501    0  0.39992790330E+02  0.71508935116E+01 -0.20716940356E+03  0.21111541945E+03  0.00000000000E+00 0. -1.
<scales pt_clust_5="13000.00000" pt_clust_6="13000.00000" pt_clust_7="13000.00000" pt_clust_8="13000.00000" pt_clust_9="40.62709"></scales>
<clustering>
<clus scale="   40.627">  1  9  2 -1</clus>
<clus scale="   89.806">  7  8 -1 -1</clus>
<clus scale="   91.518">  5  6 -1 -1</clus>
<clus scale="   91.746">  1  7  2 -1</clus>
<clus scale="   40.627">  1  5  2 -1</clus>
</clustering>
</event>
<event>
 9    1  0.1426358E-005  0.2575391E+03  0.7546771E-02  0.1108816E+00
         21   -1    0    0  501  502  0.00000000000E+00  0.00000000000E+00  0.37524724650E+03  0.37524724650E+03  0.00000000000E+00 0. -1.
          1   -1    0    0  502    0 -0.00000000000E+00 -0.00000000000E+00 -0.48368279013E+03  0.48368279013E+03  0.00000000000E+00 0. -1.
         23    2    1    2    0    0 -0.53325790366E+02 -0.20757588128E+03 -0.20836439731E+03  0.31256060769E+03  0.91362054540E+02 0.  0.
         23    2    1    2    0    0 -0.10301539769E+02  0.30866105179E+03 -0.77767137741E+02  0.33226077847E+03  0.94719219734E+02 0.  0.
        -11    1    3    3    0    0  0.23978246933E+02 -0.57152309182E+02 -0.74220209168E+02  0.96695306089E+02  0.00000000000E+00 0.  1.
         11    1    3    3    0    0 -0.77304037298E+02 -0.15042357210E+03 -0.13414418814E+03  0.21586530160E+03  0.00000000000E+00 0. -1.
        -13    1    4    4    0    0  0.39255500555E+02  0.85668419455E+02 -0.15570064345E+02  0.95511775815E+02  0.00000000000E+00 0.  1.
         13    1    4    4    0    0 -0.49557040324E+02  0.22299263233E+03 -0.62197073395E+02  0.23674900266E+03  0.00000000000E+00 0. -1.
          1    1    1    2  501    0  0.63627330135E+02 -0.10108517051E+03  0.17769599141E+03  0.21410865046E+03  0.00000000000E+00 0. -1.
<scales pt_clust_5="13000.00000" pt_clust_6="13000.00000" pt_clust_7="13000.00000" pt_clust_8="13000.00000" pt_clust_9="119.44308"></scales>
<clustering>
<clus scale="   91.362">  5  6 -1 -1</clus>
<clus scale="   94.719">  7  8 -1 -1</clus>
<clus scale="  119.443">  1  9  2 -1</clus>
<clus scale="  256.323">  2  5  1 -1</clus>
<clus scale="  119.443">  1  5  2 -1</clus>
</clustering>
</event>
<event>
 9    1  0.1426358E-005  0.1303504E+03  0.7546771E-02  0.1227175E+00
         21   -1    0    0  501  502  0.00000000000E+00  0.00000000000E+00  0.65972170663E+02  0.65972170663E+02  0.00000000000E+00 0.  1.
          2   -1    0    0  502    0 -0.00000000000E+00 -0.00000000000E+00 -0.96964669608E+03  0.96964669608E+03  0.00000000000E+00 0. -1.
         23    2    1    2    0    0  0.31493925845E+02 -0.88322210398E+02 -0.49002971284E+03  0.50726033681E+03  0.91603764228E+02 0.  0.
         23    2    1    2    0    0 -0.98307504606E+02  0.46973477902E+02 -0.42586714760E+03  0.44884024612E+03  0.90685533841E+02 0.  0.
        -11    1    4    4    0    0 -0.91310126215E+02 -0.18059540642E+01 -0.24834998247E+03  0.26461011774E+03  0.00000000000E+00 0.  1.
         11    1    4    4    0    0 -0.69973783907E+01  0.48779431966E+02 -0.17751716513E+03  0.18423012839E+03  0.00000000000E+00 0. -1.
        -13    1    3    3    0    0  0.54133193048E+02 -0.34924546722E+02 -0.34681086844E+03  0.35274339827E+03  0.00000000000E+00 0. -1.
         13    1    3    3    0    0 -0.22639267203E+02 -0.53397663676E+02 -0.14321884440E+03  0.15451693854E+03  0.00000000000E+00 0.  1.
          2    1    1    2  501    0  0.66813578761E+02  0.41348732496E+02  0.12222335026E+02  0.79518283805E+02  0.00000000000E+00 0. -1.
<scales pt_clust_5="13000.00000" pt_clust_6="13000.00000" pt_clust_7="13000.00000" pt_clust_8="13000.00000" pt_clust_9="78.57335"></scales>
<clustering>
<clus scale="   78.573">  1  9  2 -1</clus>
<clus scale="   90.686">  5  6 -1 -1</clus>
<clus scale="   91.604">  7  8 -1 -1</clus>
<clus scale="  129.707">  1  5  2 -1</clus>
<clus scale="   78.573">  1  5  2 -1</clus>
</clustering>
</event>
<event>
 9    1  0.1426358E-005  0.9198705E+02  0.7546771E-02  0.1298190E+00
         21   -1    0    0  501  502  0.00000000000E+00  0.00000000000E+00  0.81267200514E+02  0.81267200514E+02  0.00000000000E+00 0.  1.
         -1   -1    0    0    0  501 -0.00000000000E+00 -0.00000000000E+00 -0.14660637378E+03  0.14660637378E+03  0.00000000000E+00 0.  1.
         23    2    1    2    0    0 -0.81655843062E+01  0.74273523638E+01 -0.40785702263E+02  0.99020350699E+02  0.89552855976E+02 0.  0.
         23    2    1    2    0    0  0.15590810999E+02 -0.28544391287E+02 -0.38323114529E+02  0.10257269074E+03  0.89412751427E+02 0.  0.
        -11    1    4    4    0    0  0.68393071776E+01  0.29960230387E+02  0.22921248016E+01  0.30816316516E+02  0.00000000000E+00 0. -1.
         11    1    4    4    0    0  0.87515038218E+01 -0.58504621674E+02 -0.40615239331E+02  0.71756374227E+02  0.00000000000E+00 0.  1.
        -13    1    3    3    0    0  0.36238427486E+02 -0.74222817518E+01 -0.98726953875E-01  0.36990858872E+02  0.00000000000E+00 0. -1.
         13    1    3    3    0    0 -0.44404011792E+02  0.14849634116E+02 -0.40686975309E+02  0.62029491828E+02  0.00000000000E+00 0.  1.
         -1    1    1    2    0  502 -0.74252266932E+01  0.21117038923E+02  0.13769643523E+02  0.26280532854E+02  0.00000000000E+00 0.  1.
<scales pt_clust_5="13000.00000" pt_clust_6="13000.00000" pt_clust_7="13000.00000" pt_clust_8="13000.00000" pt_clust_9="22.38444"></scales>
<clustering>
<clus scale="   22.384">  1  9  2 -1</clus>
<clus scale="   89.413">  5  6 -1 -1</clus>
<clus scale="   89.553">  7  8 -1 -1</clus>
<clus scale="   91.851">  1  5  2 -1</clus>
<clus scale="   22.384">  1  5  2 -1</clus>
</clustering>
</event>
<event>
 9    1  0.1426358E-005  0.1608799E+03  0.7546771E-02  0.1188244E+00
         21   -1    0    0  501  502  0.00000000000E+00  0.00000000000E+00  0.71590703262E+03  0.71590703262E+03  0.00000000000E+00 0.  1.
         -1   -1    0    0    0  501 -0.00000000000E+00 -0.00000000000E+00 -0.73872008544E+02  0.73872008544E+02  0.00000000000E+00 0.  1.
         23    2    1    2    0    0 -0.98944084119E+02  0.69739973191E+02  0.16344536217E+03  0.22443910821E+03  0.94894316140E+02 0.  0.
         23    2    1    2    0    0  0.60445558864E+02 -0.13559889421E+03  0.15659393834E+03  0.23443091234E+03  0.91626772517E+02 0.  0.
        -13    1    3    3    0    0 -0.54926019577E+02 -0.16179489302E+02  0.59338712420E+02  0.82460452899E+02  0.00000000000E+00 0.  1.
         13    1    3    3    0    0 -0.44018064542E+02  0.85919462494E+02  0.10410664975E+03  0.14197865531E+03  0.00000000000E+00 0. -1.
        -13    1    4    4    0    0  0.32432488951E+01 -0.10895764363E+03  0.11712653692E+03  0.16000285129E+03  0.00000000000E+00 0.  1.
         13    1    4    4    0    0  0.57202309969E+02 -0.26641250575E+02  0.39467401417E+02  0.74428061057E+02  0.00000000000E+00 0. -1.
         -1    1    1    2    0  502  0.38498525255E+02  0.65858921017E+02  0.32199572357E+03  0.33090902061E+03  0.00000000000E+00 0.  1.
<scales pt_clust_5="13000.00000" pt_clust_6="13000.00000" pt_clust_7="13000.00000" pt_clust_8="13000.00000" pt_clust_9="76.28587"></scales>
<clustering>
<clus scale="   76.286">  1  9  2 -1</clus>
<clus scale="   91.627">  7  8 -1 -1</clus>
<clus scale="   94.894">  5  6 -1 -1</clus>
<clus scale="  158.974">  1  7  2 -1</clus>
<clus scale="   76.286">  1  5  2 -1</clus>
</clustering>
</event>
<event>
 9    1  0.1426358E-005  0.9400801E+02  0.7546771E-02  0.1299867E+00
         21   -1    0    0  501  502  0.00000000000E+00  0.00000000000E+00  0.13501074808E+03  0.13501074808E+03  0.00000000000E+00 0. -1.
          2   -1    0    0  502    0 -0.00000000000E+00 -0.00000000000E+00 -0.38268844256E+03  0.38268844256E+03  0.00000000000E+00 0. -1.
         23    2    1    2    0    0 -0.25319943859E+02  0.14919387493E+01 -0.21348129647E+03  0.22960337683E+03  0.80623329557E+02 0.  0.
         23    2    1    2    0    0 -0.18020106028E+02 -0.55828470163E+02 -0.13017093748E+03  0.16959716066E+03  0.91526944866E+02 0.  0.
        -11    1    4    4    0    0  0.86349864961E+01 -0.26290639000E+02  0.54991213361E+01  0.28213490148E+02  0.00000000000E+00 0.  1.
         11    1    4    4    0    0 -0.26655092524E+02 -0.29537831163E+02 -0.13567005882E+03  0.14138367051E+03  0.00000000000E+00 0. -1.
        -13    1    3    3    0    0 -0.41297330399E+02  0.18817592289E+02 -0.19335989689E+03  0.19861425176E+03  0.00000000000E+00 0.  1.
         13    1    3    3    0    0  0.15977386539E+02 -0.17325653540E+02 -0.20121399583E+02  0.30989125066E+02  0.00000000000E+00 0. -1.
          2    1    1    2  501    0  0.43340049887E+02  0.54336531414E+02  0.95974539484E+02  0.11849865315E+03  0.00000000000E+00 0. -1.
<scales pt_clust_5="13000.00000" pt_clust_6="13000.00000" pt_clust_7="13000.00000" pt_clust_8="13000.00000" pt_clust_9="69.50409"></scales>
<clustering>
<clus scale="   69.504">  1  9  2 -1</clus>
<clus scale="   80.623">  7  8 -1 -1</clus>
<clus scale="   83.429">  2  7  1 -1</clus>
<clus scale="   91.527">  5  6 -1 -1</clus>
<clus scale="   69.504">  1  5  2 -1</clus>
</clustering>
</event>
<event>
 9    1  0.1426358E-005  0.1299322E+03  0.7546771E-02  0.1232287E+00
         21   -1    0    0  501  502  0.00000000000E+00  0.00000000000E+00  0.53594755451E+02  0.53594755451E+02  0.00000000000E+00 0.  1.
          1   -1    0    0  502    0 -0.00000000000E+00 -0.00000000000E+00 -0.92175522461E+03  0.92175522461E+03  0.00000000000E+00 0. -1.
         23    2    1    2    0    0 -0.89093458528E+02  0.57306924053E+02 -0.36519579962E+03  0.39119121574E+03  0.91874192879E+02 0.  0.
         23    2    1    2    0    0  0.75382520952E+02  0.78439343764E+02 -0.35751585523E+03  0.38473359885E+03  0.91471854870E+02 0.  0.
        -11    1    4    4    0    0  0.30930071818E+02  0.64044332460E+02 -0.98247861629E+02  0.12128886255E+03  0.00000000000E+00 0.  1.
         11    1    4    4    0    0  0.44452449134E+02  0.14395011304E+02 -0.25926799360E+03  0.26344473631E+03  0.00000000000E+00 0. -1.
        -13    1    3    3    0    0 -0.43368937141E+02  0.69642908236E+02 -0.15127204290E+03  0.17208785646E+03  0.00000000000E+00 0.  1.
         13    1    3    3    0    0 -0.45724521387E+02 -0.12335984183E+02 -0.21392375672E+03  0.21910335928E+03  0.00000000000E+00 0. -1.
          1    1    1    2  501    0  0.13710937575E+02 -0.13574626782E+03 -0.14544881431E+03  0.19942516546E+03  0.00000000000E+00 0. -1.
<scales pt_clust_5="13000.00000" pt_clust_6="13000.00000" pt_clust_7="13000.00000" pt_clust_8="13000.00000" pt_clust_9="136.43694"></scales>
<clustering>
<clus scale="   91.472">  5  6 -1 -1</clus>
<clus scale="   91.874">  7  8 -1 -1</clus>
<clus scale="  136.437">  1  9  2 -1</clus>
<clus scale="  136.437">  1  5  2 -1</clus>
<clus scale="  129.932">  1  5  2 -1</clus>
</clustering>
</event>
<event>
 9    1  0.1426358E-005  0.2432502E+03  0.7546771E-02  0.1117731E+00
         21   -1    0    0  501  502  0.00000000000E+00  0.00000000000E+00  0.13008982589E+03  0.13008982589E+03  0.00000000000E+00 0.  1.
         -2   -1    0    0    0  501 -0.00000000000E+00 -0.00000000000E+00 -0.91096315720E+03  0.91096315720E+03  0.00000000000E+00 0.  1.
         23    2    1    2    0    0  0.21447889255E+03 -0.80056045746E+01 -0.53888589765E+03  0.58734793296E+03  0.92272957133E+02 0.  0.
         23    2    1    2    0    0 -0.25679906172E+03 -0.81566668011E+02 -0.18787303747E+03  0.34082211691E+03  0.90909613005E+02 0.  0.
        -13    1    3    3    0    0  0.72796515285E+02 -0.30305427215E+02 -0.28546068759E+03  0.29615123791E+03  0.00000000000E+00 0. -1.
         13    1    3    3    0    0  0.14168237726E+03  0.22299822640E+02 -0.25342521006E+03  0.29119669505E+03  0.00000000000E+00 0.  1.
        -13    1    4    4    0    0 -0.82134898163E+02 -0.71396673381E+02 -0.82683787908E+02  0.13667565712E+03  0.00000000000E+00 0. -1.
         13    1    4    4    0    0 -0.17466416356E+03 -0.10169994629E+02 -0.10518924956E+03  0.20414645979E+03  0.00000000000E+00 0.  1.
         -2    1    1    2    0  502  0.42320169177E+02  0.89572272585E+02 -0.54114396194E+02  0.11288293321E+03  0.00000000000E+00 0.  1.
<scales pt_clust_5="13000.00000" pt_clust_6="13000.00000" pt_clust_7="13000.00000" pt_clust_8="13000.00000" pt_clust_9="99.06659"></scales>
<clustering>
<clus scale="   90.910">  7  8 -1 -1</clus>
<clus scale="   92.273">  5  6 -1 -1</clus>
<clus scale="   99.067">  1  9  2 -1</clus>
<clus scale="  242.736">  1  7  2 -1</clus>
<clus scale="   99.067">  1  5  2 -1</clus>
</clustering>
</event>
<event>
 9    1  0.1426358E-005  0.1210578E+03  0.7546771E-02  0.1242453E+00
          2   -1    0    0  502    0 -0.00000000000E+00  0.00000000000E+00  0.20736403218E+03  0.20736403218E+03  0.00000000000E+00 0. -1.
         21   -1    0    0  501  502  0.00000000000E+00 -0.00000000000E+00 -0.12401272883E+03  0.12401272883E+03  0.00000000000E+00 0.  1.
         23    2    1    2    0    0  0.67834653874E+02  0.36467228159E+02  0.96216985383E+02  0.15138078700E+03  0.87903557383E+02 0.  0.
         23    2    1    2    0    0 -0.53170293553E+02 -0.71848077907E+02  0.20133771847E+02  0.12944093521E+03  0.91435007099E+02 0.  0.
        -11    1    3    3    0    0 -0.14424795094E+02  0.23290312715E+02  0.50032385055E+01  0.27848622505E+02  0.00000000000E+00 0. -1.
         11    1    3    3    0    0  0.82259448968E+02  0.13176915444E+02  0.91213746878E+02  0.12353216449E+03  0.00000000000E+00 0.  1.
        -13    1    4    4    0    0 -0.66362206852E+02 -0.13195916945E+02  0.13038209996E+02  0.68906238050E+02  0.00000000000E+00 0.  1.
         13    1    4    4    0    0  0.13191913299E+02 -0.58652160962E+02  0.70955618509E+01  0.60534697158E+02  0.00000000000E+00 0. -1.
          2    1    1    2  501    0 -0.14664360321E+02  0.35380849748E+02 -0.32999453876E+02  0.50555038806E+02  0.00000000000E+00 0. -1.
<scales pt_clust_5="13000.00000" pt_clust_6="13000.00000" pt_clust_7="13000.00000" pt_clust_8="13000.00000" pt_clust_9="38.29945"></scales>
<clustering>
<clus scale="   38.299">  2  9  1 -1</clus>
<clus scale="   87.904">  5  6 -1 -1</clus>
<clus scale="   91.435">  7  8 -1 -1</clus>
<clus scale="  118.413">  1  5  2 -1</clus>
<clus scale="   38.299">  2  5  1 -1</clus>
</clustering>
</event>
<event>
 9    1  0.1426358E-005  0.9618694E+02  0.7546771E-02  0.1289432E+00
         21   -1    0    0  501  502  0.00000000000E+00  0.00000000000E+00  0.26786709461E+03  0.26786709461E+03  0.00000000000E+00 0. -1.
          2   -1    0    0  502    0 -0.00000000000E+00 -0.00000000000E+00 -0.24976742748E+03  0.24976742748E+03  0.00000000000E+00 0. -1.
         23    2    1    2    0    0 -0.22607519692E+02  0.19052495055E+02 -0.18482416196E+03  0.20833449265E+03  0.91483290640E+02 0.  0.
         23    2    1    2    0    0 -0.18085850240E+02 -0.66992246977E+02  0.21698807572E+03  0.24486422260E+03  0.89775293784E+02 0.  0.
        -11    1    3    3    0    0  0.24093862699E+02  0.38498063778E+02 -0.93018442917E+02  0.10351350567E+03  0.00000000000E+00 0.  1.
         11    1    3    3    0    0 -0.46701382390E+02 -0.19445568723E+02 -0.91805719046E+02  0.10482098697E+03  0.00000000000E+00 0. -1.
        -11    1    4    4    0    0 -0.27090898377E+02 -0.29922302946E+02  0.19833378046E+03  0.20239947989E+03  0.00000000000E+00 0. -1.
         11    1    4    4    0    0  0.90050481365E+01 -0.37069944030E+02  0.18654295261E+02  0.42464742717E+02  0.00000000000E+00 0.  1.
          2    1    1    2  501    0  0.40693369932E+02  0.47939751921E+02 -0.14064246619E+02  0.64435806844E+02  0.00000000000E+00 0. -1.
<scales pt_clust_5="13000.00000" pt_clust_6="13000.00000" pt_clust_7="13000.00000" pt_clust_8="13000.00000" pt_clust_9="62.88222"></scales>
<clustering>
<clus scale="   62.882">  1  9  2 -1</clus>
<clus scale="   89.775">  7  8 -1 -1</clus>
<clus scale="   91.483">  5  6 -1 -1</clus>
<clus scale="   94.564">  1  7  2 -1</clus>
<clus scale="   62.882">  1  5  2 -1</clus>
</clustering>
</event>
<event>
 9    1  0.1426358E-005  0.4328954E+03  0.7546771E-02  0.1033002E+00
          1   -1    0    0  502    0 -0.00000000000E+00  0.00000000000E+00  0.55848138079E+03  0.55848138079E+03  0.00000000000E+00 0. -1.
         21   -1    0    0  501  502  0.00000000000E+00 -0.00000000000E+00 -0.42024616099E+03  0.42024616099E+03  0.00000000000E+00 0. -1.
         23    2    1    2    0    0  0.35891945747E+03 -0.21168995875E+03  0.24254154697E+03  0.49020717366E+03  0.88548605353E+02 0.  0.
         23    2    1    2    0    0 -0.37492673644E+03  0.22640171929E+03 -0.11804491903E+03  0.46280232417E+03  0.91780129388E+02 0.  0.
        -11    1    4    4    0    0 -0.10813056541E+03  0.27877923461E+02 -0.58005681306E+01  0.11181701295E+03  0.00000000000E+00 0.  1.
         11    1    4    4    0    0 -0.26679617102E+03  0.19852379583E+03 -0.11224435090E+03  0.35098531122E+03  0.00000000000E+00 0. -1.
        -13    1    3    3    0    0  0.11340282243E+03 -0.95843556084E+02  0.47358841742E+02  0.15584943782E+03  0.00000000000E+00 0.  1.
         13    1    3    3    0    0  0.24551663504E+03 -0.11584640267E+03  0.19518270523E+03  0.33435773584E+03  0.00000000000E+00 0. -1.
          1    1    1    2  501    0  0.16007278967E+02 -0.14711760540E+02  0.13738591862E+02  0.25718043947E+02  0.00000000000E+00 0. -1.
<scales pt_clust_5="13000.00000" pt_clust_6="13000.00000" pt_clust_7="13000.00000" pt_clust_8="13000.00000" pt_clust_9="21.74096"></scales>
<clustering>
<clus scale="   21.741">  2  9  1 -1</clus>
<clus scale="   88.549">  7  8 -1 -1</clus>
<clus scale="   91.780">  5  6 -1 -1</clus>
<clus scale="  432.222">  1  7  2 -1</clus>
<clus scale="   21.741">  2  5  1 -1</clus>
</clustering>
</event>
<event>
 9    1  0.1426358E-005  0.1403440E+03  0.7546771E-02  0.1213373E+00
          1   -1    0    0  502    0 -0.00000000000E+00  0.00000000000E+00  0.57663333224E+03  0.57663333224E+03  0.00000000000E+00 0. -1.
         21   -1    0    0  501  502  0.00000000000E+00 -0.00000000000E+00 -0.47051952513E+02  0.47051952513E+02  0.00000000000E+00 0.  1.
         23    2    1    2    0    0  0.89754095258E+02  0.92893583157E+01  0.21998464040E+03  0.25412729612E+03  0.89695879652E+02 0.  0.
         23    2    1    2    0    0 -0.12766360503E+03 -0.16385661381E+02  0.28227793712E+03  0.32229483806E+03  0.87330652725E+02 0.  0.
        -13    1    4    4    0    0 -0.54235122425E+02 -0.42924113491E+02  0.18533172402E+03  0.19781753196E+03  0.00000000000E+00 0. -1.
         13    1    4    4    0    0 -0.73428482607E+02  0.26538452110E+02  0.96946213099E+02  0.12447730609E+03  0.00000000000E+00 0.  1.
        -13    1    3    3    0    0  0.60827906360E+02  0.31097737309E+02  0.20286610169E+03  0.21406017536E+03  0.00000000000E+00 0. -1.
         13    1    3    3    0    0  0.28926188899E+02 -0.21808378993E+02  0.17118538706E+02  0.40067120759E+02  0.00000000000E+00 0.  1.
          1    1    1    2  501    0  0.37909509774E+02  0.70963030653E+01  0.27318802208E+02  0.47263150578E+02  0.00000000000E+00 0. -1.
<scales pt_clust_5="13000.00000" pt_clust_6="13000.00000" pt_clust_7="13000.00000" pt_clust_8="13000.00000" pt_clust_9="38.56797"></scales>
<clustering>
<clus scale="   38.568">  2  9  1 -1</clus>
<clus scale="   87.331">  5  6 -1 -1</clus>
<clus scale="   89.696">  7  8 -1 -1</clus>
<clus scale="  138.844">  2  5  1 -1</clus>
<clus scale="   38.568">  2  5  1 -1</clus>
</clustering>
</event>
<event>
 9    1  0.1426358E-005  0.1057971E+03  0.7546771E-02  0.1270565E+00
         21   -1    0    0  501  502  0.00000000000E+00  0.00000000000E+00  0.13896792549E+03  0.13896792549E+03  0.00000000000E+00 0.  1.
          4   -1    0    0  502    0 -0.00000000000E+00 -0.00000000000E+00 -0.11309490059E+03  0.11309490059E+03  0.00000000000E+00 0. -1.
         23    2    1    2    0    0 -0.45096965640E+02  0.23981974022E+02 -0.18406545618E+02  0.10754850230E+03  0.92838612861E+02 0.  0.
         23    2    1    2    0    0  0.18286772488E+02 -0.15995952141E+02  0.55268757509E+02  0.11445895433E+03  0.97241658440E+02 0.  0.
        -11    1    3    3    0    0 -0.15746219546E+02  0.29958901718E+02 -0.52312860377E+02  0.62306617489E+02  0.00000000000E+00 0. -1.
         11    1    3    3    0    0 -0.29350746094E+02 -0.59769276961E+01  0.33906314759E+02  0.45241884813E+02  0.00000000000E+00 0.  1.
        -13    1    4    4    0    0  0.42822627423E+02 -0.10670933081E+02  0.71885265490E+02  0.84351275193E+02  0.00000000000E+00 0.  1.
         13    1    4    4    0    0 -0.24535854935E+02 -0.53250190597E+01 -0.16616507980E+02  0.30107679134E+02  0.00000000000E+00 0. -1.
          4    1    1    2  501    0  0.26810193152E+02 -0.79860218807E+01 -0.10989186983E+02  0.30055369451E+02  0.00000000000E+00 0. -1.
<scales pt_clust_5="13000.00000" pt_clust_6="13000.00000" pt_clust_7="13000.00000" pt_clust_8="13000.00000" pt_clust_9="27.97434"></scales>
<clustering>
<clus scale="   27.974">  1  9  2 -1</clus>
<clus scale="   92.839">  5  6 -1 -1</clus>
<clus scale="   97.242">  7  8 -1 -1</clus>
<clus scale="  101.765">  2  5  1 -1</clus>
<clus scale="   27.974">  1  5  2 -1</clus>
</clustering>
</event>
<event>
 9    1  0.1426358E-005  0.1134643E+03  0.7546771E-02  0.1255123E+00
          2   -1    0    0  502    0 -0.00000000000E+00  0.00000000000E+00  0.17885135795E+03  0.17885135795E+03  0.00000000000E+00 0.  1.
         21   -1    0    0  501  502  0.00000000000E+00 -0.00000000000E+00 -0.17941025013E+03  0.17941025013E+03  0.00000000000E+00 0.  1.
         23    2    1    2    0    0 -0.53264856673E+02  0.44625297897E+02  0.96218117455E+02  0.14875734763E+03  0.89678649519E+02 0.  0.
         23    2    1    2    0    0  0.10406881688E+02 -0.70956978124E+02 -0.20948645730E+02  0.11850918268E+03  0.91991220729E+02 0.  0.
        -11    1    4    4    0    0  0.31092697966E+02 -0.20061726856E+02  0.26825648913E+02  0.45703875010E+02  0.00000000000E+00 0. -1.
         11    1    4    4    0    0 -0.20685816278E+02 -0.50895251268E+02 -0.47774294643E+02  0.72805307673E+02  0.00000000000E+00 0.  1.
        -13    1    3    3    0    0 -0.47028350153E+02  0.46869086122E+01  0.97461231897E+02  0.10831585550E+03  0.00000000000E+00 0.  1.
         13    1    3    3    0    0 -0.62365065198E+01  0.39938389285E+02 -0.12431144416E+01  0.40441492131E+02  0.00000000000E+00 0. -1.
          2    1    1    2  501    0  0.42857974985E+02  0.26331680227E+02 -0.75828363907E+02  0.90995077758E+02  0.00000000000E+00 0.  1.
<scales pt_clust_5="13000.00000" pt_clust_6="13000.00000" pt_clust_7="13000.00000" pt_clust_8="13000.00000" pt_clust_9="50.30073"></scales>
<clustering>
<clus scale="   50.301">  2  9  1 -1</clus>
<clus scale="   89.679">  7  8 -1 -1</clus>
<clus scale="   91.991">  5  6 -1 -1</clus>
<clus scale="  111.598">  1  7  2 -1</clus>
<clus scale="   50.301">  2  5  1 -1</clus>
</clustering>
</event>
<event>
 9    1  0.1426358E-005  0.2378863E+03  0.7546771E-02  0.1121368E+00
         21   -1    0    0  501  502  0.00000000000E+00  0.00000000000E+00  0.29313302563E+03  0.29313302563E+03  0.00000000000E+00 0. -1.
         -1   -1    0    0    0  501 -0.00000000000E+00 -0.00000000000E+00 -0.38360164583E+03  0.38360164583E+03  0.00000000000E+00 0.  1.
         23    2    1    2    0    0 -0.36421625370E+02  0.21791078450E+03 -0.21731057564E+03  0.32242009074E+03  0.88989796230E+02 0.  0.
         23    2    1    2    0    0  0.96861750564E+02 -0.20040450389E+03  0.35281170169E+02  0.24321617393E+03  0.91461371019E+02 0.  0.
        -11    1    3    3    0    0 -0.63286603896E+02  0.18351302596E+03 -0.18457635858E+03  0.26786313124E+03  0.00000000000E+00 0.  1.
         11    1    3    3    0    0  0.26864978526E+02  0.34397758534E+02 -0.32734217060E+02  0.54556959500E+02  0.00000000000E+00 0. -1.
        -11    1    4    4    0    0  0.89932205224E+02 -0.92152388309E+02 -0.12116492105E+01  0.12876852217E+03  0.00000000000E+00 0.  1.
         11    1    4    4    0    0  0.69295453400E+01 -0.10825211559E+03  0.36492819380E+02  0.11444765176E+03  0.00000000000E+00 0. -1.
         -1    1    1    2    0  502 -0.60440125194E+02 -0.17506280601E+02  0.91560785268E+02  0.11109840680E+03  0.00000000000E+00 0.  1.
<scales pt_clust_5="13000.00000" pt_clust_6="13000.00000" pt_clust_7="13000.00000" pt_clust_8="13000.00000" pt_clust_9="62.92439"></scales>
<clustering>
<clus scale="   62.924">  1  9  2 -1</clus>
<clus scale="   88.990">  5  6 -1 -1</clus>
<clus scale="   91.461">  7  8 -1 -1</clus>
<clus scale="  236.947">  2  5  1 -1</clus>
<clus scale="   62.924">  1  5  2 -1</clus>
</clustering>
</event>
<event>
 9    1  0.1426358E-005  0.1374547E+03  0.7546771E-02  0.1217318E+00
         21   -1    0    0  501  502  0.00000000000E+00  0.00000000000E+00  0.29941178745E+03  0.29941178745E+03  0.00000000000E+00 0. -1.
          1   -1    0    0  502    0 -0.00000000000E+00 -0.00000000000E+00 -0.31665566564E+03  0.31665566564E+03  0.00000000000E+00 0. -1.
         23    2    1    2    0    0  0.88047391737E+02  0.74920389157E+02 -0.25104043322E+03  0.29142739098E+03  0.92429525581E+02 0.  0.
         23    2    1    2    0    0 -0.21307954348E+02 -0.53741658660E+02  0.33149226257E+02  0.11212643507E+03  0.90173562904E+02 0.  0.
        -11    1    4    4    0    0 -0.13230889678E+02  0.24755950136E+02  0.62643374642E+01  0.28760310024E+02  0.00000000000E+00 0.  1.
         11    1    4    4    0    0 -0.80770646698E+01 -0.78497608796E+02  0.26884888793E+02  0.83366125050E+02  0.00000000000E+00 0. -1.
        -13    1    3    3    0    0  0.66606547307E+02  0.82653902360E+02 -0.12797941265E+03  0.16627335861E+03  0.00000000000E+00 0.  1.
         13    1    3    3    0    0  0.21440844430E+02 -0.77335132028E+01 -0.12306102057E+03  0.12515403237E+03  0.00000000000E+00 0. -1.
          1    1    1    2  501    0 -0.66739437389E+02 -0.21178730497E+02  0.20064732878E+03  0.21251362703E+03  0.00000000000E+00 0. -1.
<scales pt_clust_5="13000.00000" pt_clust_6="13000.00000" pt_clust_7="13000.00000" pt_clust_8="13000.00000" pt_clust_9="70.01922"></scales>
<clustering>
<clus scale="   70.019">  1  9  2 -1</clus>
<clus scale="   90.174">  5  6 -1 -1</clus>
<clus scale="   92.430">  7  8 -1 -1</clus>
<clus scale="  135.948">  1  5  2 -1</clus>
<clus scale="   70.019">  1  5  2 -1</clus>
</clustering>
</event>
<event>
 9    1  0.1426358E-005  0.1691088E+03  0.7546771E-02  0.1179096E+00
          1   -1    0    0  502    0 -0.00000000000E+00  0.00000000000E+00  0.79753059849E+03  0.79753059849E+03  0.00000000000E+00 0. -1.
         21   -1    0    0  501  502  0.00000000000E+00 -0.00000000000E+00 -0.75399451813E+02  0.75399451813E+02  0.00000000000E+00 0.  1.
         23    2    1    2    0    0  0.35957532452E+02 -0.11484810492E+03  0.33979923651E+03  0.37001759345E+03  0.83465363987E+02 0.  0.
         23    2    1    2    0    0 -0.21407367059E+02  0.20665425355E+03  0.31972061004E+03  0.39083993059E+03  0.85850608555E+02 0.  0.
        -11    1    4    4    0    0 -0.78084582396E+01  0.33587636617E+02  0.12637304446E+03  0.13099331173E+03  0.00000000000E+00 0. -1.
         11    1    4    4    0    0 -0.13598908819E+02  0.17306661693E+03  0.19334756558E+03  0.25984661886E+03  0.00000000000E+00 0.  1.
        -13    1    3    3    0    0 -0.16978801219E+02 -0.71091827267E+02  0.22125678721E+03  0.23301693818E+03  0.00000000000E+00 0. -1.
         13    1    3    3    0    0  0.52936333671E+02 -0.43756277652E+02  0.11854244930E+03  0.13700065526E+03  0.00000000000E+00 0.  1.
          1    1    1    2  501    0 -0.14550165393E+02 -0.91806148627E+02  0.62611300128E+02  0.11207252626E+03  0.00000000000E+00 0. -1.
<scales pt_clust_5="13000.00000" pt_clust_6="13000.00000" pt_clust_7="13000.00000" pt_clust_8="13000.00000" pt_clust_9="92.95201"></scales>
<clustering>
<clus scale="   83.465">  7  8 -1 -1</clus>
<clus scale="   85.851">  5  6 -1 -1</clus>
<clus scale="   92.952">  2  9  1 -1</clus>
<clus scale="  167.911">  1  7  2 -1</clus>
<clus scale="   92.952">  2  5  1 -1</clus>
</clustering>
</event>
<event>
 9    1  0.1426358E-005  0.1119830E+03  0.7546771E-02  0.1256974E+00
         21   -1    0    0  501  502  0.00000000000E+00  0.00000000000E+00  0.58291725572E+03  0.58291725572E+03  0.00000000000E+00 0. -1.
          2   -1    0    0  502    0 -0.00000000000E+00 -0.00000000000E+00 -0.52719254862E+02  0.52719254862E+02  0.00000000000E+00 0. -1.
         23    2    1    2    0    0  0.66311311180E+02  0.32193792568E+02  0.45349208311E+02  0.12586871270E+03  0.91393390741E+02 0.  0.
         23    2    1    2    0    0 -0.41876313782E+02 -0.57976707863E+01  0.21401046180E+03  0.23655135302E+03  0.91481288872E+02 0.  0.
        -11    1    4    4    0    0 -0.29657417497E+02 -0.46666085288E+02  0.92440106178E+02  0.10771471190E+03  0.00000000000E+00 0.  1.
         11    1    4    4    0    0 -0.12218896285E+02  0.40868414501E+02  0.12157035562E+03  0.12883664113E+03  0.00000000000E+00 0. -1.
        -13    1    3    3    0    0  0.16447486133E+02  0.40733281153E+02 -0.15638929645E+02  0.46629348205E+02  0.00000000000E+00 0. -1.
         13    1    3    3    0    0  0.49863825047E+02 -0.85394885849E+01  0.60988137956E+02  0.79239364491E+02  0.00000000000E+00 0.  1.
          2    1    1    2  501    0 -0.24434997399E+02 -0.26396121782E+02  0.27083833074E+03  0.27321644486E+03  0.00000000000E+00 0. -1.
<scales pt_clust_5="13000.00000" pt_clust_6="13000.00000" pt_clust_7="13000.00000" pt_clust_8="13000.00000" pt_clust_9="35.96977"></scales>
<clustering>
<clus scale="   35.970">  1  9  2 -1</clus>
<clus scale="   91.393">  7  8 -1 -1</clus>
<clus scale="   91.481">  5  6 -1 -1</clus>
<clus scale="  111.911">  2  7  1 -1</clus>
<clus scale="   35.970">  1  5  2 -1</clus>
</clustering>
</event>
<event>
 9    1  0.1426358E-005  0.1624219E+03  0.7546771E-02  0.1186807E+00
         21   -1    0    0  501  502  0.00000000000E+00  0.00000000000E+00  0.94337534534E+03  0.94337534534E+03  0.00000000000E+00 0.  1.
          2   -1    0    0  502    0 -0.00000000000E+00 -0.00000000000E+00 -0.48312603044E+02  0.48312603044E+02  0.00000000000E+00 0. -1.
         23    2    1    2    0    0  0.85813167080E+02 -0.66026879114E+02  0.25487612772E+03  0.29208462453E+03  0.92887776352E+02 0.  0.
         23    2    1    2    0    0 -0.10451289677E+03  0.12767997248E+03  0.30043182275E+03  0.35379397988E+03  0.87668575407E+02 0.  0.
        -13    1    3    3    0    0  0.68970489341E+02  0.50481221906E+01  0.13569821109E+03  0.15230369802E+03  0.00000000000E+00 0.  1.
         13    1    3    3    0    0  0.16842677739E+02 -0.71075001304E+02  0.11917791663E+03  0.13978092651E+03  0.00000000000E+00 0. -1.
        -13    1    4    4    0    0 -0.26440630224E+02  0.12978933050E+02  0.86434858173E+01  0.30696408207E+02  0.00000000000E+00 0. -1.
         13    1    4    4    0    0 -0.78072266543E+02  0.11470103943E+03  0.29178833693E+03  0.32309757167E+03  0.00000000000E+00 0.  1.
          2    1    1    2  501    0  0.18699729687E+02 -0.61653093369E+02  0.33975479182E+03  0.34580934397E+03  0.00000000000E+00 0. -1.
<scales pt_clust_5="13000.00000" pt_clust_6="13000.00000" pt_clust_7="13000.00000" pt_clust_8="13000.00000" pt_clust_9="64.42658"></scales>
<clustering>
<clus scale="   64.427">  1  9  2 -1</clus>
<clus scale="   87.669">  7  8 -1 -1</clus>
<clus scale="   92.888">  5  6 -1 -1</clus>
<clus scale="  159.495">  1  7  2 -1</clus>
<clus scale="   64.427">  1  5  2 -1</clus>
</clustering>
</event>
<event>
 9    1  0.1426358E-005  0.9713762E+02  0.7546771E-02  0.1286542E+00
         21   -1    0    0  501  502  0.00000000000E+00  0.00000000000E+00  0.54205222350E+02  0.54205222350E+02  0.00000000000E+00 0.  1.
         -1   -1    0    0    0  501 -0.00000000000E+00 -0.00000000000E+00 -0.28116583559E+03  0.28116583559E+03  0.00000000000E+00 0.  1.
         23    2    1    2    0    0 -0.43671877446E+02  0.48789204118E+00 -0.17334577842E+03  0.19959113964E+03  0.88771578832E+02 0.  0.
         23    2    1    2    0    0  0.27556484046E+02 -0.23499162757E+02 -0.48353830203E+02  0.10719840935E+03  0.88554139415E+02 0.  0.
        -11    1    3    3    0    0 -0.59399841706E+02 -0.21405120630E+02 -0.15391240109E+03  0.16635969342E+03  0.00000000000E+00 0.  1.
         11    1    3    3    0    0  0.15727964260E+02  0.21893012671E+02 -0.19433377325E+02  0.33231446220E+02  0.00000000000E+00 0. -1.
        -11    1    4    4    0    0  0.53731594212E+02 -0.37907751889E+02 -0.31860922785E+02  0.73069831466E+02  0.00000000000E+00 0. -1.
         11    1    4    4    0    0 -0.26175110166E+02  0.14408589131E+02 -0.16492907418E+02  0.34128577879E+02  0.00000000000E+00 0.  1.
         -1    1    1    2    0  502  0.16115393401E+02  0.23011270716E+02 -0.52610046142E+01  0.28581508952E+02  0.00000000000E+00 0.  1.
<scales pt_clust_5="13000.00000" pt_clust_6="13000.00000" pt_clust_7="13000.00000" pt_clust_8="13000.00000" pt_clust_9="28.09314"></scales>
<clustering>
<clus scale="   28.093">  1  9  2 -1</clus>
<clus scale="   88.554">  7  8 -1 -1</clus>
<clus scale="   88.772">  5  6 -1 -1</clus>
<clus scale="   96.939">  1  7  2 -1</clus>
<clus scale="   28.093">  1  5  2 -1</clus>
</clustering>
</event>
<event>
 9    1  0.1426358E-005  0.9904428E+02  0.7546771E-02  0.1283236E+00
         21   -1    0    0  501  502  0.00000000000E+00  0.00000000000E+00  0.16640110734E+03  0.16640110734E+03  0.00000000000E+00 0.  1.
         -3   -1    0    0    0  501 -0.00000000000E+00 -0.00000000000E+00 -0.20940699760E+03  0.20940699760E+03  0.00000000000E+00 0.  1.
         23    2    1    2    0    0  0.20702531383E+02  0.30136173873E+02 -0.10164593115E+03  0.14221052267E+03  0.92494073638E+02 0.  0.
         23    2    1    2    0    0  0.36402134251E+02 -0.44882015788E+02 -0.43235085397E+02  0.11588214553E+03  0.90663599779E+02 0.  0.
        -13    1    4    4    0    0  0.18706808039E+02 -0.66197213466E+02 -0.52646835309E+02  0.86623928598E+02  0.00000000000E+00 0. -1.
         13    1    4    4    0    0  0.17695326212E+02  0.21315197679E+02  0.94117499116E+01  0.29258216935E+02  0.00000000000E+00 0.  1.
        -13    1    3    3    0    0 -0.28877356161E+02 -0.62701864632E+01 -0.62948685045E+02  0.69539585029E+02  0.00000000000E+00 0. -1.
         13    1    3    3    0    0  0.49579887544E+02  0.36406360336E+02 -0.38697246100E+02  0.72670937640E+02  0.00000000000E+00 0.  1.
         -3    1    1    2    0  502 -0.57104665633E+02  0.14745841915E+02  0.10187512628E+03  0.11771543673E+03  0.00000000000E+00 0.  1.
<scales pt_clust_5="13000.00000" pt_clust_6="13000.00000" pt_clust_7="13000.00000" pt_clust_8="13000.00000" pt_clust_9="58.97782"></scales>
<clustering>
<clus scale="   58.978">  1  9  2 -1</clus>
<clus scale="   90.664">  5  6 -1 -1</clus>
<clus scale="   92.494">  7  8 -1 -1</clus>
<clus scale="   97.337">  1  5  2 -1</clus>
<clus scale="   58.978">  1  5  2 -1</clus>
</clustering>
</event>
<event>
 9    1  0.1426358E-005  0.1049586E+03  0.7546771E-02  0.1270617E+00
         21   -1    0    0  501  502  0.00000000000E+00  0.00000000000E+00  0.13515010447E+03  0.13515010447E+03  0.00000000000E+00 0.  1.
         -2   -1    0    0    0  501 -0.00000000000E+00 -0.00000000000E+00 -0.22553441594E+03  0.22553441594E+03  0.00000000000E+00 0.  1.
         23    2    1    2    0    0  0.11087882826E+02  0.40909827247E+02 -0.89580648499E+02  0.13422930572E+03  0.90533191797E+02 0.  0.
         23    2    1    2    0    0 -0.97832163831E+02 -0.39092473278E+02  0.35220662865E+01  0.13958413206E+03  0.91498476632E+02 0.  0.
        -11    1    4    4    0    0 -0.42781205934E+02 -0.22384800176E+02 -0.43724624888E+02  0.65139494024E+02  0.00000000000E+00 0. -1.
         11    1    4    4    0    0 -0.55050957897E+02 -0.16707673102E+02  0.47246691174E+02  0.74444638039E+02  0.00000000000E+00 0.  1.
        -11    1    3    3    0    0  0.49290787154E+02  0.16536710178E+02 -0.63039982816E+02  0.81713425550E+02  0.00000000000E+00 0. -1.
         11    1    3    3    0    0 -0.38202904329E+02  0.24373117070E+02 -0.26540665683E+02  0.52515880167E+02  0.00000000000E+00 0.  1.
         -2    1    1    2    0  502  0.86744281006E+02 -0.18173539693E+01 -0.43257292582E+01  0.86871082624E+02  0.00000000000E+00 0.  1.
<scales pt_clust_5="13000.00000" pt_clust_6="13000.00000" pt_clust_7="13000.00000" pt_clust_8="13000.00000" pt_clust_9="86.76332"></scales>
<clustering>
<clus scale="   86.763">  1  9  2 -1</clus>
<clus scale="   90.533">  7  8 -1 -1</clus>
<clus scale="   91.498">  5  6 -1 -1</clus>
<clus scale="  104.118">  2  7  1 -1</clus>
<clus scale="   86.763">  1  5  2 -1</clus>
</clustering>
</event>
<event>
 9    1  0.1426358E-005  0.9654702E+02  0.7546771E-02  0.1289325E+00
         21   -1    0    0  501  502  0.00000000000E+00  0.00000000000E+00  0.11038910356E+03  0.11038910356E+03  0.00000000000E+00 0.  1.
          2   -1    0    0  502    0 -0.00000000000E+00 -0.00000000000E+00 -0.61967975679E+03  0.61967975679E+03  0.00000000000E+00 0. -1.
         23    2    1    2    0    0  0.16525962088E+02  0.28752609612E+02 -0.50229390793E+03  0.51114247251E+03  0.88699702809E+02 0.  0.
         23    2    1    2    0    0  0.60805587474E+02 -0.18051873616E+01  0.48230390624E+02  0.12015205583E+03  0.91704785971E+02 0.  0.
        -11    1    4    4    0    0  0.43105065609E+02 -0.45392832442E+02  0.32602970620E+02  0.70579810225E+02  0.00000000000E+00 0.  1.
         11    1    4    4    0    0  0.17700521865E+02  0.43587645080E+02  0.15627420004E+02  0.49572245601E+02  0.00000000000E+00 0. -1.
        -13    1    3    3    0    0  0.48728440916E+02 -0.35989750371E+01 -0.27577416045E+03  0.28006927919E+03  0.00000000000E+00 0. -1.
         13    1    3    3    0    0 -0.32202478828E+02  0.32351584649E+02 -0.22651974748E+03  0.23107319332E+03  0.00000000000E+00 0.  1.
          2    1    1    2  501    0 -0.77331549562E+02 -0.26947422250E+02 -0.55227135916E+02  0.98774332015E+02  0.00000000000E+00 0. -1.
<scales pt_clust_5="13000.00000" pt_clust_6="13000.00000" pt_clust_7="13000.00000" pt_clust_8="13000.00000" pt_clust_9="81.89220"></scales>
<clustering>
<clus scale="   81.892">  1  9  2 -1</clus>
<clus scale="   88.700">  7  8 -1 -1</clus>
<clus scale="   91.705">  5  6 -1 -1</clus>
<clus scale="   93.697">  2  7  1 -1</clus>
<clus scale="   81.892">  1  5  2 -1</clus>
</clustering>
</event>
<event>
 9    1  0.1460758E-005  0.3246792E+03  0.7546771E-02  0.1098646E+00
         21   -1    0    0  501  502  0.00000000000E+00  0.00000000000E+00  0.21974667067E+03  0.21974667067E+03  0.00000000000E+00 0. -1.
          2   -1    0    0  502    0 -0.00000000000E+00 -0.00000000000E+00 -0.16636249570E+04  0.16636249570E+04  0.00000000000E+00 0. -1.
         23    2    1    2    0    0 -0.88515284187E+02  0.10708596967E+03  0.50956074067E+02  0.17388723025E+03  0.91312030555E+02 0.  0.
         23    2    1    2    0    0  0.33369206043E+03 -0.25825772829E+03 -0.12781807301E+04  0.13490633274E+04  0.90434711639E+02 0.  0.
        -13    1    4    4    0    0  0.25220420171E+02 -0.57685081273E+02 -0.21397408004E+03  0.22304381884E+03  0.00000000000E+00 0.  1.
         13    1    4    4    0    0  0.30847164026E+03 -0.20057264701E+03 -0.10642066500E+04  0.11260195085E+04  0.00000000000E+00 0. -1.
        -13    1    3    3    0    0 -0.72107549687E+02  0.28531801371E+02 -0.22880453515E+01  0.77580909784E+02  0.00000000000E+00 0.  1.
         13    1    3    3    0    0 -0.16407734499E+02  0.78554168302E+02  0.53244119418E+02  0.96306320466E+02  0.00000000000E+00 0. -1.
          2    1    1    2  501    0 -0.24517677624E+03  0.15117175861E+03 -0.21665363029E+03  0.36042107004E+03  0.00000000000E+00 0. -1.
<scales pt_clust_5="13000.00000" pt_clust_6="13000.00000" pt_clust_7="13000.00000" pt_clust_8="13000.00000" pt_clust_9="311.83028"></scales>
<clustering>
<clus scale="   90.435">  5  6 -1 -1</clus>
<clus scale="   91.312">  7  8 -1 -1</clus>
<clus scale="  166.254">  2  7  1 -1</clus>
<clus scale="  311.830">  1  9  2 -1</clus>
<clus scale="  311.830">  1  5  2 -1</clus>
</clustering>
</event>
<event>
 9    1  0.1426358E-005  0.1121189E+03  0.7546771E-02  0.1262126E+00
         21   -1    0    0  501  502  0.00000000000E+00  0.00000000000E+00  0.25881790322E+02  0.25881790322E+02  0.00000000000E+00 0.  1.
          1   -1    0    0  502    0 -0.00000000000E+00 -0.00000000000E+00 -0.66934615533E+03  0.66934615533E+03  0.00000000000E+00 0. -1.
         23    2    1    2    0    0  0.42941548508E+02  0.30943438737E+02 -0.41461884185E+03  0.43045558707E+03  0.10286765979E+03 0.  0.
         23    2    1    2    0    0 -0.37372077694E+02 -0.11568202236E+00 -0.19791097535E+03  0.22074605012E+03  0.90351418946E+02 0.  0.
        -11    1    4    4    0    0 -0.26612195139E+02  0.40022449143E+02 -0.14903007324E+03  0.15658853117E+03  0.00000000000E+00 0. -1.
         11    1    4    4    0    0 -0.10759882556E+02 -0.40138131165E+02 -0.48880902114E+02  0.64157518947E+02  0.00000000000E+00 0.  1.
        -11    1    3    3    0    0  0.64812686457E+02  0.29153761858E+02 -0.39395395056E+03  0.40031280434E+03  0.00000000000E+00 0.  1.
         11    1    3    3    0    0 -0.21871137949E+02  0.17896768789E+01 -0.20664891287E+02  0.30142782725E+02  0.00000000000E+00 0. -1.
          1    1    1    2  501    0 -0.55694708138E+01 -0.30827756714E+02 -0.30934547810E+02  0.44026308469E+02  0.00000000000E+00 0. -1.
<scales pt_clust_5="13000.00000" pt_clust_6="13000.00000" pt_clust_7="13000.00000" pt_clust_8="13000.00000" pt_clust_9="31.32682"></scales>
<clustering>
<clus scale="   31.327">  1  9  2 -1</clus>
<clus scale="   90.351">  5  6 -1 -1</clus>
<clus scale="  100.758">  1  5  2 -1</clus>
<clus scale="  102.868">  7  8 -1 -1</clus>
<clus scale="   31.327">  1  5  2 -1</clus>
</clustering>
</event>
<event>
 9    1  0.1426358E-005  0.1263777E+03  0.7546771E-02  0.1240946E+00
         21   -1    0    0  501  502  0.00000000000E+00  0.00000000000E+00  0.10070545880E+03  0.10070545880E+03  0.00000000000E+00 0. -1.
          2   -1    0    0  502    0 -0.00000000000E+00 -0.00000000000E+00 -0.53266620907E+03  0.53266620907E+03  0.00000000000E+00 0. -1.
         23    2    1    2    0    0 -0.21346248129E+02 -0.54440205484E+02 -0.44166853308E+03  0.45923453296E+03  0.11138161818E+03 0.  0.
         23    2    1    2    0    0  0.16349187840E+01  0.68623121616E+02 -0.39508460338E+02  0.11925607986E+03  0.89158781768E+02 0.  0.
        -11    1    3    3    0    0 -0.14426989178E+02  0.20143239579E+02 -0.22636228982E+02  0.33560199344E+02  0.00000000000E+00 0.  1.
         11    1    3    3    0    0 -0.69192589510E+01 -0.74583445063E+02 -0.41903230410E+03  0.42567433361E+03  0.00000000000E+00 0. -1.
        -13    1    4    4    0    0  0.24343233162E+02  0.57408672747E+02  0.10467466845E+02  0.63229080094E+02  0.00000000000E+00 0.  1.
         13    1    4    4    0    0 -0.22708314378E+02  0.11214448869E+02 -0.49975927183E+02  0.56026999769E+02  0.00000000000E+00 0. -1.
          2    1    1    2  501    0  0.19711329345E+02 -0.14182916132E+02  0.49216243139E+02  0.54881055049E+02  0.00000000000E+00 0. -1.
<scales pt_clust_5="13000.00000" pt_clust_6="13000.00000" pt_clust_7="13000.00000" pt_clust_8="13000.00000" pt_clust_9="24.28357"></scales>
<clustering>
<clus scale="   24.284">  1  9  2 -1</clus>
<clus scale="   89.159">  7  8 -1 -1</clus>
<clus scale="  107.307">  1  7  2 -1</clus>
<clus scale="  111.382">  5  6 -1 -1</clus>
<clus scale="   24.284">  1  5  2 -1</clus>
</clustering>
</event>
<event>
 9    1  0.1426358E-005  0.1906260E+03  0.7546771E-02  0.1158052E+00
          1   -1    0    0  502    0 -0.00000000000E+00  0.00000000000E+00  0.12603763469E+03  0.12603763469E+03  0.00000000000E+00 0. -1.
         21   -1    0    0  501  502  0.00000000000E+00 -0.00000000000E+00 -0.47009153988E+03  0.47009153988E+03  0.00000000000E+00 0. -1.
         23    2    1    2    0    0  0.10411893896E+03 -0.12785966965E+03 -0.68126733846E+00  0.18902019767E+03  0.92408454311E+02 0.  0.
         23    2    1    2    0    0 -0.94199852410E+02  0.14667382357E+03 -0.31925890549E+03  0.37495570717E+03  0.90987421631E+02 0.  0.
        -11    1    3    3    0    0  0.12139154204E+03 -0.11563928246E+03 -0.33854357482E+01  0.16768962789E+03  0.00000000000E+00 0. -1.
         11    1    3    3    0    0 -0.17272603081E+02 -0.12220387189E+02  0.27041684098E+01  0.21330569777E+02  0.00000000000E+00 0.  1.
        -13    1    4    4    0    0 -0.81985765271E+02  0.46185220300E+02 -0.17545265733E+03  0.19909388550E+03  0.00000000000E+00 0.  1.
         13    1    4    4    0    0 -0.12214087140E+02  0.10048860327E+03 -0.14380624816E+03  0.17586182167E+03  0.00000000000E+00 0. -1.
          1    1    1    2  501    0 -0.99190865470E+01 -0.18814153921E+02 -0.24113732368E+02  0.32153269731E+02  0.00000000000E+00 0. -1.
<scales pt_clust_5="13000.00000" pt_clust_6="13000.00000" pt_clust_7="13000.00000" pt_clust_8="13000.00000" pt_clust_9="21.26877"></scales>
<clustering>
<clus scale="   21.269">  2  9  1 -1</clus>
<clus scale="   90.987">  7  8 -1 -1</clus>
<clus scale="   92.408">  5  6 -1 -1</clus>
<clus scale="  189.941">  2  7  1 -1</clus>
<clus scale="   21.269">  2  5  1 -1</clus>
</clustering>
</event>
<event>
 9    1  0.1426358E-005  0.1024471E+03  0.7546771E-02  0.1278295E+00
          1   -1    0    0  502    0 -0.00000000000E+00  0.00000000000E+00  0.16021728817E+03  0.16021728817E+03  0.00000000000E+00 0. -1.
         21   -1    0    0  501  502  0.00000000000E+00 -0.00000000000E+00 -0.83685666069E+02  0.83685666069E+02  0.00000000000E+00 0.  1.
         23    2    1    2    0    0 -0.41482684952E+01  0.55894903817E+02  0.56464367923E+02  0.11677383097E+03  0.85477800330E+02 0.  0.
         23    2    1    2    0    0  0.11625984955E+02 -0.28448894139E+02  0.13643383586E+02  0.97966376415E+02  0.92015030774E+02 0.  0.
        -13    1    4    4    0    0 -0.25558861397E+02  0.12728755920E+02 -0.18330072573E+02  0.33930343112E+02  0.00000000000E+00 0.  1.
         13    1    4    4    0    0  0.37184846351E+02 -0.41177650058E+02  0.31973456158E+02  0.64036033303E+02  0.00000000000E+00 0. -1.
        -13    1    3    3    0    0  0.14644022387E+02  0.73978955187E+02  0.35702603203E+02  0.83438654578E+02  0.00000000000E+00 0.  1.
         13    1    3    3    0    0 -0.18792290882E+02 -0.18084051370E+02  0.20761764719E+02  0.33335176388E+02  0.00000000000E+00 0. -1.
          1    1    1    2  501    0 -0.74777164595E+01 -0.27446009678E+02  0.64238705877E+01  0.29162746853E+02  0.00000000000E+00 0. -1.
<scales pt_clust_5="13000.00000" pt_clust_6="13000.00000" pt_clust_7="13000.00000" pt_clust_8="13000.00000" pt_clust_9="28.44644"></scales>
<clustering>
<clus scale="   28.446">  2  9  1 -1</clus>
<clus scale="   85.478">  7  8 -1 -1</clus>
<clus scale="   92.015">  5  6 -1 -1</clus>
<clus scale="   96.618">  1  7  2 -1</clus>
<clus scale="   28.446">  2  5  1 -1</clus>
</clustering>
</event>
<event>
 9    1  0.1426358E-005  0.1882572E+03  0.7546771E-02  0.1160069E+00
         21   -1    0    0  501  502  0.00000000000E+00  0.00000000000E+00  0.22925100279E+03  0.22925100279E+03  0.00000000000E+00 0. -1.
          2   -1    0    0  502    0 -0.00000000000E+00 -0.00000000000E+00 -0.28390880172E+03  0.28390880172E+03  0.00000000000E+00 0. -1.
         23    2    1    2    0    0 -0.17117361373E+03  0.28885120946E+02 -0.17097649306E+03  0.25991542302E+03  0.90489279443E+02 0.  0.
         23    2    1    2    0    0  0.12731669426E+03 -0.63283410601E+02  0.96489136159E+02  0.19408457178E+03  0.90245980038E+02 0.  0.
        -11    1    3    3    0    0 -0.12467072155E+03  0.99541199595E+01 -0.16823725751E+03  0.20963217341E+03  0.00000000000E+00 0.  1.
         11    1    3    3    0    0 -0.46502892181E+02  0.18931000987E+02 -0.27392355523E+01  0.50283249607E+02  0.00000000000E+00 0. -1.
        -13    1    4    4    0    0  0.31226810247E+02 -0.58126047912E+02  0.65541409922E+02  0.93002298567E+02  0.00000000000E+00 0. -1.
         13    1    4    4    0    0  0.96089884010E+02 -0.51573626883E+01  0.30947726236E+02  0.10108227321E+03  0.00000000000E+00 0.  1.
          2    1    1    2  501    0  0.43856919472E+02  0.34398289654E+02  0.19829557966E+02  0.59159809718E+02  0.00000000000E+00 0. -1.
<scales pt_clust_5="13000.00000" pt_clust_6="13000.00000" pt_clust_7="13000.00000" pt_clust_8="13000.00000" pt_clust_9="55.73753"></scales>
<clustering>
<clus scale="   55.738">  1  9  2 -1</clus>
<clus scale="   90.246">  7  8 -1 -1</clus>
<clus scale="   90.489">  5  6 -1 -1</clus>
<clus scale="  188.140">  1  7  2 -1</clus>
<clus scale="   55.738">  1  5  2 -1</clus>
</clustering>
</event>
<event>
 9    1  0.1426358E-005  0.1075343E+03  0.7546771E-02  0.1267535E+00
         -3   -1    0    0    0  501 -0.00000000000E+00  0.00000000000E+00  0.39080653843E+03  0.39080653843E+03  0.00000000000E+00 0.  1.
         21   -1    0    0  501  502  0.00000000000E+00 -0.00000000000E+00 -0.52968804978E+02  0.52968804978E+02  0.00000000000E+00 0. -1.
         23    2    1    2    0    0  0.33647156291E+02 -0.39196457216E+02  0.28168738569E+03  0.30260192905E+03  0.97732547435E+02 0.  0.
         23    2    1    2    0    0 -0.25946654818E+02  0.13092118168E+02  0.59532116493E+02  0.11374768556E+03  0.92465294147E+02 0.  0.
        -13    1    4    4    0    0  0.46370253553E+01  0.20114178419E+02  0.75688840310E+02  0.78453060649E+02  0.00000000000E+00 0.  1.
         13    1    4    4    0    0 -0.30583680173E+02 -0.70220602516E+01 -0.16156723817E+02  0.35294624911E+02  0.00000000000E+00 0. -1.
        -13    1    3    3    0    0  0.67204102310E+02 -0.35731923528E+02  0.17883269818E+03  0.19435610529E+03  0.00000000000E+00 0.  1.
         13    1    3    3    0    0 -0.33556946019E+02 -0.34645336880E+01  0.10285468751E+03  0.10824582376E+03  0.00000000000E+00 0. -1.
         -3    1    1    2    0  502 -0.77005014728E+01  0.26104339048E+02 -0.33817687288E+01  0.27425728793E+02  0.00000000000E+00 0.  1.
<scales pt_clust_5="13000.00000" pt_clust_6="13000.00000" pt_clust_7="13000.00000" pt_clust_8="13000.00000" pt_clust_9="27.21643"></scales>
<clustering>
<clus scale="   27.216">  2  9  1 -1</clus>
<clus scale="   92.465">  5  6 -1 -1</clus>
<clus scale="   97.733">  7  8 -1 -1</clus>
<clus scale="  102.771">  2  5  1 -1</clus>
<clus scale="   27.216">  2  5  1 -1</clus>
</clustering>
</event>
<event>
 9    1  0.1426358E-005  0.2587292E+03  0.7546771E-02  0.1107967E+00
          1   -1    0    0  502    0 -0.00000000000E+00  0.00000000000E+00  0.89517896510E+03  0.89517896510E+03  0.00000000000E+00 0. -1.
         21   -1    0    0  501  502  0.00000000000E+00 -0.00000000000E+00 -0.22542829267E+03  0.22542829267E+03  0.00000000000E+00 0.  1.
         23    2    1    2    0    0  0.22228836523E+03  0.93397443928E+02  0.76088939232E+03  0.80359860084E+03  0.93181779775E+02 0.  0.
         23    2    1    2    0    0 -0.23911735892E+03 -0.58295139346E+02 -0.66987336176E+02  0.27119734664E+03  0.92115487326E+02 0.  0.
        -13    1    3    3    0    0  0.12523223167E+03  0.68329798508E+02  0.57467686019E+03  0.59211955452E+03  0.00000000000E+00 0. -1.
         13    1    3    3    0    0  0.97056133566E+02  0.25067645421E+02  0.18621253213E+03  0.21147904632E+03  0.00000000000E+00 0.  1.
        -13    1    4    4    0    0 -0.29710530835E+02  0.65207214675E+01 -0.40121935476E+02  0.50348834717E+02  0.00000000000E+00 0. -1.
         13    1    4    4    0    0 -0.20940682809E+03 -0.64815860813E+02 -0.26865400700E+02  0.22084851192E+03  0.00000000000E+00 0.  1.
          1    1    1    2  501    0  0.16828993691E+02 -0.35102304583E+02 -0.24151383713E+02  0.45811310295E+02  0.00000000000E+00 0. -1.
<scales pt_clust_5="13000.00000" pt_clust_6="13000.00000" pt_clust_7="13000.00000" pt_clust_8="13000.00000" pt_clust_9="38.92797"></scales>
<clustering>
<clus scale="   38.928">  2  9  1 -1</clus>
<clus scale="   92.115">  7  8 -1 -1</clus>
<clus scale="   93.182">  5  6 -1 -1</clus>
<clus scale="  258.347">  2  7  1 -1</clus>
<clus scale="   38.928">  2  5  1 -1</clus>
</clustering>
</event>
<event>
 9    1  0.1426358E-005  0.1117115E+03  0.7546771E-02  0.1257720E+00
         21   -1    0    0  501  502  0.00000000000E+00  0.00000000000E+00  0.16581327685E+03  0.16581327685E+03  0.00000000000E+00 0.  1.
          3   -1    0    0  502    0 -0.00000000000E+00 -0.00000000000E+00 -0.13911840325E+03  0.13911840325E+03  0.00000000000E+00 0. -1.
         23    2    1    2    0    0  0.51902821217E+02  0.26843236964E+02 -0.19225467983E+02  0.10863922815E+03  0.89545525031E+02 0.  0.
         23    2    1    2    0    0 -0.80630589103E+02  0.91443433147E-01 -0.17959063965E+02  0.12125019646E+03  0.88756869610E+02 0.  0.
        -11    1    3    3    0    0  0.55519061815E+02  0.46553428392E+02  0.10064995390E+02  0.73149791880E+02  0.00000000000E+00 0.  1.
         11    1    3    3    0    0 -0.36162405983E+01 -0.19710191428E+02 -0.29290463374E+02  0.35489436271E+02  0.00000000000E+00 0. -1.
        -13    1    4    4    0    0 -0.43576601763E+02 -0.27084861737E+02  0.26120999157E+02  0.57574443579E+02  0.00000000000E+00 0.  1.
         13    1    4    4    0    0 -0.37053987340E+02  0.27176305170E+02 -0.44080063122E+02  0.63675752884E+02  0.00000000000E+00 0. -1.
          3    1    1    2  501    0  0.28727767886E+02 -0.26934680398E+02  0.63879405544E+02  0.75042255486E+02  0.00000000000E+00 0. -1.
<scales pt_clust_5="13000.00000" pt_clust_6="13000.00000" pt_clust_7="13000.00000" pt_clust_8="13000.00000" pt_clust_9="39.37971"></scales>
<clustering>
<clus scale="   39.380">  1  9  2 -1</clus>
<clus scale="   88.757">  7  8 -1 -1</clus>
<clus scale="   89.546">  5  6 -1 -1</clus>
<clus scale="  111.080">  1  7  2 -1</clus>
<clus scale="   39.380">  1  5  2 -1</clus>
</clustering>
</event>
<event>
 9    1  0.1426358E-005  0.1171664E+03  0.7546771E-02  0.1258392E+00
         -3   -1    0    0    0  501 -0.00000000000E+00  0.00000000000E+00  0.37589750447E+03  0.37589750447E+03  0.00000000000E+00 0.  1.
         21   -1    0    0  501  502  0.00000000000E+00 -0.00000000000E+00 -0.10956048426E+03  0.10956048426E+03  0.00000000000E+00 0.  1.
         23    2    1    2    0    0  0.40391457394E+02  0.22330307093E+02  0.20568310725E+03  0.22904612724E+03  0.89590598546E+02 0.  0.
         23    2    1    2    0    0  0.53153211952E+01 -0.16430803603E+02  0.13009929440E+03  0.17306574729E+03  0.11281711987E+03 0.  0.
        -11    1    4    4    0    0  0.11507238529E+01  0.43492488737E+02  0.20522832502E+02  0.48105170157E+02  0.00000000000E+00 0. -1.
         11    1    4    4    0    0  0.41645973423E+01 -0.59923292340E+02  0.10957646189E+03  0.12496057713E+03  0.00000000000E+00 0.  1.
        -13    1    3    3    0    0  0.54616350607E+02  0.28136806233E+01  0.19520394788E+03  0.20272011203E+03  0.00000000000E+00 0.  1.
         13    1    3    3    0    0 -0.14224893213E+02  0.19516626469E+02  0.10479159372E+02  0.26326015209E+02  0.00000000000E+00 0. -1.
         -3    1    1    2    0  502 -0.45706778589E+02 -0.58995034897E+01 -0.69445381438E+02  0.83346114207E+02  0.00000000000E+00 0.  1.
<scales pt_clust_5="13000.00000" pt_clust_6="13000.00000" pt_clust_7="13000.00000" pt_clust_8="13000.00000" pt_clust_9="46.08594"></scales>
<clustering>
<clus scale="   46.086">  2  9  1 -1</clus>
<clus scale="   89.591">  7  8 -1 -1</clus>
<clus scale="   95.009">  1  7  2 -1</clus>
<clus scale="  112.817">  5  6 -1 -1</clus>
<clus scale="   46.086">  2  5  1 -1</clus>
</clustering>
</event>
<event>
 9    1  0.1426358E-005  0.1104990E+03  0.7546771E-02  0.1262084E+00
         21   -1    0    0  501  502  0.00000000000E+00  0.00000000000E+00  0.66547210147E+02  0.66547210147E+02  0.00000000000E+00 0.  1.
         -1   -1    0    0    0  501 -0.00000000000E+00 -0.00000000000E+00 -0.27362783971E+03  0.27362783971E+03  0.00000000000E+00 0.  1.
         23    2    1    2    0    0  0.41343107379E+02  0.38349045880E+02 -0.15139326501E+03  0.18302853214E+03  0.86021049972E+02 0.  0.
         23    2    1    2    0    0 -0.39991880101E+02 -0.59287622764E+02 -0.65638486145E+02  0.13392423020E+03  0.92265464197E+02 0.  0.
        -11    1    3    3    0    0  0.32656226103E+02  0.19886732734E+02 -0.15722521543E+03  0.16180753879E+03  0.00000000000E+00 0.  1.
         11    1    3    3    0    0  0.86868812765E+01  0.18462313145E+02  0.58319504197E+01  0.21220993348E+02  0.00000000000E+00 0. -1.
        -13    1    4    4    0    0 -0.69805690683E+02 -0.47527078693E+02 -0.43707693902E+02  0.95089537632E+02  0.00000000000E+00 0.  1.
         13    1    4    4    0    0  0.29813810582E+02 -0.11760544071E+02 -0.21930792242E+02  0.38834692565E+02  0.00000000000E+00 0. -1.
         -1    1    1    2    0  502 -0.13512272780E+01  0.20938576885E+02  0.99511215884E+01  0.23222287527E+02  0.00000000000E+00 0.  1.
<scales pt_clust_5="13000.00000" pt_clust_6="13000.00000" pt_clust_7="13000.00000" pt_clust_8="13000.00000" pt_clust_9="20.98213"></scales>
<clustering>
<clus scale="   20.982">  1  9  2 -1</clus>
<clus scale="   86.021">  5  6 -1 -1</clus>
<clus scale="   92.265">  7  8 -1 -1</clus>
<clus scale="  105.341">  2  5  1 -1</clus>
<clus scale="   20.982">  1  5  2 -1</clus>
</clustering>
</event>
<event>
 9    1  0.1426358E-005  0.1196956E+03  0.7546771E-02  0.1245287E+00
          2   -1    0    0  502    0 -0.00000000000E+00  0.00000000000E+00  0.14830993915E+03  0.14830993915E+03  0.00000000000E+00 0. -1.
         21   -1    0    0  501  502  0.00000000000E+00 -0.00000000000E+00 -0.16426994433E+03  0.16426994433E+03  0.00000000000E+00 0.  1.
         23    2    1    2    0    0  0.39282164104E+02 -0.54627758243E+02  0.60551371755E+02  0.12642717297E+03  0.88261435838E+02 0.  0.
         23    2    1    2    0    0 -0.47572034613E+02  0.87006503704E+02 -0.60206682136E+02  0.14896469923E+03  0.93447348165E+02 0.  0.
        -11    1    4    4    0    0 -0.85395454398E+01  0.26928692095E+02 -0.71091091368E+02  0.76498506954E+02  0.00000000000E+00 0.  1.
         11    1    4    4    0    0 -0.39032489174E+02  0.60077811608E+02  0.10884409232E+02  0.72466192277E+02  0.00000000000E+00 0. -1.
        -11    1    3    3    0    0  0.64676305260E+02 -0.50138866717E+02  0.31776337993E+02  0.87787619138E+02  0.00000000000E+00 0. -1.
         11    1    3    3    0    0 -0.25394141156E+02 -0.44888915266E+01  0.28775033762E+02  0.38639553830E+02  0.00000000000E+00 0.  1.
          2    1    1    2  501    0  0.82898705096E+01 -0.32378745460E+02 -0.16304694798E+02  0.37188011282E+02  0.00000000000E+00 0. -1.
<scales pt_clust_5="13000.00000" pt_clust_6="13000.00000" pt_clust_7="13000.00000" pt_clust_8="13000.00000" pt_clust_9="33.42312"></scales>
<clustering>
<clus scale="   33.423">  2  9  1 -1</clus>
<clus scale="   88.261">  7  8 -1 -1</clus>
<clus scale="   93.447">  5  6 -1 -1</clus>
<clus scale="  115.692">  1  7  2 -1</clus>
<clus scale="   33.423">  2  5  1 -1</clus>
</clustering>
</event>
<event>
 9    1  0.1426358E-005  0.1012790E+03  0.7546771E-02  0.1284199E+00
         21   -1    0    0  501  502  0.00000000000E+00  0.00000000000E+00  0.59854608445E+02  0.59854608445E+02  0.00000000000E+00 0.  1.
          1   -1    0    0  502    0 -0.00000000000E+00 -0.00000000000E+00 -0.24825841905E+03  0.24825841905E+03  0.00000000000E+00 0. -1.
         23    2    1    2    0    0 -0.27099702480E+02  0.41808661526E+02 -0.86026847667E+02  0.13893601913E+03  0.97057925170E+02 0.  0.
         23    2    1    2    0    0  0.11151029081E+02 -0.16494343125E+01 -0.42469911635E+02  0.95312412591E+02  0.84579527763E+02 0.  0.
        -13    1    3    3    0    0  0.17641141521E+02  0.12232178895E+02 -0.82433288925E+02  0.85182646106E+02  0.00000000000E+00 0. -1.
         13    1    3    3    0    0 -0.44740844000E+02  0.29576482631E+02 -0.35935587417E+01  0.53753373020E+02  0.00000000000E+00 0.  1.
        -13    1    4    4    0    0 -0.28706558928E+02 -0.18898539198E+01  0.90643063584E+01  0.30162886518E+02  0.00000000000E+00 0. -1.
         13    1    4    4    0    0  0.39857588009E+02  0.24041960733E+00 -0.51534217993E+02  0.65149526074E+02  0.00000000000E+00 0.  1.
          1    1    1    2  501    0  0.15948673399E+02 -0.40159227214E+02 -0.59907051307E+02  0.73864595781E+02  0.00000000000E+00 0. -1.
<scales pt_clust_5="13000.00000" pt_clust_6="13000.00000" pt_clust_7="13000.00000" pt_clust_8="13000.00000" pt_clust_9="43.21025"></scales>
<clustering>
<clus scale="   43.210">  1  9  2 -1</clus>
<clus scale="   84.580">  7  8 -1 -1</clus>
<clus scale="   89.392">  1  7  2 -1</clus>
<clus scale="   97.058">  5  6 -1 -1</clus>
<clus scale="   43.210">  1  5  2 -1</clus>
</clustering>
</event>
<event>
 9    1  0.1426358E-005  0.9117245E+02  0.7546771E-02  0.1301370E+00
         21   -1    0    0  501  502  0.00000000000E+00  0.00000000000E+00  0.11075371019E+03  0.11075371019E+03  0.00000000000E+00 0.  1.
          1   -1    0    0  502    0 -0.00000000000E+00 -0.00000000000E+00 -0.12882886988E+03  0.12882886988E+03  0.00000000000E+00 0. -1.
         23    2    1    2    0    0  0.43691823710E+01  0.12424256540E+01 -0.58562843891E+02  0.10648428809E+03  0.88818148756E+02 0.  0.
         23    2    1    2    0    0  0.12765477145E+02  0.18855699105E+02  0.12583285902E+02  0.94677117872E+02  0.91032536870E+02 0.  0.
        -13    1    4    4    0    0  0.13383579321E+02 -0.19257936681E+02  0.40930810120E+02  0.47173292632E+02  0.00000000000E+00 0.  1.
         13    1    4    4    0    0 -0.61810217660E+00  0.38113635786E+02 -0.28347524218E+02  0.47503825240E+02  0.00000000000E+00 0. -1.
        -13    1    3    3    0    0  0.33560097329E+02 -0.21120743106E+02 -0.57309539064E+02  0.69690380899E+02  0.00000000000E+00 0.  1.
         13    1    3    3    0    0 -0.29190914958E+02  0.22363168760E+02 -0.12533048276E+01  0.36793907187E+02  0.00000000000E+00 0. -1.
          1    1    1    2  501    0 -0.17134659516E+02 -0.20098124759E+02  0.27904398302E+02  0.38421174112E+02  0.00000000000E+00 0. -1.
<scales pt_clust_5="13000.00000" pt_clust_6="13000.00000" pt_clust_7="13000.00000" pt_clust_8="13000.00000" pt_clust_9="26.41082"></scales>
<clustering>
<clus scale="   26.411">  1  9  2 -1</clus>
<clus scale="   88.818">  7  8 -1 -1</clus>
<clus scale="   88.962">  2  7  1 -1</clus>
<clus scale="   91.033">  5  6 -1 -1</clus>
<clus scale="   26.411">  1  5  2 -1</clus>
</clustering>
</event>
<event>
 9    1  0.1426358E-005  0.2403251E+03  0.7546771E-02  0.1119595E+00
         21   -1    0    0  501  502  0.00000000000E+00  0.00000000000E+00  0.84119571031E+02  0.84119571031E+02  0.00000000000E+00 0. -1.
          2   -1    0    0  502    0 -0.00000000000E+00 -0.00000000000E+00 -0.78116817897E+03  0.78116817897E+03  0.00000000000E+00 0. -1.
         23    2    1    2    0    0 -0.17446893405E+03  0.14691533851E+03 -0.42902020332E+03  0.49477185278E+03  0.93366620422E+02 0.  0.
         23    2    1    2    0    0  0.15317036128E+03 -0.14638747349E+03 -0.22636102617E+03  0.32371762513E+03  0.93077036274E+02 0.  0.
        -11    1    3    3    0    0 -0.13645095314E+03  0.12847249877E+03 -0.25972443058E+03  0.32028241506E+03  0.00000000000E+00 0. -1.
         11    1    3    3    0    0 -0.38017980910E+02  0.18442839737E+02 -0.16929577273E+03  0.17448943772E+03  0.00000000000E+00 0.  1.
        -13    1    4    4    0    0  0.78381100269E+02 -0.54981761664E+02 -0.16465061031E+03  0.19046368281E+03  0.00000000000E+00 0.  1.
         13    1    4    4    0    0  0.74789261014E+02 -0.91405711826E+02 -0.61710415854E+02  0.13325394231E+03  0.00000000000E+00 0. -1.
          2    1    1    2  501    0  0.21298572768E+02 -0.52786502182E+00 -0.41667378457E+02  0.46798272093E+02  0.00000000000E+00 0. -1.
<scales pt_clust_5="13000.00000" pt_clust_6="13000.00000" pt_clust_7="13000.00000" pt_clust_8="13000.00000" pt_clust_9="21.30512"></scales>
<clustering>
<clus scale="   21.305">  1  9  2 -1</clus>
<clus scale="   93.077">  7  8 -1 -1</clus>
<clus scale="   93.367">  5  6 -1 -1</clus>
<clus scale="  240.213">  1  7  2 -1</clus>
<clus scale="   21.305">  1  5  2 -1</clus>
</clustering>
</event>
<event>
 9    1  0.1426358E-005  0.9434872E+02  0.7546771E-02  0.1293436E+00
          2   -1    0    0  502    0 -0.00000000000E+00  0.00000000000E+00  0.77071881843E+03  0.77071881843E+03  0.00000000000E+00 0. -1.
         21   -1    0    0  501  502  0.00000000000E+00 -0.00000000000E+00 -0.21553511988E+02  0.21553511988E+02  0.00000000000E+00 0. -1.
         23    2    1    2    0    0  0.38221327959E+01 -0.19000418686E+02  0.47362865913E+03  0.48321440325E+03  0.93789275220E+02 0.  0.
         23    2    1    2    0    0 -0.43760905510E+00 -0.46902604008E+01  0.26867623383E+03  0.28416277605E+03  0.92408736726E+02 0.  0.
        -11    1    4    4    0    0 -0.38986471683E+02 -0.67503407222E+01  0.21153478368E+03  0.21520333821E+03  0.00000000000E+00 0. -1.
         11    1    4    4    0    0  0.38548862628E+02  0.20600803214E+01  0.57141450151E+02  0.68959437832E+02  0.00000000000E+00 0.  1.
        -13    1    3    3    0    0  0.34829443504E+02 -0.43619817204E+02  0.29738994100E+03  0.30258313832E+03  0.00000000000E+00 0. -1.
         13    1    3    3    0    0 -0.31007310708E+02  0.24619398519E+02  0.17623871813E+03  0.18063126493E+03  0.00000000000E+00 0.  1.
          2    1    1    2  501    0 -0.33845237408E+01  0.23690679086E+02  0.68604134902E+01  0.24895151130E+02  0.00000000000E+00 0. -1.
<scales pt_clust_5="13000.00000" pt_clust_6="13000.00000" pt_clust_7="13000.00000" pt_clust_8="13000.00000" pt_clust_9="23.93122"></scales>
<clustering>
<clus scale="   23.931">  2  9  1 -1</clus>
<clus scale="   92.409">  5  6 -1 -1</clus>
<clus scale="   92.976">  2  5  1 -1</clus>
<clus scale="   93.789">  7  8 -1 -1</clus>
<clus scale="   23.931">  2  5  1 -1</clus>
</clustering>
</event>
<event>
 9    1  0.1426358E-005  0.9740753E+02  0.7546771E-02  0.1286681E+00
         21   -1    0    0  501  502  0.00000000000E+00  0.00000000000E+00  0.67956583706E+02  0.67956583706E+02  0.00000000000E+00 0.  1.
          1   -1    0    0  502    0 -0.00000000000E+00 -0.00000000000E+00 -0.33479059499E+03  0.33479059499E+03  0.00000000000E+00 0. -1.
         23    2    1    2    0    0 -0.16891572409E+01  0.32935415459E+02 -0.19031199200E+03  0.21383067511E+03  0.91745890770E+02 0.  0.
         23    2    1    2    0    0  0.19499922096E+02 -0.16496723807E+02 -0.11068976778E+03  0.14702510871E+03  0.93336857908E+02 0.  0.
        -11    1    4    4    0    0  0.34658050930E+02 -0.43917353736E+02 -0.37335023656E+02  0.67259337232E+02  0.00000000000E+00 0.  1.
         11    1    4    4    0    0 -0.15158128835E+02  0.27420629928E+02 -0.73354744119E+02  0.79765771483E+02  0.00000000000E+00 0. -1.
        -11    1    3    3    0    0  0.97836497072E+01  0.56121703750E+02 -0.17437818760E+03  0.18344786110E+03  0.00000000000E+00 0. -1.
         11    1    3    3    0    0 -0.11472806948E+02 -0.23186288292E+02 -0.15933804405E+02  0.30382814005E+02  0.00000000000E+00 0.  1.
          1    1    1    2  501    0 -0.17810764855E+02 -0.16438691651E+02  0.34167748491E+02  0.41891394878E+02  0.00000000000E+00 0. -1.
<scales pt_clust_5="13000.00000" pt_clust_6="13000.00000" pt_clust_7="13000.00000" pt_clust_8="13000.00000" pt_clust_9="24.23745"></scales>
<clustering>
<clus scale="   24.237">  1  9  2 -1</clus>
<clus scale="   91.746">  7  8 -1 -1</clus>
<clus scale="   93.337">  5  6 -1 -1</clus>
<clus scale="   95.884">  2  7  1 -1</clus>
<clus scale="   24.237">  1  5  2 -1</clus>
</clustering>
</event>
<event>
 9    1  0.1426358E-005  0.1255323E+03  0.7546771E-02  0.1234806E+00
          1   -1    0    0  502    0 -0.00000000000E+00  0.00000000000E+00  0.41061776870E+03  0.41061776870E+03  0.00000000000E+00 0. -1.
         21   -1    0    0  501  502  0.00000000000E+00 -0.00000000000E+00 -0.47418073465E+02  0.47418073465E+02  0.00000000000E+00 0.  1.
         23    2    1    2    0    0 -0.94012302816E+02  0.18294283626E+02  0.21246965147E+03  0.25045129332E+03  0.91703345814E+02 0.  0.
         23    2    1    2    0    0  0.74259632128E+02 -0.88908002555E+01  0.14241120987E+03  0.18417949606E+03  0.89708387438E+02 0.  0.
        -11    1    4    4    0    0 -0.19839691175E+02  0.30647939316E+01  0.38931569638E+02  0.43802664557E+02  0.00000000000E+00 0.  1.
         11    1    4    4    0    0  0.94099323303E+02 -0.11955594187E+02  0.10347964024E+03  0.14037683150E+03  0.00000000000E+00 0. -1.
        -13    1    3    3    0    0 -0.90229303012E+00 -0.26234331900E+02  0.68094634780E+02  0.72978994161E+02  0.00000000000E+00 0. -1.
         13    1    3    3    0    0 -0.93110009786E+02  0.44528615526E+02  0.14437501669E+03  0.17747229916E+03  0.00000000000E+00 0.  1.
          1    1    1    2  501    0  0.19752670688E+02 -0.94034833706E+01  0.83188338854E+01  0.23405052788E+02  0.00000000000E+00 0. -1.
<scales pt_clust_5="13000.00000" pt_clust_6="13000.00000" pt_clust_7="13000.00000" pt_clust_8="13000.00000" pt_clust_9="21.87678"></scales>
<clustering>
<clus scale="   21.877">  2  9  1 -1</clus>
<clus scale="   89.708">  5  6 -1 -1</clus>
<clus scale="   91.703">  7  8 -1 -1</clus>
<clus scale="  124.082">  2  5  1 -1</clus>
<clus scale="   21.877">  2  5  1 -1</clus>
</clustering>
</event>
<event>
 9    1  0.1426358E-005  0.1580082E+03  0.7546771E-02  0.1211936E+00
          1   -1    0    0  502    0 -0.00000000000E+00  0.00000000000E+00  0.49392902093E+03  0.49392902093E+03  0.00000000000E+00 0. -1.
         21   -1    0    0  501  502  0.00000000000E+00 -0.00000000000E+00 -0.19311093072E+03  0.19311093072E+03  0.00000000000E+00 0.  1.
         23    2    1    2    0    0  0.39802106883E+02  0.29679623268E+02 -0.46843587979E+02  0.11070689529E+03  0.87158517546E+02 0.  0.
         23    2    1    2    0    0  0.77349786095E+01  0.95098351629E+02  0.40886315501E+03  0.42944895823E+03  0.90298404323E+02 0.  0.
        -13    1    4    4    0    0 -0.20021568869E+02  0.65404737397E+02  0.35731645447E+03  0.36380446882E+03  0.00000000000E+00 0. -1.
         13    1    4    4    0    0  0.27756547479E+02  0.29693614232E+02  0.51546700539E+02  0.65644489415E+02  0.00000000000E+00 0.  1.
        -13    1    3    3    0    0  0.61933912994E+02  0.40236807373E+02 -0.44129867232E+02  0.86036361082E+02  0.00000000000E+00 0.  1.
         13    1    3    3    0    0 -0.22131806111E+02 -0.10557184105E+02 -0.27137207474E+01  0.24670534211E+02  0.00000000000E+00 0. -1.
          1    1    1    2  501    0 -0.47537085493E+02 -0.12477797490E+03 -0.61201476826E+02  0.14688409813E+03  0.00000000000E+00 0. -1.
<scales pt_clust_5="13000.00000" pt_clust_6="13000.00000" pt_clust_7="13000.00000" pt_clust_8="13000.00000" pt_clust_9="129.66409"></scales>
<clustering>
<clus scale="   87.159">  7  8 -1 -1</clus>
<clus scale="   90.298">  5  6 -1 -1</clus>
<clus scale="  100.308">  1  7  2 -1</clus>
<clus scale="  129.664">  2  9  1 -1</clus>
<clus scale="  129.664">  2  5  1 -1</clus>
</clustering>
</event>
<event>
 9    1  0.1426358E-005  0.1047685E+03  0.7546771E-02  0.1272732E+00
          1   -1    0    0  502    0 -0.00000000000E+00  0.00000000000E+00  0.10673148944E+03  0.10673148944E+03  0.00000000000E+00 0. -1.
         21   -1    0    0  501  502  0.00000000000E+00 -0.00000000000E+00 -0.33576186185E+03  0.33576186185E+03  0.00000000000E+00 0. -1.
         23    2    1    2    0    0 -0.45444398485E+02  0.16345864925E-01  0.52772140624E+02  0.11207328436E+03  0.87808476922E+02 0.  0.
         23    2    1    2    0    0  0.64539396073E+02 -0.13290613455E+02 -0.11398706120E+03  0.16100090925E+03  0.92662120673E+02 0.  0.
        -13    1    4    4    0    0  0.26754886419E+01  0.34813734279E+02 -0.28903776252E+02  0.45327503964E+02  0.00000000000E+00 0. -1.
         13    1    4    4    0    0  0.61863907431E+02 -0.48104347734E+02 -0.85083284948E+02  0.11567340529E+03  0.00000000000E+00 0.  1.
        -13    1    3    3    0    0 -0.30348137509E+02 -0.32375465347E+02 -0.44610399828E+01  0.44599115287E+02  0.00000000000E+00 0.  1.
         13    1    3    3    0    0 -0.15096260976E+02  0.32391811212E+02  0.57233180607E+02  0.67474169068E+02  0.00000000000E+00 0. -1.
          1    1    1    2  501    0 -0.19094997588E+02  0.13274267590E+02 -0.16781545184E+03  0.16941915768E+03  0.00000000000E+00 0. -1.
<scales pt_clust_5="13000.00000" pt_clust_6="13000.00000" pt_clust_7="13000.00000" pt_clust_8="13000.00000" pt_clust_9="23.25565"></scales>
<clustering>
<clus scale="   23.256">  2  9  1 -1</clus>
<clus scale="   87.808">  7  8 -1 -1</clus>
<clus scale="   92.662">  5  6 -1 -1</clus>
<clus scale="  100.501">  1  7  2 -1</clus>
<clus scale="   23.256">  2  5  1 -1</clus>
</clustering>
</event>
<event>
 9    1  0.1426358E-005  0.1035473E+03  0.7546771E-02  0.1277281E+00
         21   -1    0    0  501  502  0.00000000000E+00  0.00000000000E+00  0.24516430082E+03  0.24516430082E+03  0.00000000000E+00 0.  1.
          3   -1    0    0  502    0 -0.00000000000E+00 -0.00000000000E+00 -0.97035011310E+02  0.97035011310E+02  0.00000000000E+00 0. -1.
         23    2    1    2    0    0 -0.14586761381E+02  0.36471954070E+02 -0.26985147789E+02  0.10590941275E+03  0.94581332543E+02 0.  0.
         23    2    1    2    0    0  0.37729714320E+02 -0.34924798866E+02  0.55062181780E+02  0.11401752305E+03  0.85585505672E+02 0.  0.
        -11    1    4    4    0    0  0.22245831389E+02  0.13465732877E+01 -0.19535379994E+02  0.29636486723E+02  0.00000000000E+00 0. -1.
         11    1    4    4    0    0  0.15483882932E+02 -0.36271372154E+02  0.74597561775E+02  0.84381036325E+02  0.00000000000E+00 0.  1.
        -11    1    3    3    0    0 -0.24807461034E+02  0.59276133490E+02  0.59882397387E+01  0.64536262207E+02  0.00000000000E+00 0. -1.
         11    1    3    3    0    0  0.10220699653E+02 -0.22804179420E+02 -0.32973387527E+02  0.41373150538E+02  0.00000000000E+00 0.  1.
          3    1    1    2  501    0 -0.23142952940E+02 -0.15471552035E+01  0.12005225552E+03  0.12227237634E+03  0.00000000000E+00 0. -1.
<scales pt_clust_5="13000.00000" pt_clust_6="13000.00000" pt_clust_7="13000.00000" pt_clust_8="13000.00000" pt_clust_9="23.19461"></scales>
<clustering>
<clus scale="   23.195">  1  9  2 -1</clus>
<clus scale="   85.586">  5  6 -1 -1</clus>
<clus scale="   94.581">  7  8 -1 -1</clus>
<clus scale="   95.401">  1  5  2 -1</clus>
<clus scale="   23.195">  1  5  2 -1</clus>
</clustering>
</event>
<event>
 9    1  0.1426358E-005  0.9838219E+02  0.7546771E-02  0.1284015E+00
         21   -1    0    0  501  502  0.00000000000E+00  0.00000000000E+00  0.17257415874E+03  0.17257415874E+03  0.00000000000E+00 0.  1.
          1   -1    0    0  502    0 -0.00000000000E+00 -0.00000000000E+00 -0.75574817536E+02  0.75574817536E+02  0.00000000000E+00 0. -1.
         23    2    1    2    0    0  0.14319392294E+02 -0.30506416653E+02  0.40271116213E+02  0.10437635736E+03  0.90205181239E+02 0.  0.
         23    2    1    2    0    0  0.92073648728E+01  0.48586362437E+02  0.45800211830E+02  0.11215277998E+03  0.89639145865E+02 0.  0.
        -11    1    3    3    0    0  0.36430581361E+02 -0.51374733288E+02  0.38724310168E+02  0.73933231207E+02  0.00000000000E+00 0.  1.
         11    1    3    3    0    0 -0.22111189066E+02  0.20868316635E+02  0.15468060451E+01  0.30443126155E+02  0.00000000000E+00 0. -1.
        -11    1    4    4    0    0  0.41902108202E+02  0.45544490030E+02  0.49309656807E+02  0.79129826856E+02  0.00000000000E+00 0. -1.
         11    1    4    4    0    0 -0.32694743330E+02  0.30418724067E+01 -0.35094449770E+01  0.33022953126E+02  0.00000000000E+00 0.  1.
          1    1    1    2  501    0 -0.23526757167E+02 -0.18079945784E+02  0.10928013159E+02  0.31619838930E+02  0.00000000000E+00 0. -1.
<scales pt_clust_5="13000.00000" pt_clust_6="13000.00000" pt_clust_7="13000.00000" pt_clust_8="13000.00000" pt_clust_9="29.67143"></scales>
<clustering>
<clus scale="   29.671">  1  9  2 -1</clus>
<clus scale="   89.639">  7  8 -1 -1</clus>
<clus scale="   90.205">  5  6 -1 -1</clus>
<clus scale="   97.863">  1  7  2 -1</clus>
<clus scale="   29.671">  1  5  2 -1</clus>
</clustering>
</event>
<event>
 9    1  0.1426358E-005  0.9990708E+02  0.7546771E-02  0.1281360E+00
          1   -1    0    0  502    0 -0.00000000000E+00  0.00000000000E+00  0.65781540546E+03  0.65781540546E+03  0.00000000000E+00 0. -1.
         21   -1    0    0  501  502  0.00000000000E+00 -0.00000000000E+00 -0.42593942208E+02  0.42593942208E+02  0.00000000000E+00 0. -1.
         23    2    1    2    0    0 -0.42901126347E+02  0.21911275977E+02  0.36780631096E+03  0.38246155040E+03  0.93138308427E+02 0.  0.
         23    2    1    2    0    0  0.16804615575E+02 -0.16704607850E+02  0.26810489834E+03  0.28424018895E+03  0.91382763555E+02 0.  0.
        -13    1    3    3    0    0  0.26298388412E+02  0.16947439079E+02  0.69878529504E+02  0.76562587535E+02  0.00000000000E+00 0. -1.
         13    1    3    3    0    0 -0.69199514758E+02  0.49638368979E+01  0.29792778145E+03  0.30589896286E+03  0.00000000000E+00 0.  1.
        -13    1    4    4    0    0 -0.37774017384E+02 -0.37678488070E+01  0.96365936499E+02  0.10357348498E+03  0.00000000000E+00 0.  1.
         13    1    4    4    0    0  0.54578632959E+02 -0.12936759043E+02  0.17173896184E+03  0.18066670397E+03  0.00000000000E+00 0. -1.
          1    1    1    2  501    0  0.26096510772E+02 -0.52066681276E+01 -0.20689746040E+02  0.33707608320E+02  0.00000000000E+00 0. -1.
<scales pt_clust_5="13000.00000" pt_clust_6="13000.00000" pt_clust_7="13000.00000" pt_clust_8="13000.00000" pt_clust_9="26.61085"></scales>
<clustering>
<clus scale="   26.611">  2  9  1 -1</clus>
<clus scale="   91.383">  7  8 -1 -1</clus>
<clus scale="   93.138">  5  6 -1 -1</clus>
<clus scale="   98.273">  2  7  1 -1</clus>
<clus scale="   26.611">  2  5  1 -1</clus>
</clustering>
</event>
<event>
 9    1  0.1426358E-005  0.1108892E+03  0.7546771E-02  0.1259386E+00
         21   -1    0    0  501  502  0.00000000000E+00  0.00000000000E+00  0.42230754771E+03  0.42230754771E+03  0.00000000000E+00 0.  1.
         -1   -1    0    0    0  501 -0.00000000000E+00 -0.00000000000E+00 -0.92272137506E+02  0.92272137506E+02  0.00000000000E+00 0.  1.
         23    2    1    2    0    0 -0.20984320712E+02  0.42963006479E+02 -0.23341762261E+02  0.10986838077E+03  0.96125239065E+02 0.  0.
         23    2    1    2    0    0  0.23357689284E+02 -0.82970195380E+02  0.14972785716E+03  0.19715588615E+03  0.94986195122E+02 0.  0.
        -11    1    4    4    0    0 -0.21628430460E+02 -0.38500907279E+02  0.12256120949E+02  0.45829263208E+02  0.00000000000E+00 0.  1.
         11    1    4    4    0    0  0.44986119744E+02 -0.44469288100E+02  0.13747173622E+03  0.15132662294E+03  0.00000000000E+00 0. -1.
        -11    1    3    3    0    0  0.28465258395E+02 -0.13982101227E+02 -0.10194648598E+02  0.33312174205E+02  0.00000000000E+00 0. -1.
         11    1    3    3    0    0 -0.49449579107E+02  0.56945107706E+02 -0.13147113663E+02  0.76556206562E+02  0.00000000000E+00 0.  1.
         -1    1    1    2    0  502 -0.23733685724E+01  0.40007188901E+02  0.20364931530E+03  0.20755541829E+03  0.00000000000E+00 0.  1.
<scales pt_clust_5="13000.00000" pt_clust_6="13000.00000" pt_clust_7="13000.00000" pt_clust_8="13000.00000" pt_clust_9="40.07753"></scales>
<clustering>
<clus scale="   40.078">  1  9  2 -1</clus>
<clus scale="   94.986">  5  6 -1 -1</clus>
<clus scale="   96.125">  7  8 -1 -1</clus>
<clus scale="  109.903">  1  5  2 -1</clus>
<clus scale="   40.078">  1  5  2 -1</clus>
</clustering>
</event>
<event>
 9    1  0.1426358E-005  0.1223108E+03  0.7546771E-02  0.1241147E+00
         21   -1    0    0  501  502  0.00000000000E+00  0.00000000000E+00  0.68266394397E+02  0.68266394397E+02  0.00000000000E+00 0. -1.
          1   -1    0    0  502    0 -0.00000000000E+00 -0.00000000000E+00 -0.40147718557E+03  0.40147718557E+03  0.00000000000E+00 0. -1.
         23    2    1    2    0    0  0.45165575323E+02  0.57749462725E+02 -0.19432829554E+03  0.22823118571E+03  0.94610031410E+02 0.  0.
         23    2    1    2    0    0 -0.40322989768E+01 -0.93592603835E+02 -0.13504171836E+03  0.18681843885E+03  0.88820203061E+02 0.  0.
        -11    1    4    4    0    0 -0.29888568270E+02 -0.10440986092E+01 -0.51183021196E+02  0.59279999274E+02  0.00000000000E+00 0.  1.
         11    1    4    4    0    0  0.25856269293E+02 -0.92548505226E+02 -0.83858697161E+02  0.12753843958E+03  0.00000000000E+00 0. -1.
        -13    1    3    3    0    0  0.42014532031E+02  0.20679465414E+02 -0.21649946107E+02  0.51590516164E+02  0.00000000000E+00 0. -1.
         13    1    3    3    0    0  0.31510432920E+01  0.37069997311E+02 -0.17267834943E+03  0.17664066954E+03  0.00000000000E+00 0.  1.
          1    1    1    2  501    0 -0.41133276346E+02  0.35843141110E+02 -0.38407772786E+01  0.54693955404E+02  0.00000000000E+00 0. -1.
<scales pt_clust_5="13000.00000" pt_clust_6="13000.00000" pt_clust_7="13000.00000" pt_clust_8="13000.00000" pt_clust_9="54.55893"></scales>
<clustering>
<clus scale="   54.559">  1  9  2 -1</clus>
<clus scale="   88.820">  5  6 -1 -1</clus>
<clus scale="   94.610">  7  8 -1 -1</clus>
<clus scale="  117.889">  1  5  2 -1</clus>
<clus scale="   54.559">  1  5  2 -1</clus>
</clustering>
</event>
<event>
 9    1  0.1426358E-005  0.2337637E+03  0.7546771E-02  0.1124148E+00
         21   -1    0    0  501  502  0.00000000000E+00  0.00000000000E+00  0.10204410152E+04  0.10204410152E+04  0.00000000000E+00 0. -1.
          2   -1    0    0  502    0 -0.00000000000E+00 -0.00000000000E+00 -0.30945750607E+03  0.30945750607E+03  0.00000000000E+00 0. -1.
         23    2    1    2    0    0  0.21141869542E+03 -0.77019933669E+02 -0.22465440298E+03  0.33114999037E+03  0.92524485315E+02 0.  0.
         23    2    1    2    0    0 -0.12578171656E+03  0.10467137003E+03  0.27854966773E+03  0.33552665627E+03  0.90615030485E+02 0.  0.
        -11    1    3    3    0    0  0.28733253642E+02 -0.14250863009E+02  0.34322590777E+01  0.32256276346E+02  0.00000000000E+00 0.  1.
         11    1    3    3    0    0  0.18268544178E+03 -0.62769070659E+02 -0.22808666206E+03  0.29889371402E+03  0.00000000000E+00 0. -1.
        -13    1    4    4    0    0 -0.90173472064E+02  0.11660318807E+03  0.19988658708E+03  0.24835902687E+03  0.00000000000E+00 0. -1.
         13    1    4    4    0    0 -0.35608244495E+02 -0.11931818043E+02  0.78663080645E+02  0.87167629395E+02  0.00000000000E+00 0.  1.
          2    1    1    2  501    0 -0.85636978863E+02 -0.27651436363E+02  0.65708824434E+03  0.66322187459E+03  0.00000000000E+00 0. -1.
<scales pt_clust_5="13000.00000" pt_clust_6="13000.00000" pt_clust_7="13000.00000" pt_clust_8="13000.00000" pt_clust_9="89.99052"></scales>
<clustering>
<clus scale="   89.991">  1  9  2 -1</clus>
<clus scale="   90.615">  7  8 -1 -1</clus>
<clus scale="   92.524">  5  6 -1 -1</clus>
<clus scale="  233.014">  1  7  2 -1</clus>
<clus scale="   89.991">  1  5  2 -1</clus>
</clustering>
</event>
<event>
 9    1  0.1426358E-005  0.2184530E+03  0.7546771E-02  0.1166286E+00
         21   -1    0    0  501  502  0.00000000000E+00  0.00000000000E+00  0.38963575913E+03  0.38963575913E+03  0.00000000000E+00 0. -1.
         -1   -1    0    0    0  501 -0.00000000000E+00 -0.00000000000E+00 -0.43393919441E+03  0.43393919441E+03  0.00000000000E+00 0.  1.
         23    2    1    2    0    0  0.89274511575E+01 -0.46105667912E+02 -0.22686041928E+03  0.24967648622E+03  0.93098152155E+02 0.  0.
         23    2    1    2    0    0 -0.87345318333E+02  0.18913768195E+03  0.29777695799E+03  0.37419077758E+03  0.89136714931E+02 0.  0.
        -11    1    4    4    0    0 -0.30168818693E+02  0.53575370642E+02  0.29449145863E+02  0.68174263126E+02  0.00000000000E+00 0.  1.
         11    1    4    4    0    0 -0.57176499640E+02  0.13556231131E+03  0.26832781213E+03  0.30601651446E+03  0.00000000000E+00 0. -1.
        -13    1    3    3    0    0 -0.34434803448E+02 -0.34408301296E+02 -0.17210998689E+03  0.17886177477E+03  0.00000000000E+00 0.  1.
         13    1    3    3    0    0  0.43362254606E+02 -0.11697366616E+02 -0.54750432397E+02  0.70814711451E+02  0.00000000000E+00 0. -1.
         -1    1    1    2    0  502  0.78417867176E+02 -0.14303201404E+03 -0.11521997399E+03  0.19970768973E+03  0.00000000000E+00 0.  1.
<scales pt_clust_5="13000.00000" pt_clust_6="13000.00000" pt_clust_7="13000.00000" pt_clust_8="13000.00000" pt_clust_9="199.44020"></scales>
<clustering>
<clus scale="   89.137">  5  6 -1 -1</clus>
<clus scale="   93.098">  7  8 -1 -1</clus>
<clus scale="  104.272">  2  7  1 -1</clus>
<clus scale="  199.440">  1  9  2 -1</clus>
<clus scale="  199.440">  1  5  2 -1</clus>
</clustering>
</event>
<event>
 9    1  0.1426358E-005  0.1403391E+03  0.7546771E-02  0.1212972E+00
          4   -1    0    0  502    0 -0.00000000000E+00  0.00000000000E+00  0.62412602370E+02  0.62412602370E+02  0.00000000000E+00 0.  1.
         21   -1    0    0  501  502  0.00000000000E+00 -0.00000000000E+00 -0.86796839180E+03  0.86796839180E+03  0.00000000000E+00 0. -1.
         23    2    1    2    0    0 -0.18974264315E+01 -0.12518373839E+03 -0.71216098630E+02  0.17064359767E+03  0.91503749311E+02 0.  0.
         23    2    1    2    0    0 -0.22876940319E+02  0.57540582573E+02 -0.30223192515E+03  0.32166607022E+03  0.91053012622E+02 0.  0.
        -11    1    3    3    0    0  0.24802191968E+02 -0.90306767781E+02 -0.83031533746E+02  0.12515868579E+03  0.00000000000E+00 0. -1.
         11    1    3    3    0    0 -0.26699618400E+02 -0.34876970606E+02  0.11815435116E+02  0.45484911876E+02  0.00000000000E+00 0.  1.
        -11    1    4    4    0    0  0.84797136199E+01  0.65334350303E+02 -0.26151858840E+03  0.26968955291E+03  0.00000000000E+00 0.  1.
         11    1    4    4    0    0 -0.31356653939E+02 -0.77937677292E+01 -0.40713336758E+02  0.51976517309E+02  0.00000000000E+00 0. -1.
          4    1    1    2  501    0  0.24774366751E+02  0.67643155814E+02 -0.43210776565E+03  0.43807132628E+03  0.00000000000E+00 0.  1.
<scales pt_clust_5="13000.00000" pt_clust_6="13000.00000" pt_clust_7="13000.00000" pt_clust_8="13000.00000" pt_clust_9="72.03725"></scales>
<clustering>
<clus scale="   72.037">  2  9  1 -1</clus>
<clus scale="   91.053">  7  8 -1 -1</clus>
<clus scale="   91.504">  5  6 -1 -1</clus>
<clus scale="  140.046">  2  7  1 -1</clus>
<clus scale="   72.037">  2  5  1 -1</clus>
</clustering>
</event>
<event>
 9    1  0.1426358E-005  0.1545339E+03  0.7546771E-02  0.1195337E+00
         21   -1    0    0  501  502  0.00000000000E+00  0.00000000000E+00  0.36255855184E+03  0.36255855184E+03  0.00000000000E+00 0. -1.
          2   -1    0    0  502    0 -0.00000000000E+00 -0.00000000000E+00 -0.10608189654E+03  0.10608189654E+03  0.00000000000E+00 0. -1.
         23    2    1    2    0    0 -0.11080037301E+03  0.69186342768E+02  0.25918569981E+02  0.16095099520E+03  0.90387930069E+02 0.  0.
         23    2    1    2    0    0  0.69189390706E+02 -0.10013832850E+03  0.15486780445E+03  0.21593697154E+03  0.88486621587E+02 0.  0.
        -11    1    3    3    0    0 -0.10858245128E+03  0.32695224568E+02 -0.43600724920E+01  0.11348187814E+03  0.00000000000E+00 0. -1.
         11    1    3    3    0    0 -0.22179217317E+01  0.36491118200E+02  0.30278642473E+02  0.47469117058E+02  0.00000000000E+00 0.  1.
        -11    1    4    4    0    0  0.45334968016E+02 -0.11410572503E+03  0.12406680158E+03  0.17455070056E+03  0.00000000000E+00 0. -1.
         11    1    4    4    0    0  0.23854422690E+02  0.13967396534E+02  0.30801002872E+02  0.41386270981E+02  0.00000000000E+00 0.  1.
          2    1    1    2  501    0  0.41610982303E+02  0.30951985731E+02  0.75690280868E+02  0.91752481639E+02  0.00000000000E+00 0. -1.
<scales pt_clust_5="13000.00000" pt_clust_6="13000.00000" pt_clust_7="13000.00000" pt_clust_8="13000.00000" pt_clust_9="51.86038"></scales>
<clustering>
<clus scale="   51.860">  1  9  2 -1</clus>
<clus scale="   88.487">  7  8 -1 -1</clus>
<clus scale="   90.388">  5  6 -1 -1</clus>
<clus scale="  153.430">  1  7  2 -1</clus>
<clus scale="   51.860">  1  5  2 -1</clus>
</clustering>
</event>
<event>
 9    1  0.1426358E-005  0.9269467E+02  0.7546771E-02  0.1296724E+00
          1   -1    0    0  502    0 -0.00000000000E+00  0.00000000000E+00  0.11757620208E+03  0.11757620208E+03  0.00000000000E+00 0. -1.
         21   -1    0    0  501  502  0.00000000000E+00 -0.00000000000E+00 -0.11544485414E+03  0.11544485414E+03  0.00000000000E+00 0.  1.
         23    2    1    2    0    0 -0.34259291338E+01  0.29478182118E+01  0.26502813042E+02  0.95227345510E+02  0.91353279148E+02 0.  0.
         23    2    1    2    0    0  0.32379396735E+02  0.79575069021E+01  0.24627630585E+01  0.96838794006E+02  0.90884209704E+02 0.  0.
        -11    1    4    4    0    0  0.16540210321E+02 -0.17682224039E+02 -0.38804244824E+02  0.45738485117E+02  0.00000000000E+00 0.  1.
         11    1    4    4    0    0  0.15839186414E+02  0.25639730941E+02  0.41267007882E+02  0.51100308889E+02  0.00000000000E+00 0. -1.
        -13    1    3    3    0    0 -0.29688645094E+01 -0.43553256615E+02  0.20862229047E+02  0.48383188393E+02  0.00000000000E+00 0. -1.
         13    1    3    3    0    0 -0.45706462441E+00  0.46501074827E+02  0.56405839947E+01  0.46844157117E+02  0.00000000000E+00 0.  1.
          1    1    1    2  501    0 -0.28953467601E+02 -0.10905325114E+02 -0.26834228159E+02  0.40954916711E+02  0.00000000000E+00 0. -1.
<scales pt_clust_5="13000.00000" pt_clust_6="13000.00000" pt_clust_7="13000.00000" pt_clust_8="13000.00000" pt_clust_9="30.93912"></scales>
<clustering>
<clus scale="   30.939">  2  9  1 -1</clus>
<clus scale="   90.884">  5  6 -1 -1</clus>
<clus scale="   91.353">  7  8 -1 -1</clus>
<clus scale="   92.232">  2  5  1 -1</clus>
<clus scale="   30.939">  2  5  1 -1</clus>
</clustering>
</event>
<event>
 9    1  0.1426358E-005  0.1214506E+03  0.7546771E-02  0.1250212E+00
          4   -1    0    0  502    0 -0.00000000000E+00  0.00000000000E+00  0.99843683486E+02  0.99843683486E+02  0.00000000000E+00 0. -1.
         21   -1    0    0  501  502  0.00000000000E+00 -0.00000000000E+00 -0.36604993448E+03  0.36604993448E+03  0.00000000000E+00 0.  1.
         23    2    1    2    0    0 -0.10712658918E+02  0.42652171269E+02  0.11540166482E+02  0.11830264421E+03  0.10921708387E+03 0.  0.
         23    2    1    2    0    0  0.37017802513E+02 -0.59724290647E+02 -0.56241196752E+02  0.12387691374E+03  0.85118205749E+02 0.  0.
        -11    1    4    4    0    0  0.53466608739E+02 -0.56118461115E+01 -0.29388467780E+02  0.61268695965E+02  0.00000000000E+00 0. -1.
         11    1    4    4    0    0 -0.16448806226E+02 -0.54112444536E+02 -0.26852728972E+02  0.62608217776E+02  0.00000000000E+00 0.  1.
        -13    1    3    3    0    0 -0.48634076571E+02  0.58215848705E+02  0.14399375213E+02  0.77212048612E+02  0.00000000000E+00 0. -1.
         13    1    3    3    0    0  0.37921417653E+02 -0.15563677437E+02 -0.28592087311E+01  0.41090595599E+02  0.00000000000E+00 0.  1.
          4    1    1    2  501    0 -0.26305143595E+02  0.17072119378E+02 -0.22150522072E+03  0.22371406001E+03  0.00000000000E+00 0. -1.
<scales pt_clust_5="13000.00000" pt_clust_6="13000.00000" pt_clust_7="13000.00000" pt_clust_8="13000.00000" pt_clust_9="31.35949"></scales>
<clustering>
<clus scale="   31.359">  2  9  1 -1</clus>
<clus scale="   85.118">  5  6 -1 -1</clus>
<clus scale="  100.334">  2  5  1 -1</clus>
<clus scale="  109.217">  7  8 -1 -1</clus>
<clus scale="   31.359">  2  5  1 -1</clus>
</clustering>
</event>
<event>
 9    1  0.1426358E-005  0.1061398E+03  0.7546771E-02  0.1267950E+00
         21   -1    0    0  501  502  0.00000000000E+00  0.00000000000E+00  0.10743712435E+03  0.10743712435E+03  0.00000000000E+00 0. -1.
         -1   -1    0    0    0  501 -0.00000000000E+00 -0.00000000000E+00 -0.27892104583E+03  0.27892104583E+03  0.00000000000E+00 0.  1.
         23    2    1    2    0    0 -0.52563057218E+02  0.13300633754E+02 -0.22064403991E+03  0.24519421708E+03  0.92177165808E+02 0.  0.
         23    2    1    2    0    0  0.36958643099E+02 -0.31051862830E+02  0.24036529695E+02  0.10667049598E+03  0.92036299727E+02 0.  0.
        -11    1    3    3    0    0  0.19377745783E+01 -0.33011368847E+02 -0.95391223933E+02  0.10096034393E+03  0.00000000000E+00 0. -1.
         11    1    3    3    0    0 -0.54500831796E+02  0.46312002601E+02 -0.12525281598E+03  0.14423387315E+03  0.00000000000E+00 0.  1.
        -11    1    4    4    0    0  0.60899154228E+02 -0.19401554057E+02 -0.86664255568E+01  0.64499877654E+02  0.00000000000E+00 0.  1.
         11    1    4    4    0    0 -0.23940511129E+02 -0.11650308773E+02  0.32702955252E+02  0.42170618324E+02  0.00000000000E+00 0. -1.
         -1    1    1    2    0  502  0.15604414118E+02  0.17751229076E+02  0.25123588731E+02  0.34493457125E+02  0.00000000000E+00 0.  1.
<scales pt_clust_5="13000.00000" pt_clust_6="13000.00000" pt_clust_7="13000.00000" pt_clust_8="13000.00000" pt_clust_9="23.63480"></scales>
<clustering>
<clus scale="   23.635">  1  9  2 -1</clus>
<clus scale="   92.036">  7  8 -1 -1</clus>
<clus scale="   92.177">  5  6 -1 -1</clus>
<clus scale="  106.017">  1  7  2 -1</clus>
<clus scale="   23.635">  1  5  2 -1</clus>
</clustering>
</event>
<event>
 9    1  0.1426358E-005  0.1930679E+03  0.7546771E-02  0.1155817E+00
         21   -1    0    0  501  502  0.00000000000E+00  0.00000000000E+00  0.33115608888E+03  0.33115608888E+03  0.00000000000E+00 0. -1.
          2   -1    0    0  502    0 -0.00000000000E+00 -0.00000000000E+00 -0.44125197029E+03  0.44125197029E+03  0.00000000000E+00 0. -1.
         23    2    1    2    0    0  0.89884323471E+00  0.18680352735E+03 -0.26261685802E+03  0.33555007446E+03  0.93433787278E+02 0.  0.
         23    2    1    2    0    0  0.36259267085E+02 -0.14116766513E+03 -0.84795377231E+02  0.19235356985E+03  0.92555905851E+02 0.  0.
        -11    1    4    4    0    0  0.49380157761E+02 -0.33378900198E+02 -0.51523700960E+02  0.78786056632E+02  0.00000000000E+00 0. -1.
         11    1    4    4    0    0 -0.13120890676E+02 -0.10778876493E+03 -0.33271676270E+02  0.11356751322E+03  0.00000000000E+00 0.  1.
        -13    1    3    3    0    0 -0.42625157017E+02  0.13094612995E+03 -0.18245865579E+03  0.22859342517E+03  0.00000000000E+00 0.  1.
         13    1    3    3    0    0  0.43524000252E+02  0.55857397399E+02 -0.80158202232E+02  0.10695664929E+03  0.00000000000E+00 0. -1.
          2    1    1    2  501    0 -0.37158110319E+02 -0.45635862220E+02  0.23731635384E+03  0.24450441486E+03  0.00000000000E+00 0. -1.
<scales pt_clust_5="13000.00000" pt_clust_6="13000.00000" pt_clust_7="13000.00000" pt_clust_8="13000.00000" pt_clust_9="58.85029"></scales>
<clustering>
<clus scale="   58.850">  1  9  2 -1</clus>
<clus scale="   92.556">  5  6 -1 -1</clus>
<clus scale="   93.434">  7  8 -1 -1</clus>
<clus scale="  192.645">  1  5  2 -1</clus>
<clus scale="   58.850">  1  5  2 -1</clus>
</clustering>
</event>
<event>
 9    1  0.1426358E-005  0.1060875E+03  0.7546771E-02  0.1268263E+00
          1   -1    0    0  502    0 -0.00000000000E+00  0.00000000000E+00  0.39264983111E+03  0.39264983111E+03  0.00000000000E+00 0. -1.
         21   -1    0    0  501  502  0.00000000000E+00 -0.00000000000E+00 -0.38171553018E+02  0.38171553018E+02  0.00000000000E+00 0.  1.
         23    2    1    2    0    0 -0.23972242264E+02 -0.37994649036E+02  0.15896081073E+03  0.18876990106E+03  0.91363419615E+02 0.  0.
         23    2    1    2    0    0  0.47662905348E+02  0.39974481298E+02  0.18560014926E+03  0.21629259234E+03  0.92007382279E+02 0.  0.
        -13    1    4    4    0    0  0.21633070284E+02  0.55675484747E+02  0.17363923568E+03  0.18362552519E+03  0.00000000000E+00 0. -1.
         13    1    4    4    0    0  0.26029835064E+02 -0.15701003449E+02  0.11960913581E+02  0.32667067154E+02  0.00000000000E+00 0.  1.
        -13    1    3    3    0    0 -0.27393235931E+02 -0.13361644250E+02  0.16096008951E+03  0.16382024700E+03  0.00000000000E+00 0. -1.
         13    1    3    3    0    0  0.34209936671E+01 -0.24633004787E+02 -0.19992787723E+01  0.24949654068E+02  0.00000000000E+00 0.  1.
          1    1    1    2  501    0 -0.23690663083E+02 -0.19798322616E+01  0.99173180936E+01  0.25758890723E+02  0.00000000000E+00 0. -1.
<scales pt_clust_5="13000.00000" pt_clust_6="13000.00000" pt_clust_7="13000.00000" pt_clust_8="13000.00000" pt_clust_9="23.77325"></scales>
<clustering>
<clus scale="   23.773">  2  9  1 -1</clus>
<clus scale="   91.363">  7  8 -1 -1</clus>
<clus scale="   92.007">  5  6 -1 -1</clus>
<clus scale="  105.530">  1  7  2 -1</clus>
<clus scale="   23.773">  2  5  1 -1</clus>
</clustering>
</event>
<event>
 9    1  0.1426358E-005  0.1016386E+03  0.7546771E-02  0.1278076E+00
         -1   -1    0    0    0  501 -0.00000000000E+00  0.00000000000E+00  0.19319900300E+03  0.19319900300E+03  0.00000000000E+00 0.  1.
         21   -1    0    0  501  502  0.00000000000E+00 -0.00000000000E+00 -0.10612208487E+03  0.10612208487E+03  0.00000000000E+00 0.  1.
         23    2    1    2    0    0 -0.47942430576E+02 -0.28489487822E+02  0.58676355108E+02  0.12254328954E+03  0.91998997797E+02 0.  0.
         23    2    1    2    0    0  0.37787410776E+02 -0.36049090112E+02  0.38795270891E+02  0.11062341510E+03  0.89470898142E+02 0.  0.
        -13    1    4    4    0    0  0.25713795857E+02  0.80816197075E+01 -0.21820325607E+02  0.34679078478E+02  0.00000000000E+00 0. -1.
         13    1    4    4    0    0  0.12073614918E+02 -0.44130709820E+02  0.60615596499E+02  0.75944336624E+02  0.00000000000E+00 0.  1.
        -13    1    3    3    0    0 -0.65368051959E+02  0.91157063316E+01  0.33035105722E+02  0.73806480264E+02  0.00000000000E+00 0.  1.
         13    1    3    3    0    0  0.17425621383E+02 -0.37605194154E+02  0.25641249386E+02  0.48736809272E+02  0.00000000000E+00 0. -1.
         -1    1    1    2    0  502  0.10155019800E+02  0.64538577934E+02 -0.10394707867E+02  0.66154383230E+02  0.00000000000E+00 0.  1.
<scales pt_clust_5="13000.00000" pt_clust_6="13000.00000" pt_clust_7="13000.00000" pt_clust_8="13000.00000" pt_clust_9="65.33263"></scales>
<clustering>
<clus scale="   65.333">  2  9  1 -1</clus>
<clus scale="   89.471">  5  6 -1 -1</clus>
<clus scale="   91.999">  7  8 -1 -1</clus>
<clus scale="   99.356">  2  5  1 -1</clus>
<clus scale="   65.333">  2  5  1 -1</clus>
</clustering>
</event>
<event>
 9    1  0.1426358E-005  0.9762066E+02  0.7546771E-02  0.1290479E+00
         21   -1    0    0  501  502  0.00000000000E+00  0.00000000000E+00  0.14858159914E+03  0.14858159914E+03  0.00000000000E+00 0.  1.
          1   -1    0    0  502    0 -0.00000000000E+00 -0.00000000000E+00 -0.16508234984E+03  0.16508234984E+03  0.00000000000E+00 0. -1.
         23    2    1    2    0    0 -0.97383363614E+01  0.23913109240E+02  0.35524119059E+02  0.10608559660E+03  0.96568725697E+02 0.  0.
         23    2    1    2    0    0 -0.25931440225E+02  0.36379517500E+00  0.44706040167E+02  0.10166060134E+03  0.87542423418E+02 0.  0.
        -13    1    4    4    0    0  0.14299678549E+02  0.25929275661E+02  0.45147394192E+02  0.53991622917E+02  0.00000000000E+00 0. -1.
         13    1    4    4    0    0 -0.40231118774E+02 -0.25565480486E+02 -0.44135402489E+00  0.47668978421E+02  0.00000000000E+00 0.  1.
        -13    1    3    3    0    0 -0.47284437137E+02  0.34256691417E+02  0.92776324767E+01  0.59122020996E+02  0.00000000000E+00 0.  1.
         13    1    3    3    0    0  0.37546100776E+02 -0.10343582176E+02  0.26246486583E+02  0.46963575606E+02  0.00000000000E+00 0. -1.
          1    1    1    2  501    0  0.35669776587E+02 -0.24276904415E+02 -0.96730909923E+02  0.10591775103E+03  0.00000000000E+00 0. -1.
<scales pt_clust_5="13000.00000" pt_clust_6="13000.00000" pt_clust_7="13000.00000" pt_clust_8="13000.00000" pt_clust_9="43.14746"></scales>
<clustering>
<clus scale="   43.147">  1  9  2 -1</clus>
<clus scale="   87.542">  5  6 -1 -1</clus>
<clus scale="   88.701">  1  5  2 -1</clus>
<clus scale="   96.569">  7  8 -1 -1</clus>
<clus scale="   43.147">  1  5  2 -1</clus>
</clustering>
</event>
<event>
 9    1  0.1426358E-005  0.1162672E+03  0.7546771E-02  0.1251026E+00
         21   -1    0    0  501  502  0.00000000000E+00  0.00000000000E+00  0.40313958726E+03  0.40313958726E+03  0.00000000000E+00 0.  1.
         -3   -1    0    0    0  501 -0.00000000000E+00 -0.00000000000E+00 -0.22249643830E+03  0.22249643830E+03  0.00000000000E+00 0.  1.
         23    2    1    2    0    0 -0.66332419326E+01 -0.45653428022E+02 -0.49144660669E+02  0.10857525382E+03  0.85118462639E+02 0.  0.
         23    2    1    2    0    0  0.75340613442E+02  0.87643554257E+02 -0.10013995582E+03  0.17744892858E+03  0.90013948162E+02 0.  0.
        -13    1    4    4    0    0  0.51799809269E+02  0.56603345449E+01 -0.69395242194E+02  0.86781099708E+02  0.00000000000E+00 0.  1.
         13    1    4    4    0    0  0.23540804173E+02  0.81983219712E+02 -0.30744713630E+02  0.90667828868E+02  0.00000000000E+00 0. -1.
        -13    1    3    3    0    0  0.36659679041E+02 -0.97837299581E+01 -0.32451207781E+02  0.49927290391E+02  0.00000000000E+00 0.  1.
         13    1    3    3    0    0 -0.43292920974E+02 -0.35869698064E+02 -0.16693452888E+02  0.58647963434E+02  0.00000000000E+00 0. -1.
         -3    1    1    2    0  502 -0.68707371509E+02 -0.41990126235E+02  0.32992776545E+03  0.33961184317E+03  0.00000000000E+00 0.  1.
<scales pt_clust_5="13000.00000" pt_clust_6="13000.00000" pt_clust_7="13000.00000" pt_clust_8="13000.00000" pt_clust_9="80.52250"></scales>
<clustering>
<clus scale="   80.523">  1  9  2 -1</clus>
<clus scale="   85.118">  7  8 -1 -1</clus>
<clus scale="   90.014">  5  6 -1 -1</clus>
<clus scale="  112.520">  2  7  1 -1</clus>
<clus scale="   80.523">  1  5  2 -1</clus>
</clustering>
</event>
<event>
 9    1  0.1426358E-005  0.1459240E+03  0.7546771E-02  0.1205699E+00
         21   -1    0    0  501  502  0.00000000000E+00  0.00000000000E+00  0.40772671569E+03  0.40772671569E+03  0.00000000000E+00 0.  1.
          1   -1    0    0  502    0 -0.00000000000E+00 -0.00000000000E+00 -0.12690899951E+03  0.12690899951E+03  0.00000000000E+00 0. -1.
         23    2    1    2    0    0  0.10956954601E+03 -0.41793869503E+02 -0.58057960091E+02  0.15920774996E+03  0.90687198517E+02 0.  0.
         23    2    1    2    0    0 -0.83581357598E+02  0.49869449683E+02  0.29975425948E+03  0.32777205077E+03  0.90050518277E+02 0.  0.
        -11    1    3    3    0    0  0.69878163019E+02 -0.21948568435E+02 -0.81039236990E+02  0.10923394736E+03  0.00000000000E+00 0. -1.
         11    1    3    3    0    0  0.39691382991E+02 -0.19845301069E+02  0.22981276899E+02  0.49973802598E+02  0.00000000000E+00 0.  1.
        -11    1    4    4    0    0 -0.20548229444E+02 -0.21627267025E+02  0.12711196362E+03  0.13056576775E+03  0.00000000000E+00 0. -1.
         11    1    4    4    0    0 -0.63033128154E+02  0.71496716708E+02  0.17264229586E+03  0.19720628303E+03  0.00000000000E+00 0.  1.
          1    1    1    2  501    0 -0.25988188412E+02 -0.80755801794E+01  0.39121416796E+02  0.47655914473E+02  0.00000000000E+00 0. -1.
<scales pt_clust_5="13000.00000" pt_clust_6="13000.00000" pt_clust_7="13000.00000" pt_clust_8="13000.00000" pt_clust_9="27.21398"></scales>
<clustering>
<clus scale="   27.214">  1  9  2 -1</clus>
<clus scale="   90.051">  7  8 -1 -1</clus>
<clus scale="   90.687">  5  6 -1 -1</clus>
<clus scale="  145.529">  1  7  2 -1</clus>
<clus scale="   27.214">  1  5  2 -1</clus>
</clustering>
</event>
<event>
 9    1  0.1426358E-005  0.9497913E+02  0.7546771E-02  0.1293406E+00
          1   -1    0    0  502    0 -0.00000000000E+00  0.00000000000E+00  0.41435495050E+03  0.41435495050E+03  0.00000000000E+00 0. -1.
         21   -1    0    0  501  502  0.00000000000E+00 -0.00000000000E+00 -0.36635235694E+02  0.36635235694E+02  0.00000000000E+00 0.  1.
         23    2    1    2    0    0  0.14391511520E+02  0.14625996671E+02  0.29132262448E+03  0.30534279448E+03  0.89130888167E+02 0.  0.
         23    2    1    2    0    0  0.49392058639E+01 -0.22515883903E+02  0.65228401575E+02  0.11591457586E+03  0.93005826387E+02 0.  0.
        -11    1    3    3    0    0 -0.19588816212E+02  0.37225757003E+02  0.82892069949E+02  0.92954687701E+02  0.00000000000E+00 0. -1.
         11    1    3    3    0    0  0.33980327732E+02 -0.22599760332E+02  0.20843055453E+03  0.21238810678E+03  0.00000000000E+00 0.  1.
        -13    1    4    4    0    0 -0.42905863503E+02 -0.29501261566E+00  0.32594456820E+02  0.53883195624E+02  0.00000000000E+00 0. -1.
         13    1    4    4    0    0  0.47845069366E+02 -0.22220871287E+02  0.32633944756E+02  0.62031380234E+02  0.00000000000E+00 0.  1.
          1    1    1    2  501    0 -0.19330717384E+02  0.78898872314E+01  0.21168688747E+02  0.29732815850E+02  0.00000000000E+00 0. -1.
<scales pt_clust_5="13000.00000" pt_clust_6="13000.00000" pt_clust_7="13000.00000" pt_clust_8="13000.00000" pt_clust_9="20.87886"></scales>
<clustering>
<clus scale="   20.879">  2  9  1 -1</clus>
<clus scale="   89.131">  5  6 -1 -1</clus>
<clus scale="   91.188">  1  5  2 -1</clus>
<clus scale="   93.006">  7  8 -1 -1</clus>
<clus scale="   20.879">  2  5  1 -1</clus>
</clustering>
</event>
<event>
 9    1  0.1426358E-005  0.1165221E+03  0.7546771E-02  0.1249778E+00
          3   -1    0    0  502    0 -0.00000000000E+00  0.00000000000E+00  0.28282865323E+03  0.28282865323E+03  0.00000000000E+00 0. -1.
         21   -1    0    0  501  502  0.00000000000E+00 -0.00000000000E+00 -0.74871848764E+02  0.74871848764E+02  0.00000000000E+00 0.  1.
         23    2    1    2    0    0  0.54445389878E+02  0.51394215670E+02  0.16924951793E+03  0.20746308555E+03  0.93754288774E+02 0.  0.
         23    2    1    2    0    0 -0.25233607133E+02 -0.56227003617E+02  0.46515757389E+02  0.11961624227E+03  0.91357095312E+02 0.  0.
        -11    1    3    3    0    0  0.26571350413E+02  0.65111918917E+02  0.55614935868E+02  0.89658350082E+02  0.00000000000E+00 0.  1.
         11    1    3    3    0    0  0.27874039465E+02 -0.13717703247E+02  0.11363458206E+03  0.11780473547E+03  0.00000000000E+00 0. -1.
        -13    1    4    4    0    0  0.38341913286E+01 -0.69135166069E+02  0.80548555628E+01  0.69708341744E+02  0.00000000000E+00 0. -1.
         13    1    4    4    0    0 -0.29067798461E+02  0.12908162452E+02  0.38460901826E+02  0.49907900523E+02  0.00000000000E+00 0.  1.
          3    1    1    2  501    0 -0.29211782745E+02  0.48327879465E+01 -0.78084708577E+01  0.30621174171E+02  0.00000000000E+00 0. -1.
<scales pt_clust_5="13000.00000" pt_clust_6="13000.00000" pt_clust_7="13000.00000" pt_clust_8="13000.00000" pt_clust_9="29.60885"></scales>
<clustering>
<clus scale="   29.609">  2  9  1 -1</clus>
<clus scale="   91.357">  7  8 -1 -1</clus>
<clus scale="   93.754">  5  6 -1 -1</clus>
<clus scale="  114.602">  2  7  1 -1</clus>
<clus scale="   29.609">  2  5  1 -1</clus>
</clustering>
</event>
<event>
 9    1  0.1426358E-005  0.1200073E+03  0.7546771E-02  0.1243404E+00
         -1   -1    0    0    0  501 -0.00000000000E+00  0.00000000000E+00  0.22595654864E+03  0.22595654864E+03  0.00000000000E+00 0.  1.
         21   -1    0    0  501  502  0.00000000000E+00 -0.00000000000E+00 -0.22191837068E+03  0.22191837068E+03  0.00000000000E+00 0.  1.
         23    2    1    2    0    0  0.71458269909E+02  0.20415191799E+02  0.15594514849E+03  0.19525632165E+03  0.91011413632E+02 0.  0.
         23    2    1    2    0    0 -0.91311712850E+02 -0.28230172109E+02 -0.37907191055E+02  0.13663936318E+03  0.89992160298E+02 0.  0.
        -11    1    4    4    0    0 -0.28673665811E+02 -0.31812116021E+02  0.23497891896E+02  0.48850186902E+02  0.00000000000E+00 0.  1.
         11    1    4    4    0    0 -0.62638047039E+02  0.35819439113E+01 -0.61405082951E+02  0.87789176276E+02  0.00000000000E+00 0. -1.
        -13    1    3    3    0    0  0.59927448568E+02  0.50433447456E+02  0.76218962014E+02  0.10928934936E+03  0.00000000000E+00 0. -1.
         13    1    3    3    0    0  0.11530821341E+02 -0.30018255656E+02  0.79726186477E+02  0.85966972283E+02  0.00000000000E+00 0.  1.
         -1    1    1    2    0  502  0.19853442942E+02  0.78149803100E+01 -0.11399977947E+03  0.11597923450E+03  0.00000000000E+00 0.  1.
<scales pt_clust_5="13000.00000" pt_clust_6="13000.00000" pt_clust_7="13000.00000" pt_clust_8="13000.00000" pt_clust_9="21.33619"></scales>
<clustering>
<clus scale="   21.336">  2  9  1 -1</clus>
<clus scale="   89.992">  5  6 -1 -1</clus>
<clus scale="   91.011">  7  8 -1 -1</clus>
<clus scale="  119.236">  2  5  1 -1</clus>
<clus scale="   21.336">  2  5  1 -1</clus>
</clustering>
</event>
<event>
 9    1  0.1426358E-005  0.1556636E+03  0.7546771E-02  0.1217718E+00
         21   -1    0    0  501  502  0.00000000000E+00  0.00000000000E+00  0.12563767865E+03  0.12563767865E+03  0.00000000000E+00 0.  1.
         -1   -1    0    0    0  501 -0.00000000000E+00 -0.00000000000E+00 -0.38611283799E+03  0.38611283799E+03  0.00000000000E+00 0.  1.
         23    2    1    2    0    0  0.29906946911E+02  0.75754131683E+01 -0.11174691347E+03  0.14526590518E+03  0.87538552537E+02 0.  0.
         23    2    1    2    0    0  0.47950795054E+02  0.96928924285E+02 -0.18318596648E+03  0.23168728567E+03  0.91800898228E+02 0.  0.
        -11    1    4    4    0    0  0.75239227795E+02  0.77653439018E+02 -0.13314740873E+03  0.17152034994E+03  0.00000000000E+00 0.  1.
         11    1    4    4    0    0 -0.27288432741E+02  0.19275485268E+02 -0.50038557749E+02  0.60166935732E+02  0.00000000000E+00 0. -1.
        -13    1    3    3    0    0 -0.12915887523E+02  0.37914323507E+02 -0.54013935776E+02  0.67244489258E+02  0.00000000000E+00 0. -1.
         13    1    3    3    0    0  0.42822834434E+02 -0.30338910338E+02 -0.57732977690E+02  0.78021415922E+02  0.00000000000E+00 0.  1.
         -1    1    1    2    0  502 -0.77857741965E+02 -0.10450433745E+03  0.34457720617E+02  0.13479732579E+03  0.00000000000E+00 0.  1.
<scales pt_clust_5="13000.00000" pt_clust_6="13000.00000" pt_clust_7="13000.00000" pt_clust_8="13000.00000" pt_clust_9="125.71302"></scales>
<clustering>
<clus scale="   87.539">  7  8 -1 -1</clus>
<clus scale="   91.801">  5  6 -1 -1</clus>
<clus scale="   92.816">  2  7  1 -1</clus>
<clus scale="  125.713">  1  9  2 -1</clus>
<clus scale="  125.713">  1  5  2 -1</clus>
</clustering>
</event>
<event>
 9    1  0.1426358E-005  0.9653918E+02  0.7546771E-02  0.1288372E+00
          1   -1    0    0  502    0 -0.00000000000E+00  0.00000000000E+00  0.22960942057E+03  0.22960942057E+03  0.00000000000E+00 0. -1.
         21   -1    0    0  501  502  0.00000000000E+00 -0.00000000000E+00 -0.13792495090E+03  0.13792495090E+03  0.00000000000E+00 0. -1.
         23    2    1    2    0    0 -0.12378163890E+02 -0.22751029078E+02  0.55294059541E+02  0.10977404149E+03  0.91225429014E+02 0.  0.
         23    2    1    2    0    0  0.75520764443E+02 -0.46510148233E+02 -0.42817232694E+02  0.13504949359E+03  0.92403844906E+02 0.  0.
        -11    1    4    4    0    0  0.96439248737E+02 -0.45534510487E+02 -0.40075038670E+02  0.11392949165E+03  0.00000000000E+00 0. -1.
         11    1    4    4    0    0 -0.20918484294E+02 -0.97563774615E+00 -0.27421940237E+01  0.21120001947E+02  0.00000000000E+00 0.  1.
        -13    1    3    3    0    0  0.32448382257E+02 -0.10080796204E+01  0.50078217330E+02  0.59680328304E+02  0.00000000000E+00 0.  1.
         13    1    3    3    0    0 -0.44826546147E+02 -0.21742949458E+02  0.52158422116E+01  0.50093713184E+02  0.00000000000E+00 0. -1.
          1    1    1    2  501    0 -0.63142600553E+02  0.69261177312E+02  0.79207642820E+02  0.12271083639E+03  0.00000000000E+00 0. -1.
<scales pt_clust_5="13000.00000" pt_clust_6="13000.00000" pt_clust_7="13000.00000" pt_clust_8="13000.00000" pt_clust_9="93.72357"></scales>
<clustering>
<clus scale="   91.225">  7  8 -1 -1</clus>
<clus scale="   92.404">  5  6 -1 -1</clus>
<clus scale="   93.724">  2  9  1 -1</clus>
<clus scale="   95.412">  1  7  2 -1</clus>
<clus scale="   93.724">  2  5  1 -1</clus>
</clustering>
</event>
<event>
 9    1  0.1426358E-005  0.1051260E+03  0.7546771E-02  0.1277227E+00
         21   -1    0    0  501  502  0.00000000000E+00  0.00000000000E+00  0.29870963115E+03  0.29870963115E+03  0.00000000000E+00 0.  1.
         -1   -1    0    0    0  501 -0.00000000000E+00 -0.00000000000E+00 -0.44378145432E+03  0.44378145432E+03  0.00000000000E+00 0.  1.
         23    2    1    2    0    0 -0.16367600424E+02  0.41627498940E+01 -0.40270440559E+03  0.41610492465E+03  0.10337912367E+03 0.  0.
         23    2    1    2    0    0  0.37228143371E+02 -0.57374527385E+02  0.75341956965E+02  0.13534551687E+03  0.89242520161E+02 0.  0.
        -11    1    4    4    0    0 -0.20362715485E+02  0.10521622720E+02  0.20694336029E+02  0.30880418881E+02  0.00000000000E+00 0. -1.
         11    1    4    4    0    0  0.57590858856E+02 -0.67896150105E+02  0.54647620936E+02  0.10446509798E+03  0.00000000000E+00 0.  1.
        -11    1    3    3    0    0  0.38505653826E+02  0.24450803189E+02 -0.15405679421E+03  0.16066742979E+03  0.00000000000E+00 0. -1.
         11    1    3    3    0    0 -0.54873254250E+02 -0.20288053295E+02 -0.24864761137E+03  0.25543749486E+03  0.00000000000E+00 0.  1.
         -1    1    1    2    0  502 -0.20860542947E+02  0.53211777491E+02  0.18229062545E+03  0.19104064395E+03  0.00000000000E+00 0.  1.
<scales pt_clust_5="13000.00000" pt_clust_6="13000.00000" pt_clust_7="13000.00000" pt_clust_8="13000.00000" pt_clust_9="57.15466"></scales>
<clustering>
<clus scale="   57.155">  1  9  2 -1</clus>
<clus scale="   89.243">  5  6 -1 -1</clus>
<clus scale="   91.260">  1  5  2 -1</clus>
<clus scale="  103.379">  7  8 -1 -1</clus>
<clus scale="   57.155">  1  5  2 -1</clus>
</clustering>
</event>
<event>
 9    1  0.1426358E-005  0.1262994E+03  0.7546771E-02  0.1233898E+00
         21   -1    0    0  501  502  0.00000000000E+00  0.00000000000E+00  0.28572782264E+03  0.28572782264E+03  0.00000000000E+00 0. -1.
         -2   -1    0    0    0  501 -0.00000000000E+00 -0.00000000000E+00 -0.75012785600E+02  0.75012785600E+02  0.00000000000E+00 0.  1.
         23    2    1    2    0    0  0.39358441598E+02  0.69689346988E+02  0.66075357531E+02  0.13531710797E+03  0.86827845923E+02 0.  0.
         23    2    1    2    0    0 -0.22307629229E+02 -0.10105205915E+03  0.11131180997E+03  0.17658604738E+03  0.89906418635E+02 0.  0.
        -11    1    3    3    0    0  0.13740034763E+02  0.81555357593E+02  0.26782976908E+02  0.86933266126E+02  0.00000000000E+00 0.  1.
         11    1    3    3    0    0  0.25618406835E+02 -0.11866010605E+02  0.39292380624E+02  0.48383841843E+02  0.00000000000E+00 0. -1.
        -13    1    4    4    0    0  0.24695508472E+02 -0.53381389124E+02  0.87701931787E+02  0.10559862538E+03  0.00000000000E+00 0. -1.
         13    1    4    4    0    0 -0.47003137701E+02 -0.47670670025E+02  0.23609878179E+02  0.70987421998E+02  0.00000000000E+00 0.  1.
         -2    1    1    2    0  502 -0.17050812369E+02  0.31362712161E+02  0.33327869546E+02  0.48837452892E+02  0.00000000000E+00 0.  1.
<scales pt_clust_5="13000.00000" pt_clust_6="13000.00000" pt_clust_7="13000.00000" pt_clust_8="13000.00000" pt_clust_9="35.69804"></scales>
<clustering>
<clus scale="   35.698">  1  9  2 -1</clus>
<clus scale="   86.828">  5  6 -1 -1</clus>
<clus scale="   89.906">  7  8 -1 -1</clus>
<clus scale="  124.127">  2  5  1 -1</clus>
<clus scale="   35.698">  1  5  2 -1</clus>
</clustering>
</event>
<event>
 9    1  0.1426358E-005  0.1040645E+03  0.7546771E-02  0.1272738E+00
          1   -1    0    0  502    0 -0.00000000000E+00  0.00000000000E+00  0.56512135616E+03  0.56512135616E+03  0.00000000000E+00 0. -1.
         21   -1    0    0  501  502  0.00000000000E+00 -0.00000000000E+00 -0.88324125163E+02  0.88324125163E+02  0.00000000000E+00 0.  1.
         23    2    1    2    0    0  0.66743482648E+02 -0.44115100470E+02  0.31007224316E+03  0.33263894212E+03  0.90016861054E+02 0.  0.
         23    2    1    2    0    0 -0.27060855264E+02 -0.47542039111E+02  0.19025836219E+03  0.21819288582E+03  0.91746147984E+02 0.  0.
        -13    1    3    3    0    0  0.50669984956E+02 -0.21330630275E+02  0.29663507329E+03  0.30168660870E+03  0.00000000000E+00 0. -1.
         13    1    3    3    0    0  0.16073497692E+02 -0.22784470195E+02  0.13437169865E+02  0.30952333420E+02  0.00000000000E+00 0.  1.
        -13    1    4    4    0    0 -0.18134312295E+02 -0.68455644751E+02  0.17964423734E+03  0.19309862918E+03  0.00000000000E+00 0.  1.
         13    1    4    4    0    0 -0.89265429683E+01  0.20913605640E+02  0.10614124849E+02  0.25094256645E+02  0.00000000000E+00 0. -1.
          1    1    1    2  501    0 -0.39682627385E+02  0.91657139581E+02 -0.23533374345E+02  0.10261365338E+03  0.00000000000E+00 0. -1.
<scales pt_clust_5="13000.00000" pt_clust_6="13000.00000" pt_clust_7="13000.00000" pt_clust_8="13000.00000" pt_clust_9="99.87864"></scales>
<clustering>
<clus scale="   90.017">  5  6 -1 -1</clus>
<clus scale="   91.746">  7  8 -1 -1</clus>
<clus scale="   99.879">  2  9  1 -1</clus>
<clus scale="  102.543">  1  5  2 -1</clus>
<clus scale="   99.879">  2  5  1 -1</clus>
</clustering>
</event>
<event>
 9    1  0.1426358E-005  0.1983195E+03  0.7546771E-02  0.1151189E+00
         21   -1    0    0  501  502  0.00000000000E+00  0.00000000000E+00  0.19959976784E+03  0.19959976784E+03  0.00000000000E+00 0. -1.
          1   -1    0    0  502    0 -0.00000000000E+00 -0.00000000000E+00 -0.41582546477E+03  0.41582546477E+03  0.00000000000E+00 0. -1.
         23    2    1    2    0    0  0.15764329846E+03 -0.38517844036E+02 -0.21367986400E+03  0.28379185298E+03  0.92432124719E+02 0.  0.
         23    2    1    2    0    0 -0.20016351096E+03  0.43406385126E+02 -0.83852487137E+02  0.23974954905E+03  0.92190353516E+02 0.  0.
        -11    1    3    3    0    0  0.80640010676E+02  0.23960363765E+02 -0.12554448924E+03  0.15112355585E+03  0.00000000000E+00 0. -1.
         11    1    3    3    0    0  0.77003287783E+02 -0.62478207801E+02 -0.88135374757E+02  0.13266829713E+03  0.00000000000E+00 0.  1.
        -11    1    4    4    0    0 -0.13080855113E+03 -0.13147086954E+02 -0.28489618957E+02  0.13451907423E+03  0.00000000000E+00 0. -1.
         11    1    4    4    0    0 -0.69354959831E+02  0.56553472080E+02 -0.55362868180E+02  0.10523047482E+03  0.00000000000E+00 0.  1.
          1    1    1    2  501    0  0.42520212501E+02 -0.48885410902E+01  0.81306654205E+02  0.91883830586E+02  0.00000000000E+00 0. -1.
<scales pt_clust_5="13000.00000" pt_clust_6="13000.00000" pt_clust_7="13000.00000" pt_clust_8="13000.00000" pt_clust_9="42.80031"></scales>
<clustering>
<clus scale="   42.800">  1  9  2 -1</clus>
<clus scale="   92.190">  7  8 -1 -1</clus>
<clus scale="   92.432">  5  6 -1 -1</clus>
<clus scale="  198.207">  1  7  2 -1</clus>
<clus scale="   42.800">  1  5  2 -1</clus>
</clustering>
</event>
<event>
 9    1  0.1426358E-005  0.1029534E+03  0.7546771E-02  0.1275986E+00
         21   -1    0    0  501  502  0.00000000000E+00  0.00000000000E+00  0.51554782451E+03  0.51554782451E+03  0.00000000000E+00 0. -1.
         -1   -1    0    0    0  501 -0.00000000000E+00 -0.00000000000E+00 -0.48201529989E+02  0.48201529989E+02  0.00000000000E+00 0.  1.
         23    2    1    2    0    0 -0.15913851606E+02 -0.31223667742E+02  0.43920578087E+02  0.11091324241E+03  0.95627203562E+02 0.  0.
         23    2    1    2    0    0  0.35001222454E+02  0.43608114284E+02  0.41477025391E+03  0.42849233930E+03  0.91894331211E+02 0.  0.
        -11    1    3    3    0    0 -0.32717992683E+02  0.99774005076E+01 -0.14773322320E+02  0.37259450056E+02  0.00000000000E+00 0. -1.
         11    1    3    3    0    0  0.16804141078E+02 -0.41201068249E+02  0.58693900408E+02  0.73653792349E+02  0.00000000000E+00 0.  1.
        -13    1    4    4    0    0  0.53293890008E+01  0.59662315050E+02  0.35358211688E+03  0.35862000447E+03  0.00000000000E+00 0. -1.
         13    1    4    4    0    0  0.29671833453E+02 -0.16054200766E+02  0.61188137025E+02  0.69872334835E+02  0.00000000000E+00 0.  1.
         -1    1    1    2    0  502 -0.19087370848E+02 -0.12384446542E+02  0.86554625200E+01  0.24343772786E+02  0.00000000000E+00 0.  1.
<scales pt_clust_5="13000.00000" pt_clust_6="13000.00000" pt_clust_7="13000.00000" pt_clust_8="13000.00000" pt_clust_9="22.75308"></scales>
<clustering>
<clus scale="   22.753">  1  9  2 -1</clus>
<clus scale="   91.894">  7  8 -1 -1</clus>
<clus scale="   95.627">  5  6 -1 -1</clus>
<clus scale="   99.496">  1  7  2 -1</clus>
<clus scale="   22.753">  1  5  2 -1</clus>
</clustering>
</event>
<event>
 9    1  0.1426358E-005  0.9944072E+02  0.7546771E-02  0.1281502E+00
         21   -1    0    0  501  502  0.00000000000E+00  0.00000000000E+00  0.21588373282E+02  0.21588373282E+02  0.00000000000E+00 0.  1.
          2   -1    0    0  502    0 -0.00000000000E+00 -0.00000000000E+00 -0.82630224355E+03  0.82630224355E+03  0.00000000000E+00 0. -1.
         23    2    1    2    0    0  0.11761926238E+02 -0.21969304522E+02 -0.31194014859E+03  0.32581392873E+03  0.90703178562E+02 0.  0.
         23    2    1    2    0    0  0.18605822495E+02  0.69175587732E+02 -0.30760933012E+03  0.32859158470E+03  0.90650377775E+02 0.  0.
        -11    1    3    3    0    0 -0.21228813045E+02  0.27383914371E+02 -0.10983942036E+03  0.11517482161E+03  0.00000000000E+00 0.  1.
         11    1    3    3    0    0  0.32990739283E+02 -0.49353218893E+02 -0.20210072823E+03  0.21063910711E+03  0.00000000000E+00 0. -1.
        -11    1    4    4    0    0  0.34146846396E+01 -0.21722088371E+02 -0.41330000295E+02  0.46815361996E+02  0.00000000000E+00 0. -1.
         11    1    4    4    0    0  0.15191137856E+02  0.90897676103E+02 -0.26627932983E+03  0.28177622271E+03  0.00000000000E+00 0.  1.
          2    1    1    2  501    0 -0.30367748733E+02 -0.47206283210E+02 -0.18516439156E+03  0.19348510340E+03  0.00000000000E+00 0. -1.
<scales pt_clust_5="13000.00000" pt_clust_6="13000.00000" pt_clust_7="13000.00000" pt_clust_8="13000.00000" pt_clust_9="56.13053"></scales>
<clustering>
<clus scale="   56.131">  1  9  2 -1</clus>
<clus scale="   90.650">  7  8 -1 -1</clus>
<clus scale="   90.703">  5  6 -1 -1</clus>
<clus scale="   99.393">  1  7  2 -1</clus>
<clus scale="   56.131">  1  5  2 -1</clus>
</clustering>
</event>
<event>
 9    1  0.1426358E-005  0.3510020E+03  0.7546771E-02  0.1105581E+00
         21   -1    0    0  501  502  0.00000000000E+00  0.00000000000E+00  0.44696679382E+03  0.44696679382E+03  0.00000000000E+00 0. -1.
          2   -1    0    0  502    0 -0.00000000000E+00 -0.00000000000E+00 -0.42997609338E+03  0.42997609338E+03  0.00000000000E+00 0. -1.
         23    2    1    2    0    0  0.56895256770E+02 -0.30084986999E+02  0.66321768716E+02  0.12844015052E+03  0.89197077167E+02 0.  0.
         23    2    1    2    0    0  0.13496323926E+03  0.31144206759E+03 -0.16573265337E+03  0.38861272805E+03  0.91330731921E+02 0.  0.
        -11    1    4    4    0    0  0.59668069519E+02  0.60800884840E+02 -0.14686021341E+02  0.86444810951E+02  0.00000000000E+00 0.  1.
         11    1    4    4    0    0  0.75295169736E+02  0.25064118275E+03 -0.15104663203E+03  0.30216791710E+03  0.00000000000E+00 0. -1.
        -13    1    3    3    0    0  0.39020425941E+01  0.19977119288E+02  0.49645950636E+02  0.53656608595E+02  0.00000000000E+00 0.  1.
         13    1    3    3    0    0  0.52993214175E+02 -0.50062106287E+02  0.16675818080E+02  0.74783541927E+02  0.00000000000E+00 0. -1.
          2    1    1    2  501    0 -0.19185849602E+03 -0.28135708059E+03  0.11640158509E+03  0.35989000863E+03  0.00000000000E+00 0. -1.
<scales pt_clust_5="13000.00000" pt_clust_6="13000.00000" pt_clust_7="13000.00000" pt_clust_8="13000.00000" pt_clust_9="338.91169"></scales>
<clustering>
<clus scale="   89.197">  7  8 -1 -1</clus>
<clus scale="   91.331">  5  6 -1 -1</clus>
<clus scale="  109.992">  2  7  1 -1</clus>
<clus scale="  338.912">  1  9  2 -1</clus>
<clus scale="  338.912">  1  5  2 -1</clus>
</clustering>
</event>
<event>
 9    1  0.1426358E-005  0.2727472E+03  0.7546771E-02  0.1099825E+00
          1   -1    0    0  502    0 -0.00000000000E+00  0.00000000000E+00  0.23734525396E+04  0.23734525396E+04  0.00000000000E+00 0. -1.
         21   -1    0    0  501  502  0.00000000000E+00 -0.00000000000E+00 -0.10713780757E+03  0.10713780757E+03  0.00000000000E+00 0. -1.
         23    2    1    2    0    0 -0.20383350699E+03 -0.11490660129E+03  0.12134861944E+04  0.12392319242E+04  0.91626372895E+02 0.  0.
         23    2    1    2    0    0  0.16476717263E+03  0.35124380475E+03  0.79402212206E+03  0.88870815298E+03  0.93864899273E+02 0.  0.
        -11    1    3    3    0    0 -0.79921772001E+02 -0.97028503475E+02  0.57347744233E+03  0.58709317573E+03  0.00000000000E+00 0. -1.
         11    1    3    3    0    0 -0.12391173499E+03 -0.17878097819E+02  0.64000875210E+03  0.65213874844E+03  0.00000000000E+00 0.  1.
        -13    1    4    4    0    0  0.12481051882E+03  0.24780923886E+03  0.46485074472E+03  0.54136244729E+03  0.00000000000E+00 0. -1.
         13    1    4    4    0    0  0.39956653809E+02  0.10343456588E+03  0.32917137734E+03  0.34734570569E+03  0.00000000000E+00 0.  1.
          1    1    1    2  501    0  0.39066334364E+02 -0.23633720345E+03  0.25880641554E+03  0.35265027001E+03  0.00000000000E+00 0. -1.
<scales pt_clust_5="13000.00000" pt_clust_6="13000.00000" pt_clust_7="13000.00000" pt_clust_8="13000.00000" pt_clust_9="239.54426"></scales>
<clustering>
<clus scale="   91.626">  5  6 -1 -1</clus>
<clus scale="   93.865">  7  8 -1 -1</clus>
<clus scale="  239.544">  2  9  1 -1</clus>
<clus scale="  271.985">  1  5  2 -1</clus>
<clus scale="  239.544">  2  5  1 -1</clus>
</clustering>
</event>
<event>
 9    1  0.1426358E-005  0.9765619E+02  0.7546771E-02  0.1286623E+00
         21   -1    0    0  501  502  0.00000000000E+00  0.00000000000E+00  0.11446835072E+04  0.11446835072E+04  0.00000000000E+00 0. -1.
          2   -1    0    0  502    0 -0.00000000000E+00 -0.00000000000E+00 -0.23460088397E+02  0.23460088397E+02  0.00000000000E+00 0. -1.
         23    2    1    2    0    0 -0.36830313304E+02  0.93644286609E+01  0.16268962889E+03  0.19173661529E+03  0.94078955113E+02 0.  0.
         23    2    1    2    0    0 -0.99873697130E+01  0.54297470589E+02  0.54823647690E+03  0.55856895196E+03  0.91586443464E+02 0.  0.
        -11    1    4    4    0    0  0.35815995653E+02  0.22384155721E+00  0.16620060114E+03  0.17001610356E+03  0.00000000000E+00 0.  1.
         11    1    4    4    0    0 -0.45803365366E+02  0.54073629031E+02  0.38203587576E+03  0.38855284840E+03  0.00000000000E+00 0. -1.
        -13    1    3    3    0    0 -0.62891995080E+02  0.82576226125E+01  0.14972475540E+03  0.16260717622E+03  0.00000000000E+00 0. -1.
         13    1    3    3    0    0  0.26061681776E+02  0.11068060484E+01  0.12964873483E+02  0.29129439079E+02  0.00000000000E+00 0.  1.
          2    1    1    2  501    0  0.46817683017E+02 -0.63661899250E+02  0.41029731303E+03  0.41783802836E+03  0.00000000000E+00 0. -1.
<scales pt_clust_5="13000.00000" pt_clust_6="13000.00000" pt_clust_7="13000.00000" pt_clust_8="13000.00000" pt_clust_9="79.02362"></scales>
<clustering>
<clus scale="   79.024">  1  9  2 -1</clus>
<clus scale="   91.586">  5  6 -1 -1</clus>
<clus scale="   94.079">  7  8 -1 -1</clus>
<clus scale="   95.257">  1  5  2 -1</clus>
<clus scale="   79.024">  1  5  2 -1</clus>
</clustering>
</event>
<event>
 9    1  0.1426358E-005  0.1525689E+03  0.7546771E-02  0.1211610E+00
          2   -1    0    0  502    0 -0.00000000000E+00  0.00000000000E+00  0.82177522009E+03  0.82177522009E+03  0.00000000000E+00 0. -1.
         21   -1    0    0  501  502  0.00000000000E+00 -0.00000000000E+00 -0.10893269384E+03  0.10893269384E+03  0.00000000000E+00 0. -1.
         23    2    1    2    0    0 -0.67274596999E+02  0.13992167040E+02 -0.28063908787E+02  0.11565509834E+03  0.88695358701E+02 0.  0.
         23    2    1    2    0    0 -0.44326127326E+02 -0.82798329659E+02  0.62961750810E+03  0.64308120473E+03  0.91185856416E+02 0.  0.
        -11    1    3    3    0    0 -0.29062027170E+02  0.41145305296E+02  0.14413127320E+02  0.52395379665E+02  0.00000000000E+00 0.  1.
         11    1    3    3    0    0 -0.38212569829E+02 -0.27153138256E+02 -0.42477036106E+02  0.63259718672E+02  0.00000000000E+00 0. -1.
        -11    1    4    4    0    0 -0.29678524966E+02 -0.99281783872E+02  0.57350582532E+03  0.58279208911E+03  0.00000000000E+00 0. -1.
         11    1    4    4    0    0 -0.14647602360E+02  0.16483454213E+02  0.56111682785E+02  0.60289115624E+02  0.00000000000E+00 0.  1.
          2    1    1    2  501    0  0.11160072432E+03  0.68806162619E+02  0.11128892694E+03  0.17197161086E+03  0.00000000000E+00 0. -1.
<scales pt_clust_5="13000.00000" pt_clust_6="13000.00000" pt_clust_7="13000.00000" pt_clust_8="13000.00000" pt_clust_9="122.32098"></scales>
<clustering>
<clus scale="   88.695">  5  6 -1 -1</clus>
<clus scale="   91.186">  7  8 -1 -1</clus>
<clus scale="  112.199">  1  5  2 -1</clus>
<clus scale="  122.321">  2  9  1 -1</clus>
<clus scale="  122.321">  2  5  1 -1</clus>
</clustering>
</event>
<event>
 9    1  0.1426358E-005  0.1002066E+03  0.7546771E-02  0.1282537E+00
          1   -1    0    0  502    0 -0.00000000000E+00  0.00000000000E+00  0.29988336986E+03  0.29988336986E+03  0.00000000000E+00 0. -1.
         21   -1    0    0  501  502  0.00000000000E+00 -0.00000000000E+00 -0.58583413611E+02  0.58583413611E+02  0.00000000000E+00 0.  1.
         23    2    1    2    0    0 -0.45924059700E+02  0.83293710521E+01  0.18410145865E+03  0.21233889767E+03  0.94952949950E+02 0.  0.
         23    2    1    2    0    0  0.22393666200E+01 -0.59534864062E+01  0.45814713976E+02  0.10092182684E+03  0.89698207081E+02 0.  0.
        -11    1    4    4    0    0  0.10411290297E+02 -0.39493020558E+02  0.51717703414E+02  0.65900034028E+02  0.00000000000E+00 0.  1.
         11    1    4    4    0    0 -0.81719236775E+01  0.33539534152E+02 -0.59029894380E+01  0.35021792816E+02  0.00000000000E+00 0. -1.
        -13    1    3    3    0    0 -0.58425406088E+02  0.34231285557E+02  0.82426828830E+02  0.10667469755E+03  0.00000000000E+00 0.  1.
         13    1    3    3    0    0  0.12501346388E+02 -0.25901914505E+02  0.10167462982E+03  0.10566420011E+03  0.00000000000E+00 0. -1.
          1    1    1    2  501    0  0.43684693080E+02 -0.23758846459E+01  0.11383783627E+02  0.45206058963E+02  0.00000000000E+00 0. -1.
<scales pt_clust_5="13000.00000" pt_clust_6="13000.00000" pt_clust_7="13000.00000" pt_clust_8="13000.00000" pt_clust_9="43.74925"></scales>
<clustering>
<clus scale="   43.749">  2  9  1 -1</clus>
<clus scale="   89.698">  5  6 -1 -1</clus>
<clus scale="   94.953">  7  8 -1 -1</clus>
<clus scale="   95.242">  2  5  1 -1</clus>
<clus scale="   43.749">  2  5  1 -1</clus>
</clustering>
</event>
<event>
 9    1  0.1426358E-005  0.1523294E+03  0.7546771E-02  0.1214949E+00
         -1   -1    0    0    0  501 -0.00000000000E+00  0.00000000000E+00  0.94462919215E+02  0.94462919215E+02  0.00000000000E+00 0.  1.
         21   -1    0    0  501  502  0.00000000000E+00 -0.00000000000E+00 -0.41305016834E+03  0.41305016834E+03  0.00000000000E+00 0. -1.
         23    2    1    2    0    0  0.45560394190E+02  0.20712117767E+01 -0.39040775989E+02  0.11203507999E+03  0.94591952736E+02 0.  0.
         23    2    1    2    0    0 -0.87902244688E+02  0.10469806994E+03 -0.15472448552E+03  0.22585182912E+03  0.91547210913E+02 0.  0.
        -13    1    4    4    0    0 -0.94871529646E+02  0.62941394061E+02 -0.77313739375E+02  0.13762136651E+03  0.00000000000E+00 0.  1.
         13    1    4    4    0    0  0.69692849584E+01  0.41756675878E+02 -0.77410746146E+02  0.88230462608E+02  0.00000000000E+00 0. -1.
        -13    1    3    3    0    0  0.48115033418E+02 -0.35257698922E+02 -0.24494651487E+01  0.59700600111E+02  0.00000000000E+00 0.  1.
         13    1    3    3    0    0 -0.25546392281E+01  0.37328910699E+02 -0.36591310840E+02  0.52334479882E+02  0.00000000000E+00 0. -1.
         -1    1    1    2    0  502  0.42341850498E+02 -0.10676928172E+03 -0.12482198762E+03  0.16962617845E+03  0.00000000000E+00 0.  1.
<scales pt_clust_5="13000.00000" pt_clust_6="13000.00000" pt_clust_7="13000.00000" pt_clust_8="13000.00000" pt_clust_9="121.75117"></scales>
<clustering>
<clus scale="   91.547">  5  6 -1 -1</clus>
<clus scale="   94.592">  7  8 -1 -1</clus>
<clus scale="  105.013">  1  7  2 -1</clus>
<clus scale="  121.751">  2  9  1 -1</clus>
<clus scale="  121.751">  2  5  1 -1</clus>
</clustering>
</event>
<event>
 9    1  0.1426358E-005  0.1170688E+03  0.7546771E-02  0.1248496E+00
          1   -1    0    0  502    0 -0.00000000000E+00  0.00000000000E+00  0.62717658580E+03  0.62717658580E+03  0.00000000000E+00 0. -1.
         21   -1    0    0  501  502  0.00000000000E+00 -0.00000000000E+00 -0.49205660116E+02  0.49205660116E+02  0.00000000000E+00 0. -1.
         23    2    1    2    0    0 -0.42008884604E+02 -0.68138741851E+02  0.34305185099E+03  0.36360588485E+03  0.90094575320E+02 0.  0.
         23    2    1    2    0    0  0.69870094226E+02  0.23610576688E+02  0.23210238585E+03  0.26017466689E+03  0.91542615076E+02 0.  0.
        -13    1    4    4    0    0  0.43726564783E+02  0.50886998540E+02  0.19877969010E+03  0.20979719799E+03  0.00000000000E+00 0. -1.
         13    1    4    4    0    0  0.26143529443E+02 -0.27276421852E+02  0.33322695755E+02  0.50377468903E+02  0.00000000000E+00 0.  1.
        -13    1    3    3    0    0  0.11630920027E+02 -0.45295036242E+02  0.24586575556E+03  0.25027362699E+03  0.00000000000E+00 0. -1.
         13    1    3    3    0    0 -0.53639804631E+02 -0.22843705609E+02  0.97186095434E+02  0.11333225786E+03  0.00000000000E+00 0.  1.
          1    1    1    2  501    0 -0.27861209622E+02  0.44528165163E+02  0.28166888438E+01  0.52601694178E+02  0.00000000000E+00 0. -1.
<scales pt_clust_5="13000.00000" pt_clust_6="13000.00000" pt_clust_7="13000.00000" pt_clust_8="13000.00000" pt_clust_9="52.52623"></scales>
<clustering>
<clus scale="   52.526">  2  9  1 -1</clus>
<clus scale="   90.095">  7  8 -1 -1</clus>
<clus scale="   91.543">  5  6 -1 -1</clus>
<clus scale="  115.940">  1  7  2 -1</clus>
<clus scale="   52.526">  2  5  1 -1</clus>
</clustering>
</event>
<event>
 9    1  0.1426358E-005  0.1472771E+03  0.7546771E-02  0.1204612E+00
         -1   -1    0    0    0  501 -0.00000000000E+00  0.00000000000E+00  0.91871496763E+03  0.91871496763E+03  0.00000000000E+00 0.  1.
         21   -1    0    0  501  502  0.00000000000E+00 -0.00000000000E+00 -0.36863222543E+02  0.36863222543E+02  0.00000000000E+00 0.  1.
         23    2    1    2    0    0  0.90660867947E+02  0.57430522877E+01  0.25911821631E+03  0.28862734752E+03  0.88944477575E+02 0.  0.
         23    2    1    2    0    0 -0.13536314211E+03  0.45546566536E+02  0.46330622491E+03  0.49361306969E+03  0.92755240085E+02 0.  0.
        -11    1    4    4    0    0 -0.10179186193E+03  0.41879797398E+02  0.43743653196E+03  0.45107230028E+03  0.00000000000E+00 0.  1.
         11    1    4    4    0    0 -0.33571280178E+02  0.36667691389E+01  0.25869692949E+02  0.42540769410E+02  0.00000000000E+00 0. -1.
        -11    1    3    3    0    0  0.58922168507E+02  0.44162668977E+02  0.18691475119E+03  0.20089621073E+03  0.00000000000E+00 0.  1.
         11    1    3    3    0    0  0.31738699440E+02 -0.38419616690E+02  0.72203465113E+02  0.87731136793E+02  0.00000000000E+00 0. -1.
         -1    1    1    2    0  502  0.44702274164E+02 -0.51289618824E+02  0.15942730387E+03  0.17333777296E+03  0.00000000000E+00 0.  1.
<scales pt_clust_5="13000.00000" pt_clust_6="13000.00000" pt_clust_7="13000.00000" pt_clust_8="13000.00000" pt_clust_9="68.03615"></scales>
<clustering>
<clus scale="   68.036">  2  9  1 -1</clus>
<clus scale="   88.944">  7  8 -1 -1</clus>
<clus scale="   92.755">  5  6 -1 -1</clus>
<clus scale="  144.907">  1  7  2 -1</clus>
<clus scale="   68.036">  2  5  1 -1</clus>
</clustering>
</event>
<event>
 9    1  0.1426358E-005  0.1205252E+03  0.7546771E-02  0.1242983E+00
         21   -1    0    0  501  502  0.00000000000E+00  0.00000000000E+00  0.17637231309E+03  0.17637231309E+03  0.00000000000E+00 0. -1.
         -3   -1    0    0    0  501 -0.00000000000E+00 -0.00000000000E+00 -0.15963827445E+03  0.15963827445E+03  0.00000000000E+00 0.  1.
         23    2    1    2    0    0  0.17278701665E+02 -0.79708372197E+02 -0.61983212706E+02  0.13786806641E+03  0.92269751002E+02 0.  0.
         23    2    1    2    0    0 -0.40025851756E+02  0.62493920190E+02  0.23144966363E+01  0.11658793129E+03  0.89887874369E+02 0.  0.
        -11    1    4    4    0    0 -0.19490411000E+02 -0.95305135643E+01 -0.28315536637E+02  0.35671787519E+02  0.00000000000E+00 0.  1.
         11    1    4    4    0    0 -0.20535440755E+02  0.72024433754E+02  0.30630033273E+02  0.80916143772E+02  0.00000000000E+00 0. -1.
        -13    1    3    3    0    0  0.53376455526E+02 -0.52098716068E+02 -0.53109372902E+02  0.91563790389E+02  0.00000000000E+00 0.  1.
         13    1    3    3    0    0 -0.36097753860E+02 -0.27609656129E+02 -0.88738398035E+01  0.46304276025E+02  0.00000000000E+00 0. -1.
         -3    1    1    2    0  502  0.22747150090E+02  0.17214452007E+02  0.76402754715E+02  0.81554589835E+02  0.00000000000E+00 0.  1.
<scales pt_clust_5="13000.00000" pt_clust_6="13000.00000" pt_clust_7="13000.00000" pt_clust_8="13000.00000" pt_clust_9="28.52666"></scales>
<clustering>
<clus scale="   28.527">  1  9  2 -1</clus>
<clus scale="   89.888">  5  6 -1 -1</clus>
<clus scale="   92.270">  7  8 -1 -1</clus>
<clus scale="  118.712">  1  5  2 -1</clus>
<clus scale="   28.527">  1  5  2 -1</clus>
</clustering>
</event>
<event>
 9    1  0.1426358E-005  0.1211295E+03  0.7546771E-02  0.1241428E+00
         21   -1    0    0  501  502  0.00000000000E+00  0.00000000000E+00  0.36061554388E+02  0.36061554388E+02  0.00000000000E+00 0. -1.
          2   -1    0    0  502    0 -0.00000000000E+00 -0.00000000000E+00 -0.80873784790E+03  0.80873784790E+03  0.00000000000E+00 0. -1.
         23    2    1    2    0    0  0.83525466341E+02 -0.34291829187E+01 -0.64603917845E+03  0.65786161940E+03  0.91798841823E+02 0.  0.
         23    2    1    2    0    0 -0.62397966951E+02 -0.63074206830E+01 -0.11883635317E+03  0.16240159398E+03  0.91208053691E+02 0.  0.
        -11    1    3    3    0    0  0.57221424656E+02 -0.46311018148E+02 -0.36355250096E+03  0.37093048243E+03  0.00000000000E+00 0. -1.
         11    1    3    3    0    0  0.26304041686E+02  0.42881835229E+02 -0.28248667749E+03  0.28693113697E+03  0.00000000000E+00 0.  1.
        -11    1    4    4    0    0 -0.62613394807E+02  0.31302150332E+02 -0.94504805605E+02  0.11760705807E+03  0.00000000000E+00 0.  1.
         11    1    4    4    0    0  0.21542785550E+00 -0.37609571015E+02 -0.24331547567E+02  0.44794535918E+02  0.00000000000E+00 0. -1.
          2    1    1    2  501    0 -0.21127499390E+02  0.97366036016E+01 -0.78007618935E+01  0.24536188911E+02  0.00000000000E+00 0. -1.
<scales pt_clust_5="13000.00000" pt_clust_6="13000.00000" pt_clust_7="13000.00000" pt_clust_8="13000.00000" pt_clust_9="23.26312"></scales>
<clustering>
<clus scale="   23.263">  1  9  2 -1</clus>
<clus scale="   91.208">  7  8 -1 -1</clus>
<clus scale="   91.799">  5  6 -1 -1</clus>
<clus scale="  120.682">  1  7  2 -1</clus>
<clus scale="   23.263">  1  5  2 -1</clus>
</clustering>
</event>
<event>
 9    1  0.1426358E-005  0.1257726E+03  0.7546771E-02  0.1234215E+00
         21   -1    0    0  501  502  0.00000000000E+00  0.00000000000E+00  0.39765252307E+02  0.39765252307E+02  0.00000000000E+00 0.  1.
          3   -1    0    0  502    0 -0.00000000000E+00 -0.00000000000E+00 -0.47298836733E+03  0.47298836733E+03  0.00000000000E+00 0. -1.
         23    2    1    2    0    0 -0.29299782345E+02  0.72033226597E+02 -0.20203086084E+03  0.23425521304E+03  0.89508508673E+02 0.  0.
         23    2    1    2    0    0  0.39083886681E+02 -0.90440235749E+02 -0.20704439270E+03  0.24659753047E+03  0.90752272943E+02 0.  0.
        -11    1    4    4    0    0  0.28481493063E+02  0.99332535447E+01 -0.28495807451E+02  0.41495493917E+02  0.00000000000E+00 0.  1.
         11    1    4    4    0    0  0.10602393618E+02 -0.10037348929E+03 -0.17854858525E+03  0.20510203655E+03  0.00000000000E+00 0. -1.
        -13    1    3    3    0    0  0.32034726550E+02  0.26743047961E+02 -0.60531981870E+02  0.73522344553E+02  0.00000000000E+00 0.  1.
         13    1    3    3    0    0 -0.61334508895E+02  0.45290178636E+02 -0.14149887897E+03  0.16073286849E+03  0.00000000000E+00 0. -1.
          3    1    1    2  501    0 -0.97841043360E+01  0.18407009152E+02 -0.24147861481E+02  0.31900876127E+02  0.00000000000E+00 0. -1.
<scales pt_clust_5="13000.00000" pt_clust_6="13000.00000" pt_clust_7="13000.00000" pt_clust_8="13000.00000" pt_clust_9="20.84578"></scales>
<clustering>
<clus scale="   20.846">  1  9  2 -1</clus>
<clus scale="   89.509">  7  8 -1 -1</clus>
<clus scale="   90.752">  5  6 -1 -1</clus>
<clus scale="  124.878">  2  7  1 -1</clus>
<clus scale="   20.846">  1  5  2 -1</clus>
</clustering>
</event>
<event>
 9    1  0.1426358E-005  0.1050671E+03  0.7546771E-02  0.1270183E+00
          2   -1    0    0  502    0 -0.00000000000E+00  0.00000000000E+00  0.91811346134E+03  0.91811346134E+03  0.00000000000E+00 0. -1.
         21   -1    0    0  501  502  0.00000000000E+00 -0.00000000000E+00 -0.61302379433E+02  0.61302379433E+02  0.00000000000E+00 0. -1.
         23    2    1    2    0    0  0.23635568802E+02  0.83409287080E+01  0.32547729448E+03  0.33877275915E+03  0.90572081331E+02 0.  0.
         23    2    1    2    0    0 -0.80026893750E+02  0.36676170575E+02  0.55139560687E+03  0.56574984189E+03  0.91029243197E+02 0.  0.
        -11    1    3    3    0    0 -0.17666662416E+01  0.47338028176E+02  0.15790891904E+03  0.16486126511E+03  0.00000000000E+00 0.  1.
         11    1    3    3    0    0  0.25402235044E+02 -0.38997099468E+02  0.16756837544E+03  0.17391149404E+03  0.00000000000E+00 0. -1.
        -13    1    4    4    0    0  0.10052841938E+02  0.19035148772E+02  0.33763106821E+02  0.40041776958E+02  0.00000000000E+00 0.  1.
         13    1    4    4    0    0 -0.90079735687E+02  0.17641021803E+02  0.51763250005E+03  0.52570806494E+03  0.00000000000E+00 0. -1.
          2    1    1    2  501    0  0.56391324947E+02 -0.45017099283E+02 -0.20061819444E+02  0.74893239726E+02  0.00000000000E+00 0. -1.
<scales pt_clust_5="13000.00000" pt_clust_6="13000.00000" pt_clust_7="13000.00000" pt_clust_8="13000.00000" pt_clust_9="72.15622"></scales>
<clustering>
<clus scale="   72.156">  2  9  1 -1</clus>
<clus scale="   90.572">  5  6 -1 -1</clus>
<clus scale="   91.029">  7  8 -1 -1</clus>
<clus scale="  104.671">  1  5  2 -1</clus>
<clus scale="   72.156">  2  5  1 -1</clus>
</clustering>
</event>
<event>
 9    1  0.1426358E-005  0.9155180E+02  0.7546771E-02  0.1305556E+00
          1   -1    0    0  502    0 -0.00000000000E+00  0.00000000000E+00  0.32275753740E+03  0.32275753740E+03  0.00000000000E+00 0. -1.
         21   -1    0    0  501  502  0.00000000000E+00 -0.00000000000E+00 -0.13455814148E+03  0.13455814148E+03  0.00000000000E+00 0. -1.
         23    2    1    2    0    0 -0.41295692642E+01 -0.53703296445E+01  0.19891916164E+03  0.21901554157E+03  0.91395190251E+02 0.  0.
         23    2    1    2    0    0 -0.19378780195E+02 -0.14023194347E+02  0.95607275315E+02  0.12769186039E+03  0.81192813821E+02 0.  0.
        -13    1    3    3    0    0 -0.32866431159E+02  0.30870604969E+02  0.10710552326E+03  0.11621010998E+03  0.00000000000E+00 0.  1.
         13    1    3    3    0    0  0.28736861895E+02 -0.36240934614E+02  0.91813638373E+02  0.10280543159E+03  0.00000000000E+00 0. -1.
        -13    1    4    4    0    0 -0.44985831220E+01  0.30718431805E+02  0.63392118009E+02  0.70586258778E+02  0.00000000000E+00 0.  1.
         13    1    4    4    0    0 -0.14880197073E+02 -0.44741626152E+02  0.32215157307E+02  0.57105601616E+02  0.00000000000E+00 0. -1.
          1    1    1    2  501    0  0.23508349460E+02  0.19393523991E+02 -0.10632704103E+03  0.11060827692E+03  0.00000000000E+00 0. -1.
<scales pt_clust_5="13000.00000" pt_clust_6="13000.00000" pt_clust_7="13000.00000" pt_clust_8="13000.00000" pt_clust_9="30.47542"></scales>
<clustering>
<clus scale="   30.475">  2  9  1 -1</clus>
<clus scale="   81.193">  7  8 -1 -1</clus>
<clus scale="   81.369">  2  7  1 -1</clus>
<clus scale="   91.395">  5  6 -1 -1</clus>
<clus scale="   30.475">  2  5  1 -1</clus>
</clustering>
</event>
<event>
 9    1  0.1426358E-005  0.1106822E+03  0.7546771E-02  0.1259871E+00
         21   -1    0    0  501  502  0.00000000000E+00  0.00000000000E+00  0.35093882559E+03  0.35093882559E+03  0.00000000000E+00 0. -1.
          1   -1    0    0  502    0 -0.00000000000E+00 -0.00000000000E+00 -0.77517117835E+02  0.77517117835E+02  0.00000000000E+00 0. -1.
         23    2    1    2    0    0  0.71709912871E+02 -0.19937956276E+02  0.57661432818E+01  0.11748385667E+03  0.90715899737E+02 0.  0.
         23    2    1    2    0    0 -0.34580997142E+02  0.26019191228E+01  0.10807452628E+03  0.14621407536E+03  0.92172866165E+02 0.  0.
        -11    1    3    3    0    0  0.35396975531E+02 -0.34652036386E+02 -0.35222552328E+02  0.60781063621E+02  0.00000000000E+00 0. -1.
         11    1    3    3    0    0  0.36312937340E+02  0.14714080110E+02  0.40988695609E+02  0.56702793048E+02  0.00000000000E+00 0.  1.
        -11    1    4    4    0    0 -0.35209160667E+02  0.30712608500E+02  0.15131868306E+02  0.49111330202E+02  0.00000000000E+00 0.  1.
         11    1    4    4    0    0  0.62816352461E+00 -0.28110689377E+02  0.92942657973E+02  0.97102745160E+02  0.00000000000E+00 0. -1.
          1    1    1    2  501    0 -0.37128915728E+02  0.17336037153E+02  0.15958103819E+03  0.16475801139E+03  0.00000000000E+00 0. -1.
<scales pt_clust_5="13000.00000" pt_clust_6="13000.00000" pt_clust_7="13000.00000" pt_clust_8="13000.00000" pt_clust_9="40.97676"></scales>
<clustering>
<clus scale="   40.977">  1  9  2 -1</clus>
<clus scale="   90.716">  5  6 -1 -1</clus>
<clus scale="   92.173">  7  8 -1 -1</clus>
<clus scale="  109.472">  2  5  1 -1</clus>
<clus scale="   40.977">  1  5  2 -1</clus>
</clustering>
</event>
<event>
 9    1  0.1426358E-005  0.2272311E+03  0.7546771E-02  0.1128787E+00
          2   -1    0    0  502    0 -0.00000000000E+00  0.00000000000E+00  0.10210093460E+04  0.10210093460E+04  0.00000000000E+00 0. -1.
         21   -1    0    0  501  502  0.00000000000E+00 -0.00000000000E+00 -0.10209163622E+03  0.10209163622E+03  0.00000000000E+00 0.  1.
         23    2    1    2    0    0 -0.35869434005E+02 -0.21191540062E+03  0.52447465960E+03  0.57397745819E+03  0.90452753559E+02 0.  0.
         23    2    1    2    0    0  0.77916397897E+02  0.18627961268E+03  0.43290059270E+03  0.48664053944E+03  0.92978665877E+02 0.  0.
        -11    1    4    4    0    0  0.24241422610E+02  0.13213061729E+03  0.19478662851E+03  0.23661778725E+03  0.00000000000E+00 0. -1.
         11    1    4    4    0    0  0.53674975287E+02  0.54148995389E+02  0.23811396418E+03  0.25002275219E+03  0.00000000000E+00 0.  1.
        -13    1    3    3    0    0 -0.89347286548E+01 -0.66084685833E+02  0.73489203978E+02  0.99235468352E+02  0.00000000000E+00 0.  1.
         13    1    3    3    0    0 -0.26934705350E+02 -0.14583071478E+03  0.45098545562E+03  0.47474198983E+03  0.00000000000E+00 0. -1.
          2    1    1    2  501    0 -0.42046963893E+02  0.25635787941E+02 -0.38457542479E+02  0.62482984639E+02  0.00000000000E+00 0. -1.
<scales pt_clust_5="13000.00000" pt_clust_6="13000.00000" pt_clust_7="13000.00000" pt_clust_8="13000.00000" pt_clust_9="49.24572"></scales>
<clustering>
<clus scale="   49.246">  2  9  1 -1</clus>
<clus scale="   90.453">  7  8 -1 -1</clus>
<clus scale="   92.979">  5  6 -1 -1</clus>
<clus scale="  226.209">  1  7  2 -1</clus>
<clus scale="   49.246">  2  5  1 -1</clus>
</clustering>
</event>
<event>
 9    1  0.1426358E-005  0.1063682E+03  0.7546771E-02  0.1267801E+00
         21   -1    0    0  501  502  0.00000000000E+00  0.00000000000E+00  0.69649186612E+02  0.69649186612E+02  0.00000000000E+00 0. -1.
         -3   -1    0    0    0  501 -0.00000000000E+00 -0.00000000000E+00 -0.21738512473E+03  0.21738512473E+03  0.00000000000E+00 0.  1.
         23    2    1    2    0    0  0.14103702843E+02  0.52660592315E+02 -0.66623604870E+02  0.12648924864E+03  0.92675632605E+02 0.  0.
         23    2    1    2    0    0 -0.39333069806E+02 -0.33470374386E+02 -0.61134908019E+02  0.12307663679E+03  0.93504145381E+02 0.  0.
        -11    1    4    4    0    0 -0.22690352354E+02  0.27774734642E+02 -0.13563161080E+01  0.35890494114E+02  0.00000000000E+00 0. -1.
         11    1    4    4    0    0 -0.16642717452E+02 -0.61245109028E+02 -0.59778591911E+02  0.87186142677E+02  0.00000000000E+00 0.  1.
        -13    1    3    3    0    0 -0.11099540817E+02  0.59226881939E+02 -0.60586852480E+01  0.60561795032E+02  0.00000000000E+00 0. -1.
         13    1    3    3    0    0  0.25203243660E+02 -0.65662896240E+01 -0.60564919622E+02  0.65927453608E+02  0.00000000000E+00 0.  1.
         -3    1    1    2    0  502  0.25229366962E+02 -0.19190217930E+02 -0.19977425231E+02  0.37468425912E+02  0.00000000000E+00 0.  1.
<scales pt_clust_5="13000.00000" pt_clust_6="13000.00000" pt_clust_7="13000.00000" pt_clust_8="13000.00000" pt_clust_9="31.69837"></scales>
<clustering>
<clus scale="   31.698">  1  9  2 -1</clus>
<clus scale="   92.676">  7  8 -1 -1</clus>
<clus scale="   93.504">  5  6 -1 -1</clus>
<clus scale="  105.641">  2  7  1 -1</clus>
<clus scale="   31.698">  1  5  2 -1</clus>
</clustering>
</event>
<event>
 9    1  0.1426358E-005  0.1106443E+03  0.7546771E-02  0.1268421E+00
          2   -1    0    0  502    0 -0.00000000000E+00  0.00000000000E+00  0.62065767920E+02  0.62065767920E+02  0.00000000000E+00 0. -1.
         21   -1    0    0  501  502  0.00000000000E+00 -0.00000000000E+00 -0.27097966266E+03  0.27097966266E+03  0.00000000000E+00 0.  1.
         23    2    1    2    0    0  0.26927105412E+02  0.24896369213E+02 -0.33457374186E+02  0.11698377499E+03  0.10592879457E+03 0.  0.
         23    2    1    2    0    0 -0.28396886385E+02 -0.34954839785E+01 -0.91846136932E+02  0.12974332385E+03  0.87057542173E+02 0.  0.
        -11    1    3    3    0    0 -0.37843253298E+02 -0.91314212993E+01 -0.11202503996E+02  0.40509144287E+02  0.00000000000E+00 0. -1.
         11    1    3    3    0    0  0.64770358709E+02  0.34027790512E+02 -0.22254870190E+02  0.76474630706E+02  0.00000000000E+00 0.  1.
        -11    1    4    4    0    0  0.75319933684E+01  0.26584134191E+02 -0.75035617771E+02  0.79961184641E+02  0.00000000000E+00 0.  1.
         11    1    4    4    0    0 -0.35928879754E+02 -0.30079618170E+02 -0.16810519161E+02  0.49782139207E+02  0.00000000000E+00 0. -1.
          2    1    1    2  501    0  0.14697809736E+01 -0.21400885235E+02 -0.83610383618E+02  0.86318331736E+02  0.00000000000E+00 0. -1.
<scales pt_clust_5="13000.00000" pt_clust_6="13000.00000" pt_clust_7="13000.00000" pt_clust_8="13000.00000" pt_clust_9="21.45130"></scales>
<clustering>
<clus scale="   21.451">  2  9  1 -1</clus>
<clus scale="   87.058">  7  8 -1 -1</clus>
<clus scale="   92.738">  2  7  1 -1</clus>
<clus scale="  105.929">  5  6 -1 -1</clus>
<clus scale="   21.451">  2  5  1 -1</clus>
</clustering>
</event>
<event>
 9    1  0.1426358E-005  0.1035555E+03  0.7546771E-02  0.1274944E+00
         21   -1    0    0  501  502  0.00000000000E+00  0.00000000000E+00  0.31448384896E+03  0.31448384896E+03  0.00000000000E+00 0.  1.
          4   -1    0    0  502    0 -0.00000000000E+00 -0.00000000000E+00 -0.52548294511E+02  0.52548294511E+02  0.00000000000E+00 0. -1.
         23    2    1    2    0    0 -0.34246984358E+02  0.25075736798E+02  0.37312165011E+02  0.11208362859E+03  0.96793045343E+02 0.  0.
         23    2    1    2    0    0  0.25246926798E+02 -0.23018751912E+01  0.17906363225E+03  0.20322481351E+03  0.92702936785E+02 0.  0.
        -11    1    4    4    0    0 -0.24545170295E+02  0.28353561197E+02  0.75233656954E+02  0.84062434868E+02  0.00000000000E+00 0. -1.
         11    1    4    4    0    0  0.49792097092E+02 -0.30655436388E+02  0.10382997529E+03  0.11916237864E+03  0.00000000000E+00 0.  1.
        -13    1    3    3    0    0 -0.24279941466E+02 -0.22017705293E+01  0.66549231538E+02  0.70874280027E+02  0.00000000000E+00 0.  1.
         13    1    3    3    0    0 -0.99670428924E+01  0.27277507327E+02 -0.29237066527E+02  0.41209348564E+02  0.00000000000E+00 0. -1.
          4    1    1    2  501    0  0.90000575605E+01 -0.22773861607E+02  0.45559757191E+02  0.51723701374E+02  0.00000000000E+00 0. -1.
<scales pt_clust_5="13000.00000" pt_clust_6="13000.00000" pt_clust_7="13000.00000" pt_clust_8="13000.00000" pt_clust_9="24.48775"></scales>
<clustering>
<clus scale="   24.488">  1  9  2 -1</clus>
<clus scale="   92.703">  5  6 -1 -1</clus>
<clus scale="   96.793">  7  8 -1 -1</clus>
<clus scale="   99.743">  1  5  2 -1</clus>
<clus scale="   24.488">  1  5  2 -1</clus>
</clustering>
</event>
<event>
 9    1  0.1426358E-005  0.1356445E+03  0.7546771E-02  0.1223379E+00
         21   -1    0    0  501  502  0.00000000000E+00  0.00000000000E+00  0.60221499138E+02  0.60221499138E+02  0.00000000000E+00 0. -1.
          2   -1    0    0  502    0 -0.00000000000E+00 -0.00000000000E+00 -0.10758161991E+04  0.10758161991E+04  0.00000000000E+00 0. -1.
         23    2    1    2    0    0  0.18442321751E+02 -0.61912850567E+02 -0.36389859385E+03  0.37871129063E+03  0.82624056734E+02 0.  0.
         23    2    1    2    0    0 -0.68498393368E+02  0.11625379907E+03 -0.66197324541E+03  0.68273305281E+03  0.98533588528E+02 0.  0.
        -11    1    3    3    0    0 -0.18766437127E+01 -0.63751322539E+02 -0.34518164895E+03  0.35102439187E+03  0.00000000000E+00 0.  1.
         11    1    3    3    0    0  0.20318965463E+02  0.18384719719E+01 -0.18716944898E+02  0.27686898761E+02  0.00000000000E+00 0. -1.
        -13    1    4    4    0    0 -0.19327126706E+02 -0.13504985509E+02 -0.50798437951E+02  0.56003604872E+02  0.00000000000E+00 0.  1.
         13    1    4    4    0    0 -0.49171266661E+02  0.12975878458E+03 -0.61117480746E+03  0.62672944794E+03  0.00000000000E+00 0. -1.
          2    1    1    2  501    0  0.50056071617E+02 -0.54340948506E+02  0.10277139279E+02  0.74593354812E+02  0.00000000000E+00 0. -1.
<scales pt_clust_5="13000.00000" pt_clust_6="13000.00000" pt_clust_7="13000.00000" pt_clust_8="13000.00000" pt_clust_9="73.88199"></scales>
<clustering>
<clus scale="   73.882">  1  9  2 -1</clus>
<clus scale="   82.624">  5  6 -1 -1</clus>
<clus scale="   98.534">  7  8 -1 -1</clus>
<clus scale="  124.568">  2  5  1 -1</clus>
<clus scale="   73.882">  1  5  2 -1</clus>
</clustering>
</event>
<event>
 9    1  0.1426358E-005  0.1154419E+03  0.7546771E-02  0.1250866E+00
          1   -1    0    0  502    0 -0.00000000000E+00  0.00000000000E+00  0.79453528165E+03  0.79453528165E+03  0.00000000000E+00 0. -1.
         21   -1    0    0  501  502  0.00000000000E+00 -0.00000000000E+00 -0.22201449792E+02  0.22201449792E+02  0.00000000000E+00 0. -1.
         23    2    1    2    0    0 -0.71121528891E+02 -0.41367640848E+02  0.38066770452E+03  0.39989345018E+03  0.90759664267E+02 0.  0.
         23    2    1    2    0    0  0.61446689170E+02  0.10329583693E+02  0.29262711390E+03  0.31260466222E+03  0.90601606728E+02 0.  0.
        -11    1    4    4    0    0  0.15510604015E+02 -0.38856125396E+02  0.94135748355E+02  0.10301415648E+03  0.00000000000E+00 0. -1.
         11    1    4    4    0    0  0.45936085155E+02  0.49185709089E+02  0.19849136554E+03  0.20959050573E+03  0.00000000000E+00 0.  1.
        -11    1    3    3    0    0  0.50530894579E+00 -0.49499791832E+02  0.17945563316E+03  0.18615802159E+03  0.00000000000E+00 0.  1.
         11    1    3    3    0    0 -0.71626837836E+02  0.81321509845E+01  0.20121207135E+03  0.21373542860E+03  0.00000000000E+00 0. -1.
          1    1    1    2  501    0  0.96748397205E+01  0.31038057155E+02  0.99039013443E+02  0.10423861904E+03  0.00000000000E+00 0. -1.
<scales pt_clust_5="13000.00000" pt_clust_6="13000.00000" pt_clust_7="13000.00000" pt_clust_8="13000.00000" pt_clust_9="32.51099"></scales>
<clustering>
<clus scale="   32.511">  2  9  1 -1</clus>
<clus scale="   90.602">  5  6 -1 -1</clus>
<clus scale="   90.760">  7  8 -1 -1</clus>
<clus scale="  115.318">  2  5  1 -1</clus>
<clus scale="   32.511">  2  5  1 -1</clus>
</clustering>
</event>
<event>
 9    1  0.1426358E-005  0.1064740E+03  0.7546771E-02  0.1267735E+00
         21   -1    0    0  501  502  0.00000000000E+00  0.00000000000E+00  0.10205840752E+03  0.10205840752E+03  0.00000000000E+00 0. -1.
          2   -1    0    0  502    0 -0.00000000000E+00 -0.00000000000E+00 -0.34446812026E+03  0.34446812026E+03  0.00000000000E+00 0. -1.
         23    2    1    2    0    0  0.46806855319E+01  0.54768094063E+02 -0.26330180032E+03  0.28451812675E+03  0.92743050706E+02 0.  0.
         23    2    1    2    0    0 -0.29713684553E+02 -0.27855940518E+02 -0.22858527929E+02  0.10486794771E+03  0.93893118415E+02 0.  0.
        -11    1    3    3    0    0 -0.23968041953E+02 -0.17687960624E+02 -0.67285234354E+02  0.73584194962E+02  0.00000000000E+00 0.  1.
         11    1    3    3    0    0  0.28648727485E+02  0.72456054687E+02 -0.19601656596E+03  0.21093393179E+03  0.00000000000E+00 0. -1.
        -13    1    4    4    0    0 -0.52835308749E+01 -0.60634977350E+02 -0.80871046822E+01  0.61399653411E+02  0.00000000000E+00 0.  1.
         13    1    4    4    0    0 -0.24430153678E+02  0.32779036833E+02 -0.14771423247E+02  0.43468294298E+02  0.00000000000E+00 0. -1.
          2    1    1    2  501    0  0.25032999021E+02 -0.26912153546E+02  0.43750615508E+02  0.57140453321E+02  0.00000000000E+00 0. -1.
<scales pt_clust_5="13000.00000" pt_clust_6="13000.00000" pt_clust_7="13000.00000" pt_clust_8="13000.00000" pt_clust_9="36.75480"></scales>
<clustering>
<clus scale="   36.755">  1  9  2 -1</clus>
<clus scale="   92.743">  5  6 -1 -1</clus>
<clus scale="   93.893">  7  8 -1 -1</clus>
<clus scale="  105.461">  2  5  1 -1</clus>
<clus scale="   36.755">  1  5  2 -1</clus>
</clustering>
</event>
<event>
 9    1  0.1426358E-005  0.1118830E+03  0.7546771E-02  0.1262302E+00
         21   -1    0    0  501  502  0.00000000000E+00  0.00000000000E+00  0.50422613671E+03  0.50422613671E+03  0.00000000000E+00 0. -1.
          1   -1    0    0  502    0 -0.00000000000E+00 -0.00000000000E+00 -0.34929430006E+02  0.34929430006E+02  0.00000000000E+00 0. -1.
         23    2    1    2    0    0  0.31603117456E+02  0.21480320036E+02  0.18529684134E+03  0.21162860425E+03  0.94823971362E+02 0.  0.
         23    2    1    2    0    0 -0.38893340636E+02  0.21887372319E+02  0.23455365821E+03  0.26135422264E+03  0.10629610576E+03 0.  0.
        -13    1    4    4    0    0 -0.56031848572E+00 -0.39228638683E+02  0.52595262709E+02  0.65616017169E+02  0.00000000000E+00 0.  1.
         13    1    4    4    0    0 -0.38333022150E+02  0.61116011001E+02  0.18195839550E+03  0.19573820547E+03  0.00000000000E+00 0. -1.
        -13    1    3    3    0    0  0.32106200198E+02 -0.27018023015E+02  0.38211267237E+02  0.56752820218E+02  0.00000000000E+00 0.  1.
         13    1    3    3    0    0 -0.50308274179E+00  0.48498343051E+02  0.14708557410E+03  0.15487578403E+03  0.00000000000E+00 0. -1.
          1    1    1    2  501    0  0.72902231799E+01 -0.43367692355E+02  0.49446207162E+02  0.66172739832E+02  0.00000000000E+00 0. -1.
<scales pt_clust_5="13000.00000" pt_clust_6="13000.00000" pt_clust_7="13000.00000" pt_clust_8="13000.00000" pt_clust_9="43.97620"></scales>
<clustering>
<clus scale="   43.976">  1  9  2 -1</clus>
<clus scale="   94.824">  7  8 -1 -1</clus>
<clus scale="  101.047">  2  7  1 -1</clus>
<clus scale="  106.296">  5  6 -1 -1</clus>
<clus scale="   43.976">  1  5  2 -1</clus>
</clustering>
</event>
<event>
 9    1  0.1426358E-005  0.9302137E+02  0.7546771E-02  0.1296844E+00
         21   -1    0    0  501  502  0.00000000000E+00  0.00000000000E+00  0.66661161534E+02  0.66661161534E+02  0.00000000000E+00 0. -1.
          1   -1    0    0  502    0 -0.00000000000E+00 -0.00000000000E+00 -0.28671122871E+03  0.28671122871E+03  0.00000000000E+00 0. -1.
         23    2    1    2    0    0  0.57773068766E+01  0.13282998980E+02 -0.15463876355E+03  0.18096621494E+03  0.92875230409E+02 0.  0.
         23    2    1    2    0    0  0.30363038919E+00  0.34597510148E+02 -0.75454674128E+02  0.12310718704E+03  0.90911450061E+02 0.  0.
        -11    1    4    4    0    0  0.44381796676E+02  0.27880578300E+02 -0.36159243448E+02  0.63675438037E+02  0.00000000000E+00 0.  1.
         11    1    4    4    0    0 -0.44078166287E+02  0.67169318484E+01 -0.39295430681E+02  0.59431748999E+02  0.00000000000E+00 0. -1.
        -13    1    3    3    0    0 -0.39644716405E+02  0.24471977050E+02 -0.66716571212E+02  0.81373718570E+02  0.00000000000E+00 0. -1.
         13    1    3    3    0    0  0.45422023281E+02 -0.11188978071E+02 -0.87922192333E+02  0.99592496374E+02  0.00000000000E+00 0.  1.
          1    1    1    2  501    0 -0.60809372658E+01 -0.47880509128E+02  0.10043370502E+02  0.49298988260E+02  0.00000000000E+00 0. -1.
<scales pt_clust_5="13000.00000" pt_clust_6="13000.00000" pt_clust_7="13000.00000" pt_clust_8="13000.00000" pt_clust_9="48.26511"></scales>
<clustering>
<clus scale="   48.265">  1  9  2 -1</clus>
<clus scale="   90.911">  5  6 -1 -1</clus>
<clus scale="   91.061">  1  5  2 -1</clus>
<clus scale="   92.875">  7  8 -1 -1</clus>
<clus scale="   48.265">  1  5  2 -1</clus>
</clustering>
</event>
<event>
 9    1  0.1426358E-005  0.1052221E+03  0.7546771E-02  0.1270441E+00
         21   -1    0    0  501  502  0.00000000000E+00  0.00000000000E+00  0.11087809866E+03  0.11087809866E+03  0.00000000000E+00 0. -1.
          1   -1    0    0  502    0 -0.00000000000E+00 -0.00000000000E+00 -0.25237972457E+03  0.25237972457E+03  0.00000000000E+00 0. -1.
         23    2    1    2    0    0 -0.58935337930E+02  0.22696476559E+02 -0.17275275178E+03  0.20590454720E+03  0.92545476428E+02 0.  0.
         23    2    1    2    0    0  0.31004562989E+01 -0.23717553780E+02  0.11321600370E+01  0.93904645563E+02  0.90800140338E+02 0.  0.
        -11    1    4    4    0    0  0.24740075507E+02  0.71256663540E+00  0.37568964774E+02  0.44988956439E+02  0.00000000000E+00 0.  1.
         11    1    4    4    0    0 -0.21639619209E+02 -0.24430120416E+02 -0.36436804737E+02  0.48915689124E+02  0.00000000000E+00 0. -1.
        -13    1    3    3    0    0 -0.25727900262E+02 -0.21693402622E+02 -0.13426304693E+03  0.13841638032E+03  0.00000000000E+00 0.  1.
         13    1    3    3    0    0 -0.33207437668E+02  0.44389879181E+02 -0.38489704843E+02  0.67488166882E+02  0.00000000000E+00 0. -1.
          1    1    1    2  501    0  0.55834881631E+02  0.10210772217E+01  0.30118965834E+02  0.63448630468E+02  0.00000000000E+00 0. -1.
<scales pt_clust_5="13000.00000" pt_clust_6="13000.00000" pt_clust_7="13000.00000" pt_clust_8="13000.00000" pt_clust_9="55.84422"></scales>
<clustering>
<clus scale="   55.844">  1  9  2 -1</clus>
<clus scale="   90.800">  5  6 -1 -1</clus>
<clus scale="   92.545">  7  8 -1 -1</clus>
<clus scale="  103.690">  1  5  2 -1</clus>
<clus scale="   55.844">  1  5  2 -1</clus>
</clustering>
</event>
<event>
 9    1  0.1426358E-005  0.1027804E+03  0.7546771E-02  0.1275765E+00
          2   -1    0    0  502    0 -0.00000000000E+00  0.00000000000E+00  0.16992325412E+03  0.16992325412E+03  0.00000000000E+00 0. -1.
         21   -1    0    0  501  502  0.00000000000E+00 -0.00000000000E+00 -0.92643793729E+02  0.92643793729E+02  0.00000000000E+00 0.  1.
         23    2    1    2    0    0  0.44292505618E+02  0.67331402138E+01  0.82545071637E+02  0.13289303506E+03  0.94019724971E+02 0.  0.
         23    2    1    2    0    0 -0.31197613768E+02 -0.23543622235E+02  0.14641950707E+02  0.10051274531E+03  0.91437585246E+02 0.  0.
        -11    1    3    3    0    0 -0.16732390521E+02  0.16763184909E+02 -0.64244138595E+01  0.24540789601E+02  0.00000000000E+00 0.  1.
         11    1    3    3    0    0  0.61024896139E+02 -0.10030044695E+02  0.88969485497E+02  0.10835224545E+03  0.00000000000E+00 0. -1.
        -11    1    4    4    0    0 -0.46414773044E+02 -0.42718511851E+02 -0.12129760193E+02  0.64236543290E+02  0.00000000000E+00 0.  1.
         11    1    4    4    0    0  0.15217159276E+02  0.19174889616E+02  0.26771710900E+02  0.36276202016E+02  0.00000000000E+00 0. -1.
          2    1    1    2  501    0 -0.13094891851E+02  0.16810482021E+02 -0.19907561955E+02  0.29161267485E+02  0.00000000000E+00 0. -1.
<scales pt_clust_5="13000.00000" pt_clust_6="13000.00000" pt_clust_7="13000.00000" pt_clust_8="13000.00000" pt_clust_9="21.30888"></scales>
<clustering>
<clus scale="   21.309">  2  9  1 -1</clus>
<clus scale="   91.438">  7  8 -1 -1</clus>
<clus scale="   94.020">  5  6 -1 -1</clus>
<clus scale="  100.424">  2  7  1 -1</clus>
<clus scale="   21.309">  2  5  1 -1</clus>
</clustering>
</event>
<event>
 9    1  0.1642139E-005  0.1515785E+03  0.7546771E-02  0.1199161E+00
         21   -1    0    0  501  502  0.00000000000E+00  0.00000000000E+00  0.10564480035E+03  0.10564480035E+03  0.00000000000E+00 0. -1.
          3   -1    0    0  502    0 -0.00000000000E+00 -0.00000000000E+00 -0.66793197074E+03  0.66793197074E+03  0.00000000000E+00 0. -1.
         23    2    1    2    0    0  0.41349606167E+01  0.11184325767E+03 -0.46324488338E+03  0.48597034285E+03  0.95106992214E+02 0.  0.
         23    2    1    2    0    0  0.24974815463E+02 -0.16376513573E+03 -0.22672108480E+02  0.19077841238E+03  0.91867388338E+02 0.  0.
        -11    1    4    4    0    0  0.29584281034E+02 -0.65656389354E+02  0.31512125976E+02  0.78606648770E+02  0.00000000000E+00 0. -1.
         11    1    4    4    0    0 -0.46094655711E+01 -0.98108746377E+02 -0.54184234456E+02  0.11217176361E+03  0.00000000000E+00 0.  1.
        -11    1    3    3    0    0  0.21046187010E+02 -0.41819662155E+01 -0.28398664660E+02  0.35593749220E+02  0.00000000000E+00 0.  1.
         11    1    3    3    0    0 -0.16911226393E+02  0.11602522388E+03 -0.43484621872E+03  0.45037659363E+03  0.00000000000E+00 0. -1.
          3    1    1    2  501    0 -0.29109776080E+02  0.51921878063E+02 -0.76370178529E+02  0.96828015850E+02  0.00000000000E+00 0. -1.
<scales pt_clust_5="13000.00000" pt_clust_6="13000.00000" pt_clust_7="13000.00000" pt_clust_8="13000.00000" pt_clust_9="59.52532"></scales>
<clustering>
<clus scale="   59.525">  1  9  2 -1</clus>
<clus scale="   91.867">  5  6 -1 -1</clus>
<clus scale="   95.107">  7  8 -1 -1</clus>
<clus scale="  149.567">  1  5  2 -1</clus>
<clus scale="   59.525">  1  5  2 -1</clus>
</clustering>
</event>
<event>
 9    1  0.1426358E-005  0.1127259E+03  0.7546771E-02  0.1255738E+00
         21   -1    0    0  501  502  0.00000000000E+00  0.00000000000E+00  0.96212333087E+02  0.96212333087E+02  0.00000000000E+00 0. -1.
          1   -1    0    0  502    0 -0.00000000000E+00 -0.00000000000E+00 -0.26827743996E+03  0.26827743996E+03  0.00000000000E+00 0. -1.
         23    2    1    2    0    0 -0.50934280983E+02  0.55338285711E+02 -0.15930063143E+03  0.19776629253E+03  0.89878742981E+02 0.  0.
         23    2    1    2    0    0  0.29073488944E+02 -0.48798862852E+02 -0.54471521658E+02  0.11918259303E+03  0.89502776684E+02 0.  0.
        -11    1    4    4    0    0 -0.19184632147E+02 -0.65380074143E+01 -0.51070767573E+02  0.54945599933E+02  0.00000000000E+00 0. -1.
         11    1    4    4    0    0  0.48258121091E+02 -0.42260855437E+02 -0.34007540855E+01  0.64236993095E+02  0.00000000000E+00 0.  1.
        -11    1    3    3    0    0 -0.68811020555E+02  0.11415070389E+02 -0.96721855834E+02  0.11924922548E+03  0.00000000000E+00 0. -1.
         11    1    3    3    0    0  0.17876739572E+02  0.43923215322E+02 -0.62578775600E+02  0.78517067046E+02  0.00000000000E+00 0.  1.
          1    1    1    2  501    0  0.21860792039E+02 -0.65394228593E+01  0.41707046215E+02  0.47540887496E+02  0.00000000000E+00 0. -1.
<scales pt_clust_5="13000.00000" pt_clust_6="13000.00000" pt_clust_7="13000.00000" pt_clust_8="13000.00000" pt_clust_9="22.81794"></scales>
<clustering>
<clus scale="   22.818">  1  9  2 -1</clus>
<clus scale="   89.503">  5  6 -1 -1</clus>
<clus scale="   89.879">  7  8 -1 -1</clus>
<clus scale="  112.426">  1  5  2 -1</clus>
<clus scale="   22.818">  1  5  2 -1</clus>
</clustering>
</event>
<event>
 9    1  0.1426358E-005  0.1100522E+03  0.7546771E-02  0.1266071E+00
         21   -1    0    0  501  502  0.00000000000E+00  0.00000000000E+00  0.32073496041E+02  0.32073496041E+02  0.00000000000E+00 0.  1.
          2   -1    0    0  502    0 -0.00000000000E+00 -0.00000000000E+00 -0.60676102961E+03  0.60676102961E+03  0.00000000000E+00 0. -1.
         23    2    1    2    0    0 -0.38455883286E+02  0.26479204051E+02 -0.25057262764E+03  0.26605917752E+03  0.76294436319E+02 0.  0.
         23    2    1    2    0    0  0.66520260146E+02 -0.62807635397E+02 -0.28399323058E+03  0.31180721706E+03  0.90564018938E+02 0.  0.
        -11    1    4    4    0    0  0.72297728539E+02 -0.72238133598E+01 -0.16886030809E+03  0.18382858505E+03  0.00000000000E+00 0. -1.
         11    1    4    4    0    0 -0.57774683936E+01 -0.55583822038E+02 -0.11513292248E+03  0.12797863202E+03  0.00000000000E+00 0.  1.
        -13    1    3    3    0    0  0.18154793543E+02 -0.94315533030E+01 -0.37884572869E+02  0.43055680087E+02  0.00000000000E+00 0.  1.
         13    1    3    3    0    0 -0.56610676828E+02  0.35910757354E+02 -0.21268805477E+03  0.22300349744E+03  0.00000000000E+00 0. -1.
          2    1    1    2  501    0 -0.28064376860E+02  0.36328431346E+02 -0.40121675348E+02  0.60968131063E+02  0.00000000000E+00 0. -1.
<scales pt_clust_5="13000.00000" pt_clust_6="13000.00000" pt_clust_7="13000.00000" pt_clust_8="13000.00000" pt_clust_9="45.90604"></scales>
<clustering>
<clus scale="   45.906">  1  9  2 -1</clus>
<clus scale="   76.294">  7  8 -1 -1</clus>
<clus scale="   90.564">  5  6 -1 -1</clus>
<clus scale="   98.643">  2  7  1 -1</clus>
<clus scale="   45.906">  1  5  2 -1</clus>
</clustering>
</event>
<event>
 9    1  0.1426358E-005  0.9460372E+02  0.7546771E-02  0.1292153E+00
         21   -1    0    0  501  502  0.00000000000E+00  0.00000000000E+00  0.23575465118E+02  0.23575465118E+02  0.00000000000E+00 0.  1.
          3   -1    0    0  502    0 -0.00000000000E+00 -0.00000000000E+00 -0.53867738354E+03  0.53867738354E+03  0.00000000000E+00 0. -1.
         23    2    1    2    0    0 -0.20977673838E+02 -0.17432936615E+02 -0.25931214052E+03  0.27612896408E+03  0.90887009542E+02 0.  0.
         23    2    1    2    0    0  0.27396136988E+01  0.28275287946E+02 -0.24371868342E+03  0.26171292922E+03  0.91037702504E+02 0.  0.
        -11    1    4    4    0    0 -0.27642194388E+02 -0.21494470498E+02 -0.11884265179E+03  0.12389382171E+03  0.00000000000E+00 0. -1.
         11    1    4    4    0    0  0.30381808087E+02  0.49769758443E+02 -0.12487603164E+03  0.13781910751E+03  0.00000000000E+00 0.  1.
        -11    1    3    3    0    0 -0.48006735456E+02 -0.28146603897E+02 -0.10238788685E+03  0.11653393212E+03  0.00000000000E+00 0.  1.
         11    1    3    3    0    0  0.27029061618E+02  0.10713667281E+02 -0.15692425366E+03  0.15959503196E+03  0.00000000000E+00 0. -1.
          3    1    1    2  501    0  0.18238060139E+02 -0.10842351330E+02 -0.12071094486E+02  0.24410955370E+02  0.00000000000E+00 0. -1.
<scales pt_clust_5="13000.00000" pt_clust_6="13000.00000" pt_clust_7="13000.00000" pt_clust_8="13000.00000" pt_clust_9="21.21753"></scales>
<clustering>
<clus scale="   21.218">  1  9  2 -1</clus>
<clus scale="   90.887">  7  8 -1 -1</clus>
<clus scale="   91.038">  5  6 -1 -1</clus>
<clus scale="   94.459">  2  7  1 -1</clus>
<clus scale="   21.218">  1  5  2 -1</clus>
</clustering>
</event>
<event>
 9    1  0.1426358E-005  0.1556120E+03  0.7546771E-02  0.1193815E+00
          2   -1    0    0  502    0 -0.00000000000E+00  0.00000000000E+00  0.15988020472E+04  0.15988020472E+04  0.00000000000E+00 0. -1.
         21   -1    0    0  501  502  0.00000000000E+00 -0.00000000000E+00 -0.32082517939E+02  0.32082517939E+02  0.00000000000E+00 0. -1.
         23    2    1    2    0    0 -0.95263560618E+02  0.68613940237E+02  0.75366192115E+03  0.76803752382E+03  0.89957366729E+02 0.  0.
         23    2    1    2    0    0  0.11349432843E+03 -0.77005691730E+02  0.82384637154E+03  0.84006152386E+03  0.90386286672E+02 0.  0.
        -11    1    3    3    0    0 -0.96812708978E+01 -0.20124866833E+02  0.74438663292E+02  0.77716483862E+02  0.00000000000E+00 0. -1.
         11    1    3    3    0    0 -0.85582289721E+02  0.88738807070E+02  0.67922325786E+03  0.69032103996E+03  0.00000000000E+00 0.  1.
        -11    1    4    4    0    0  0.95558965067E+02 -0.93772550362E+02  0.75910249346E+03  0.77081865739E+03  0.00000000000E+00 0. -1.
         11    1    4    4    0    0  0.17935363360E+02  0.16766858633E+02  0.64743878084E+02  0.69242866468E+02  0.00000000000E+00 0.  1.
          2    1    1    2  501    0 -0.18230767808E+02  0.83917514928E+01 -0.10788763455E+02  0.22785517437E+02  0.00000000000E+00 0. -1.
<scales pt_clust_5="13000.00000" pt_clust_6="13000.00000" pt_clust_7="13000.00000" pt_clust_8="13000.00000" pt_clust_9="20.06944"></scales>
<clustering>
<clus scale="   20.069">  2  9  1 -1</clus>
<clus scale="   89.957">  5  6 -1 -1</clus>
<clus scale="   90.386">  7  8 -1 -1</clus>
<clus scale="  155.363">  1  5  2 -1</clus>
<clus scale="   20.069">  2  5  1 -1</clus>
</clustering>
</event>
<event>
 9    1  0.1426358E-005  0.1044714E+03  0.7546771E-02  0.1272182E+00
         21   -1    0    0  501  502  0.00000000000E+00  0.00000000000E+00  0.10876640555E+03  0.10876640555E+03  0.00000000000E+00 0. -1.
          1   -1    0    0  502    0 -0.00000000000E+00 -0.00000000000E+00 -0.40477607969E+03  0.40477607969E+03  0.00000000000E+00 0. -1.
         23    2    1    2    0    0 -0.73284488769E+01 -0.56283117071E+02 -0.30851561594E+03  0.32578746518E+03  0.87943685153E+02 0.  0.
         23    2    1    2    0    0  0.13616368821E+02  0.37148281180E+02 -0.58031086279E+02  0.11439868283E+03  0.90299786071E+02 0.  0.
        -11    1    4    4    0    0  0.51939918491E+02  0.15061926882E+02 -0.36155139853E+02  0.65052370533E+02  0.00000000000E+00 0.  1.
         11    1    4    4    0    0 -0.38323549670E+02  0.22086354298E+02 -0.21875946426E+02  0.49346312299E+02  0.00000000000E+00 0. -1.
        -11    1    3    3    0    0 -0.33906769044E+02 -0.57001586375E+02 -0.27563406464E+03  0.28350130058E+03  0.00000000000E+00 0. -1.
         11    1    3    3    0    0  0.26578320168E+02  0.71846930333E+00 -0.32881551293E+02  0.42286164599E+02  0.00000000000E+00 0.  1.
          1    1    1    2  501    0 -0.62879199439E+01  0.19134835891E+02  0.70537028074E+02  0.73356337226E+02  0.00000000000E+00 0. -1.
<scales pt_clust_5="13000.00000" pt_clust_6="13000.00000" pt_clust_7="13000.00000" pt_clust_8="13000.00000" pt_clust_9="20.14150"></scales>
<clustering>
<clus scale="   20.141">  1  9  2 -1</clus>
<clus scale="   87.944">  7  8 -1 -1</clus>
<clus scale="   90.300">  5  6 -1 -1</clus>
<clus scale="  102.442">  2  7  1 -1</clus>
<clus scale="   20.141">  1  5  2 -1</clus>
</clustering>
</event>
<event>
 9    1  0.1426358E-005  0.1051094E+03  0.7546771E-02  0.1270264E+00
         -3   -1    0    0    0  501 -0.00000000000E+00  0.00000000000E+00  0.15046816795E+03  0.15046816795E+03  0.00000000000E+00 0.  1.
         21   -1    0    0  501  502  0.00000000000E+00 -0.00000000000E+00 -0.16728180012E+03  0.16728180012E+03  0.00000000000E+00 0. -1.
         23    2    1    2    0    0  0.39929421306E+02 -0.26368630286E+02  0.96024692713E+02  0.14089561423E+03  0.91330001362E+02 0.  0.
         23    2    1    2    0    0 -0.61060945430E+02  0.22879849827E+02 -0.82993258062E+02  0.14011961667E+03  0.92161269026E+02 0.  0.
        -13    1    4    4    0    0 -0.19319176244E+01  0.48094363459E+02 -0.29182002582E+02  0.56288447989E+02  0.00000000000E+00 0. -1.
         13    1    4    4    0    0 -0.59129027805E+02 -0.25214513632E+02 -0.53811255480E+02  0.83831168686E+02  0.00000000000E+00 0.  1.
        -13    1    3    3    0    0  0.63333480712E+02 -0.37357315827E+02  0.86039652486E+02  0.11317915278E+03  0.00000000000E+00 0.  1.
         13    1    3    3    0    0 -0.23404059407E+02  0.10988685541E+02  0.99850402269E+01  0.27716461444E+02  0.00000000000E+00 0. -1.
         -3    1    1    2    0  502  0.21131524124E+02  0.34887804592E+01 -0.29845066822E+02  0.36734737164E+02  0.00000000000E+00 0.  1.
<scales pt_clust_5="13000.00000" pt_clust_6="13000.00000" pt_clust_7="13000.00000" pt_clust_8="13000.00000" pt_clust_9="21.41758"></scales>
<clustering>
<clus scale="   21.418">  2  9  1 -1</clus>
<clus scale="   91.330">  7  8 -1 -1</clus>
<clus scale="   92.161">  5  6 -1 -1</clus>
<clus scale="  104.381">  1  7  2 -1</clus>
<clus scale="   21.418">  2  5  1 -1</clus>
</clustering>
</event>
<event>
 9    1  0.1426358E-005  0.9790499E+02  0.7546771E-02  0.1285701E+00
         21   -1    0    0  501  502  0.00000000000E+00  0.00000000000E+00  0.18985647714E+03  0.18985647714E+03  0.00000000000E+00 0.  1.
          4   -1    0    0  502    0 -0.00000000000E+00 -0.00000000000E+00 -0.16459413937E+03  0.16459413937E+03  0.00000000000E+00 0. -1.
         23    2    1    2    0    0 -0.12749285551E+02  0.33979294744E+02 -0.11146486384E+03  0.14784412753E+03  0.90090695539E+02 0.  0.
         23    2    1    2    0    0 -0.33635070510E+02 -0.24722208580E+02  0.11909875957E+03  0.15612912673E+03  0.91919987576E+02 0.  0.
        -13    1    4    4    0    0 -0.59687299206E+02 -0.38385948755E+02  0.76359768079E+02  0.10424427528E+03  0.00000000000E+00 0.  1.
         13    1    4    4    0    0  0.26052228696E+02  0.13663740175E+02  0.42738991491E+02  0.51884851443E+02  0.00000000000E+00 0. -1.
        -13    1    3    3    0    0 -0.31868022890E+01 -0.25044142109E+02 -0.71753514290E+02  0.76065311252E+02  0.00000000000E+00 0.  1.
         13    1    3    3    0    0 -0.95624832621E+01  0.59023436853E+02 -0.39711349547E+02  0.71778816283E+02  0.00000000000E+00 0. -1.
          4    1    1    2  501    0  0.46384356062E+02 -0.92570861636E+01  0.17628442037E+02  0.50477362254E+02  0.00000000000E+00 0. -1.
<scales pt_clust_5="13000.00000" pt_clust_6="13000.00000" pt_clust_7="13000.00000" pt_clust_8="13000.00000" pt_clust_9="47.29907"></scales>
<clustering>
<clus scale="   47.299">  1  9  2 -1</clus>
<clus scale="   90.091">  7  8 -1 -1</clus>
<clus scale="   91.920">  5  6 -1 -1</clus>
<clus scale="   96.190">  2  7  1 -1</clus>
<clus scale="   47.299">  1  5  2 -1</clus>
</clustering>
</event>
<event>
 9    1  0.1426358E-005  0.1058747E+03  0.7546771E-02  0.1269897E+00
         21   -1    0    0  501  502  0.00000000000E+00  0.00000000000E+00  0.21573932445E+03  0.21573932445E+03  0.00000000000E+00 0. -1.
         -2   -1    0    0    0  501 -0.00000000000E+00 -0.00000000000E+00 -0.65225863909E+02  0.65225863909E+02  0.00000000000E+00 0.  1.
         23    2    1    2    0    0 -0.25434498463E+02  0.28579102754E+02  0.53237755811E+02  0.11294852791E+03  0.91975173205E+02 0.  0.
         23    2    1    2    0    0  0.20935023045E+02 -0.53524417771E+02  0.74573656693E+02  0.13398877475E+03  0.95334269803E+02 0.  0.
        -11    1    4    4    0    0  0.22115035863E+02  0.18271267113E+02 -0.23212283906E+01  0.28780238261E+02  0.00000000000E+00 0.  1.
         11    1    4    4    0    0 -0.11800128174E+01 -0.71795684884E+02  0.76894885084E+02  0.10520853649E+03  0.00000000000E+00 0. -1.
        -13    1    3    3    0    0 -0.46065521815E+02  0.50715008687E+02  0.43520800010E+02  0.81167138916E+02  0.00000000000E+00 0.  1.
         13    1    3    3    0    0  0.20631023353E+02 -0.22135905934E+02  0.97169558008E+01  0.31781388990E+02  0.00000000000E+00 0. -1.
         -2    1    1    2    0  502  0.44994754178E+01  0.24945315017E+02  0.22702048036E+02  0.34027885702E+02  0.00000000000E+00 0.  1.
<scales pt_clust_5="13000.00000" pt_clust_6="13000.00000" pt_clust_7="13000.00000" pt_clust_8="13000.00000" pt_clust_9="25.34786"></scales>
<clustering>
<clus scale="   25.348">  1  9  2 -1</clus>
<clus scale="   91.975">  7  8 -1 -1</clus>
<clus scale="   95.334">  5  6 -1 -1</clus>
<clus scale="  102.860">  2  7  1 -1</clus>
<clus scale="   25.348">  1  5  2 -1</clus>
</clustering>
</event>
<event>
 9    1  0.1426358E-005  0.9900467E+02  0.7546771E-02  0.1284828E+00
         21   -1    0    0  501  502  0.00000000000E+00  0.00000000000E+00  0.22570966820E+03  0.22570966820E+03  0.00000000000E+00 0.  1.
          2   -1    0    0  502    0 -0.00000000000E+00 -0.00000000000E+00 -0.80290062052E+02  0.80290062052E+02  0.00000000000E+00 0. -1.
         23    2    1    2    0    0  0.37430956389E+02 -0.17622338437E+02 -0.15138888650E+02  0.96937082090E+02  0.86348066720E+02 0.  0.
         23    2    1    2    0    0 -0.17135789389E+02  0.32441828733E+02  0.86771191402E+02  0.13111345164E+03  0.91188760349E+02 0.  0.
        -11    1    4    4    0    0 -0.48882027989E+02 -0.31921145296E+01  0.32218181404E+02  0.58631505767E+02  0.00000000000E+00 0.  1.
         11    1    4    4    0    0  0.31746238600E+02  0.35633943263E+02  0.54553009999E+02  0.72481945873E+02  0.00000000000E+00 0. -1.
        -13    1    3    3    0    0  0.55251844948E+02 -0.29335550664E+02 -0.31517348876E+02  0.70047727894E+02  0.00000000000E+00 0. -1.
         13    1    3    3    0    0 -0.17820888559E+02  0.11713212227E+02  0.16378460226E+02  0.26889354196E+02  0.00000000000E+00 0.  1.
          2    1    1    2  501    0 -0.20295167000E+02 -0.14819490296E+02  0.73787303391E+02  0.77949196518E+02  0.00000000000E+00 0. -1.
<scales pt_clust_5="13000.00000" pt_clust_6="13000.00000" pt_clust_7="13000.00000" pt_clust_8="13000.00000" pt_clust_9="25.12988"></scales>
<clustering>
<clus scale="   25.130">  1  9  2 -1</clus>
<clus scale="   86.348">  7  8 -1 -1</clus>
<clus scale="   91.189">  5  6 -1 -1</clus>
<clus scale="   94.565">  2  7  1 -1</clus>
<clus scale="   25.130">  1  5  2 -1</clus>
</clustering>
</event>
<event>
 9    1  0.1426358E-005  0.1235216E+03  0.7546771E-02  0.1237468E+00
          3   -1    0    0  502    0 -0.00000000000E+00  0.00000000000E+00  0.30514201574E+03  0.30514201574E+03  0.00000000000E+00 0. -1.
         21   -1    0    0  501  502  0.00000000000E+00 -0.00000000000E+00 -0.69959373772E+02  0.69959373772E+02  0.00000000000E+00 0.  1.
         23    2    1    2    0    0  0.34873134582E+02  0.62369580826E+02  0.12794508336E+03  0.17275764584E+03  0.91483111611E+02 0.  0.
         23    2    1    2    0    0 -0.41025115802E+02 -0.90235903999E+02  0.10929191986E+03  0.17373257033E+03  0.91720792350E+02 0.  0.
        -11    1    3    3    0    0  0.36384683955E+02 -0.76268779949E+01  0.15456579180E+02  0.40260654918E+02  0.00000000000E+00 0.  1.
         11    1    3    3    0    0 -0.15115493737E+01  0.69996458821E+02  0.11248850418E+03  0.13249699092E+03  0.00000000000E+00 0. -1.
        -11    1    4    4    0    0 -0.35671738229E+02 -0.22097414103E+02 -0.32227332292E+01  0.42085087950E+02  0.00000000000E+00 0.  1.
         11    1    4    4    0    0 -0.53533775730E+01 -0.68138489896E+02  0.11251465309E+03  0.13164748238E+03  0.00000000000E+00 0. -1.
          3    1    1    2  501    0  0.61519812200E+01  0.27866323173E+02 -0.20543612570E+01  0.28611173346E+02  0.00000000000E+00 0. -1.
<scales pt_clust_5="13000.00000" pt_clust_6="13000.00000" pt_clust_7="13000.00000" pt_clust_8="13000.00000" pt_clust_9="28.53732"></scales>
<clustering>
<clus scale="   28.537">  2  9  1 -1</clus>
<clus scale="   91.483">  5  6 -1 -1</clus>
<clus scale="   91.721">  7  8 -1 -1</clus>
<clus scale="  123.345">  1  5  2 -1</clus>
<clus scale="   28.537">  2  5  1 -1</clus>
</clustering>
</event>
<event>
 9    1  0.1426358E-005  0.1100734E+03  0.7546771E-02  0.1262356E+00
          2   -1    0    0  502    0 -0.00000000000E+00  0.00000000000E+00  0.30006823060E+03  0.30006823060E+03  0.00000000000E+00 0. -1.
         21   -1    0    0  501  502  0.00000000000E+00 -0.00000000000E+00 -0.11326526768E+03  0.11326526768E+03  0.00000000000E+00 0.  1.
         23    2    1    2    0    0  0.21441995981E+02 -0.53383807966E+02  0.13782252168E+03  0.17743444079E+03  0.95803669830E+02 0.  0.
         23    2    1    2    0    0  0.37654528677E+02  0.52486796360E+02 -0.48617986991E+02  0.12179972774E+03  0.91097407738E+02 0.  0.
        -13    1    3    3    0    0  0.43642683083E+02 -0.79444794155E+01  0.18924687649E+02  0.48228024451E+02  0.00000000000E+00 0.  1.
         13    1    3    3    0    0 -0.22200687102E+02 -0.45439328550E+02  0.11889783403E+03  0.12920641634E+03  0.00000000000E+00 0. -1.
        -13    1    4    4    0    0 -0.28844872544E+02  0.18300312449E+02 -0.31893599496E+01  0.34308892793E+02  0.00000000000E+00 0. -1.
         13    1    4    4    0    0  0.66499401221E+02  0.34186483910E+02 -0.45428627041E+02  0.87490834947E+02  0.00000000000E+00 0.  1.
          2    1    1    2  501    0 -0.59096524658E+02  0.89701160621E+00  0.97598428231E+02  0.11409932975E+03  0.00000000000E+00 0. -1.
<scales pt_clust_5="13000.00000" pt_clust_6="13000.00000" pt_clust_7="13000.00000" pt_clust_8="13000.00000" pt_clust_9="59.10336"></scales>
<clustering>
<clus scale="   59.103">  2  9  1 -1</clus>
<clus scale="   91.097">  7  8 -1 -1</clus>
<clus scale="   95.804">  5  6 -1 -1</clus>
<clus scale="  106.003">  2  7  1 -1</clus>
<clus scale="   59.103">  2  5  1 -1</clus>
</clustering>
</event>
<event>
 9    1  0.1426358E-005  0.1378358E+03  0.7546771E-02  0.1216705E+00
         -3   -1    0    0    0  501 -0.00000000000E+00  0.00000000000E+00  0.81199537848E+02  0.81199537848E+02  0.00000000000E+00 0.  1.
         21   -1    0    0  501  502  0.00000000000E+00 -0.00000000000E+00 -0.31877173823E+03  0.31877173823E+03  0.00000000000E+00 0. -1.
         23    2    1    2    0    0 -0.81126264357E+02  0.46171134320E+02 -0.90076461742E+02  0.15742433848E+03  0.89193099356E+02 0.  0.
         23    2    1    2    0    0  0.79821408059E+02 -0.88471339283E+02 -0.11985225532E+03  0.19199822683E+03  0.91104999548E+02 0.  0.
        -11    1    3    3    0    0 -0.38627159067E+02 -0.15484608976E+02 -0.67346353526E+02  0.79166671434E+02  0.00000000000E+00 0. -1.
         11    1    3    3    0    0 -0.42499105290E+02  0.61655743296E+02 -0.22730108216E+02  0.78257667045E+02  0.00000000000E+00 0.  1.
        -13    1    4    4    0    0 -0.13137212163E+02 -0.25378571272E+02 -0.55754756781E+02  0.62651824610E+02  0.00000000000E+00 0.  1.
         13    1    4    4    0    0  0.92958620222E+02 -0.63092768012E+02 -0.64097498534E+02  0.12934640222E+03  0.00000000000E+00 0. -1.
         -3    1    1    2    0  502  0.13048562978E+01  0.42300204964E+02 -0.27643483323E+02  0.50548710767E+02  0.00000000000E+00 0.  1.
<scales pt_clust_5="13000.00000" pt_clust_6="13000.00000" pt_clust_7="13000.00000" pt_clust_8="13000.00000" pt_clust_9="42.32035"></scales>
<clustering>
<clus scale="   42.320">  2  9  1 -1</clus>
<clus scale="   89.193">  5  6 -1 -1</clus>
<clus scale="   91.105">  7  8 -1 -1</clus>
<clus scale="  136.580">  1  5  2 -1</clus>
<clus scale="   42.320">  2  5  1 -1</clus>
</clustering>
</event>
<event>
 9    1  0.1426358E-005  0.1290224E+03  0.7546771E-02  0.1229590E+00
          1   -1    0    0  502    0 -0.00000000000E+00  0.00000000000E+00  0.47938095033E+03  0.47938095033E+03  0.00000000000E+00 0. -1.
         21   -1    0    0  501  502  0.00000000000E+00 -0.00000000000E+00 -0.48073773085E+02  0.48073773085E+02  0.00000000000E+00 0. -1.
         23    2    1    2    0    0 -0.75223644631E+02 -0.14586977258E+02  0.19643171340E+03  0.23010913302E+03  0.92159744226E+02 0.  0.
         23    2    1    2    0    0  0.11012951268E+03 -0.30567052290E+01  0.19734643341E+03  0.24314091088E+03  0.89632777212E+02 0.  0.
        -11    1    4    4    0    0  0.59612773071E+02 -0.41933082577E+02  0.13791560503E+03  0.15598967991E+03  0.00000000000E+00 0. -1.
         11    1    4    4    0    0  0.50516739610E+02  0.38876377348E+02  0.59430828382E+02  0.87151230965E+02  0.00000000000E+00 0.  1.
        -13    1    3    3    0    0 -0.68810704425E+02  0.22788903060E+02  0.81442222624E+02  0.10902789905E+03  0.00000000000E+00 0.  1.
         13    1    3    3    0    0 -0.64129402069E+01 -0.37375880318E+02  0.11498949077E+03  0.12108123397E+03  0.00000000000E+00 0. -1.
          1    1    1    2  501    0 -0.34905868050E+02  0.17643682487E+02  0.37529030437E+02  0.54204679517E+02  0.00000000000E+00 0. -1.
<scales pt_clust_5="13000.00000" pt_clust_6="13000.00000" pt_clust_7="13000.00000" pt_clust_8="13000.00000" pt_clust_9="39.11162"></scales>
<clustering>
<clus scale="   39.112">  2  9  1 -1</clus>
<clus scale="   89.633">  5  6 -1 -1</clus>
<clus scale="   92.160">  7  8 -1 -1</clus>
<clus scale="  127.230">  2  5  1 -1</clus>
<clus scale="   39.112">  2  5  1 -1</clus>
</clustering>
</event>
<event>
 9    1  0.1426358E-005  0.1085278E+03  0.7546771E-02  0.1268103E+00
         21   -1    0    0  501  502  0.00000000000E+00  0.00000000000E+00  0.39365972571E+02  0.39365972571E+02  0.00000000000E+00 0. -1.
         -4   -1    0    0    0  501 -0.00000000000E+00 -0.00000000000E+00 -0.52665679411E+03  0.52665679411E+03  0.00000000000E+00 0.  1.
         23    2    1    2    0    0 -0.15533917952E+02  0.29154685025E+02 -0.34916891351E+03  0.36247187216E+03  0.91518466344E+02 0.  0.
         23    2    1    2    0    0  0.58426977364E+01 -0.53895072544E+02 -0.13370446588E+03  0.17661541014E+03  0.10186904799E+03 0.  0.
        -11    1    4    4    0    0  0.20147738981E+02  0.17840592214E+02 -0.83929394890E+02  0.88138308602E+02  0.00000000000E+00 0.  1.
         11    1    4    4    0    0 -0.14305041245E+02 -0.71735664759E+02 -0.49775070993E+02  0.88477101534E+02  0.00000000000E+00 0. -1.
        -13    1    3    3    0    0 -0.50517578770E+01  0.62076972759E+02 -0.24107343362E+03  0.24898889774E+03  0.00000000000E+00 0.  1.
         13    1    3    3    0    0 -0.10482160075E+02 -0.32922287734E+02 -0.10809547989E+03  0.11348297442E+03  0.00000000000E+00 0. -1.
         -4    1    1    2    0  502  0.96912202153E+01  0.24740387519E+02 -0.44174421482E+01  0.26935484384E+02  0.00000000000E+00 0.  1.
<scales pt_clust_5="13000.00000" pt_clust_6="13000.00000" pt_clust_7="13000.00000" pt_clust_8="13000.00000" pt_clust_9="26.57078"></scales>
<clustering>
<clus scale="   26.571">  1  9  2 -1</clus>
<clus scale="   91.518">  7  8 -1 -1</clus>
<clus scale="   98.877">  2  7  1 -1</clus>
<clus scale="  101.869">  5  6 -1 -1</clus>
<clus scale="   26.571">  1  5  2 -1</clus>
</clustering>
</event>
<event>
 9    1  0.1426358E-005  0.9799367E+02  0.7546771E-02  0.1286310E+00
         21   -1    0    0  501  502  0.00000000000E+00  0.00000000000E+00  0.63340536163E+02  0.63340536163E+02  0.00000000000E+00 0.  1.
          2   -1    0    0  502    0 -0.00000000000E+00 -0.00000000000E+00 -0.37000511593E+03  0.37000511593E+03  0.00000000000E+00 0. -1.
         23    2    1    2    0    0 -0.10495780600E+02 -0.19458013571E+02 -0.24899808940E+03  0.26615762564E+03  0.91384120386E+02 0.  0.
         23    2    1    2    0    0  0.39055117530E+02  0.14215052595E+02 -0.79865725397E+02  0.13063764476E+03  0.94658809473E+02 0.  0.
        -11    1    3    3    0    0  0.12347790530E+02 -0.51776325271E+02 -0.16344632971E+03  0.17189519623E+03  0.00000000000E+00 0.  1.
         11    1    3    3    0    0 -0.22843571130E+02  0.32318311700E+02 -0.85551759689E+02  0.94262429413E+02  0.00000000000E+00 0. -1.
        -13    1    4    4    0    0 -0.43585017507E+00 -0.36107905473E+02 -0.13744314190E+02  0.38637766183E+02  0.00000000000E+00 0.  1.
         13    1    4    4    0    0  0.39490967705E+02  0.50322958068E+02 -0.66121411207E+02  0.91999878582E+02  0.00000000000E+00 0. -1.
          2    1    1    2  501    0 -0.28559336931E+02  0.52429609755E+01  0.22199235030E+02  0.36550381689E+02  0.00000000000E+00 0. -1.
<scales pt_clust_5="13000.00000" pt_clust_6="13000.00000" pt_clust_7="13000.00000" pt_clust_8="13000.00000" pt_clust_9="29.03660"></scales>
<clustering>
<clus scale="   29.037">  1  9  2 -1</clus>
<clus scale="   91.384">  5  6 -1 -1</clus>
<clus scale="   94.659">  7  8 -1 -1</clus>
<clus scale="   94.834">  2  5  1 -1</clus>
<clus scale="   29.037">  1  5  2 -1</clus>
</clustering>
</event>
<event>
 9    1  0.1426358E-005  0.1441168E+03  0.7546771E-02  0.1226172E+00
          1   -1    0    0  502    0 -0.00000000000E+00  0.00000000000E+00  0.44002931580E+03  0.44002931580E+03  0.00000000000E+00 0. -1.
         21   -1    0    0  501  502  0.00000000000E+00 -0.00000000000E+00 -0.11508141353E+03  0.11508141353E+03  0.00000000000E+00 0. -1.
         23    2    1    2    0    0  0.18216674588E+02 -0.30660083225E+02  0.98073458584E+02  0.13864057107E+03  0.91273855692E+02 0.  0.
         23    2    1    2    0    0  0.58514385979E+02  0.10510939481E+03  0.26221295176E+03  0.30386835631E+03  0.95438082822E+02 0.  0.
        -11    1    3    3    0    0  0.24084259075E+02  0.29129634928E+02  0.41245153034E+02  0.55944166944E+02  0.00000000000E+00 0. -1.
         11    1    3    3    0    0 -0.58675844867E+01 -0.59789718153E+02  0.56828305549E+02  0.82696404131E+02  0.00000000000E+00 0.  1.
        -11    1    4    4    0    0  0.65716911526E+01  0.56145173769E+02  0.36870689113E+02  0.67490113186E+02  0.00000000000E+00 0.  1.
         11    1    4    4    0    0  0.51942694826E+02  0.48964221036E+02  0.22534226264E+03  0.23637824312E+03  0.00000000000E+00 0. -1.
          1    1    1    2  501    0 -0.76731060567E+02 -0.74449311580E+02 -0.35338508073E+02  0.11260180195E+03  0.00000000000E+00 0. -1.
<scales pt_clust_5="13000.00000" pt_clust_6="13000.00000" pt_clust_7="13000.00000" pt_clust_8="13000.00000" pt_clust_9="107.98718"></scales>
<clustering>
<clus scale="   91.274">  5  6 -1 -1</clus>
<clus scale="   95.438">  7  8 -1 -1</clus>
<clus scale="   97.994">  1  5  2 -1</clus>
<clus scale="  107.987">  2  9  1 -1</clus>
<clus scale="  107.987">  2  5  1 -1</clus>
</clustering>
</event>
<event>
 9    1  0.1426358E-005  0.1481574E+03  0.7546771E-02  0.1202760E+00
          1   -1    0    0  502    0 -0.00000000000E+00  0.00000000000E+00  0.52419026765E+03  0.52419026765E+03  0.00000000000E+00 0. -1.
         21   -1    0    0  501  502  0.00000000000E+00 -0.00000000000E+00 -0.75313136194E+02  0.75313136194E+02  0.00000000000E+00 0. -1.
         23    2    1    2    0    0  0.40028771604E+02  0.91220899934E+02  0.19351096630E+03  0.23651457491E+03  0.92569405990E+02 0.  0.
         23    2    1    2    0    0 -0.81362222583E+02 -0.10674324155E+03  0.27089734405E+03  0.31618482508E+03  0.92593421553E+02 0.  0.
        -13    1    3    3    0    0  0.49087167862E+02  0.13586264211E+02  0.41942725861E+02  0.65979761114E+02  0.00000000000E+00 0. -1.
         13    1    3    3    0    0 -0.90583962581E+01  0.77634635723E+02  0.15156824044E+03  0.17053481379E+03  0.00000000000E+00 0.  1.
        -13    1    4    4    0    0  0.87197194728E+01 -0.61618942970E+02  0.98906013109E+02  0.11685600998E+03  0.00000000000E+00 0.  1.
         13    1    4    4    0    0 -0.90081942055E+02 -0.45124298578E+02  0.17199133094E+03  0.19932881509E+03  0.00000000000E+00 0. -1.
          1    1    1    2  501    0  0.41333450978E+02  0.15522341615E+02 -0.15531178898E+02  0.46804003856E+02  0.00000000000E+00 0. -1.
<scales pt_clust_5="13000.00000" pt_clust_6="13000.00000" pt_clust_7="13000.00000" pt_clust_8="13000.00000" pt_clust_9="44.15198"></scales>
<clustering>
<clus scale="   44.152">  2  9  1 -1</clus>
<clus scale="   92.569">  5  6 -1 -1</clus>
<clus scale="   92.593">  7  8 -1 -1</clus>
<clus scale="  148.142">  1  5  2 -1</clus>
<clus scale="   44.152">  2  5  1 -1</clus>
</clustering>
</event>
<event>
 9    1  0.1426358E-005  0.1020641E+03  0.7546771E-02  0.1278758E+00
          2   -1    0    0  502    0 -0.00000000000E+00  0.00000000000E+00  0.15745171891E+03  0.15745171891E+03  0.00000000000E+00 0. -1.
         21   -1    0    0  501  502  0.00000000000E+00 -0.00000000000E+00 -0.12366469109E+03  0.12366469109E+03  0.00000000000E+00 0.  1.
         23    2    1    2    0    0  0.53338427965E+01 -0.26769903031E+02  0.78062133153E+02  0.12752731783E+03  0.97079568253E+02 0.  0.
         23    2    1    2    0    0 -0.44108889966E+02  0.31475080411E+02 -0.42196703467E+02  0.11447435413E+03  0.91583519857E+02 0.  0.
        -11    1    4    4    0    0 -0.68036047951E+02  0.28367222977E+02 -0.50051676035E+02  0.89099794804E+02  0.00000000000E+00 0.  1.
         11    1    4    4    0    0  0.23927157984E+02  0.31078574340E+01  0.78549725675E+01  0.25374559328E+02  0.00000000000E+00 0. -1.
        -13    1    3    3    0    0 -0.15743151169E+02  0.33487240856E+02  0.29176626831E+02  0.47122369020E+02  0.00000000000E+00 0.  1.
         13    1    3    3    0    0  0.21076993966E+02 -0.60257143887E+02  0.48885506322E+02  0.80404948806E+02  0.00000000000E+00 0. -1.
          2    1    1    2  501    0  0.38775047170E+02 -0.47051773797E+01 -0.20784018647E+01  0.39114738034E+02  0.00000000000E+00 0. -1.
<scales pt_clust_5="13000.00000" pt_clust_6="13000.00000" pt_clust_7="13000.00000" pt_clust_8="13000.00000" pt_clust_9="39.05948"></scales>
<clustering>
<clus scale="   39.059">  2  9  1 -1</clus>
<clus scale="   91.584">  5  6 -1 -1</clus>
<clus scale="   96.851">  2  5  1 -1</clus>
<clus scale="   97.080">  7  8 -1 -1</clus>
<clus scale="   39.059">  2  5  1 -1</clus>
</clustering>
</event>
<event>
 9    1  0.1426358E-005  0.1962263E+03  0.7546771E-02  0.1153384E+00
         -4   -1    0    0    0  501 -0.00000000000E+00  0.00000000000E+00  0.31279229225E+03  0.31279229225E+03  0.00000000000E+00 0.  1.
         21   -1    0    0  501  502  0.00000000000E+00 -0.00000000000E+00 -0.23740080530E+03  0.23740080530E+03  0.00000000000E+00 0.  1.
         23    2    1    2    0    0  0.13936927178E+03  0.25934800602E+02  0.57198579275E+02  0.17623287243E+03  0.87692303299E+02 0.  0.
         23    2    1    2    0    0 -0.24563642841E+03  0.32616509436E+01  0.14693820483E+00  0.26228749624E+03  0.91906559967E+02 0.  0.
        -11    1    4    4    0    0 -0.12974175081E+03 -0.39977749910E+02 -0.19108997594E+02  0.13709958491E+03  0.00000000000E+00 0. -1.
         11    1    4    4    0    0 -0.11589467759E+03  0.43239400853E+02  0.19255935799E+02  0.12518791133E+03  0.00000000000E+00 0.  1.
        -13    1    3    3    0    0  0.41506792953E+02 -0.32063599253E+02  0.11862009124E+02  0.53773557803E+02  0.00000000000E+00 0. -1.
         13    1    3    3    0    0  0.97862478823E+02  0.57998399855E+02  0.45336570151E+02  0.12245931463E+03  0.00000000000E+00 0.  1.
         -4    1    1    2    0  502  0.10626715663E+03 -0.29196451545E+02  0.18045969476E+02  0.11167272888E+03  0.00000000000E+00 0.  1.
<scales pt_clust_5="13000.00000" pt_clust_6="13000.00000" pt_clust_7="13000.00000" pt_clust_8="13000.00000" pt_clust_9="110.20505"></scales>
<clustering>
<clus scale="   87.692">  7  8 -1 -1</clus>
<clus scale="   91.907">  5  6 -1 -1</clus>
<clus scale="  110.205">  2  9  1 -1</clus>
<clus scale="  194.288">  1  7  2 -1</clus>
<clus scale="  110.205">  2  5  1 -1</clus>
</clustering>
</event>
<event>
 9    1  0.1426358E-005  0.1462147E+03  0.7546771E-02  0.1206357E+00
         21   -1    0    0  501  502  0.00000000000E+00  0.00000000000E+00  0.22769437030E+03  0.22769437030E+03  0.00000000000E+00 0. -1.
         -1   -1    0    0    0  501 -0.00000000000E+00 -0.00000000000E+00 -0.22060273182E+03  0.22060273182E+03  0.00000000000E+00 0.  1.
         23    2    1    2    0    0  0.70498653747E+02 -0.23492092980E+02 -0.23043091689E+02  0.11949411945E+03  0.90696868172E+02 0.  0.
         23    2    1    2    0    0 -0.13978355955E+03  0.78220001102E+02 -0.66089449312E+02  0.19820958768E+03  0.96236236663E+02 0.  0.
        -11    1    4    4    0    0 -0.41912140375E+02  0.17132263917E+02 -0.69315079596E+02  0.82793249949E+02  0.00000000000E+00 0.  1.
         11    1    4    4    0    0 -0.97871419172E+02  0.61087737186E+02  0.32256302837E+01  0.11541633773E+03  0.00000000000E+00 0. -1.
        -11    1    3    3    0    0 -0.22042326393E+02 -0.31294277520E+01 -0.73721215957E+01  0.23452199208E+02  0.00000000000E+00 0. -1.
         11    1    3    3    0    0  0.92540980139E+02 -0.20362665228E+02 -0.15670970093E+02  0.96041920243E+02  0.00000000000E+00 0.  1.
         -1    1    1    2    0  502  0.69284905801E+02 -0.54727908122E+02  0.96224179480E+02  0.13059339499E+03  0.00000000000E+00 0.  1.
<scales pt_clust_5="13000.00000" pt_clust_6="13000.00000" pt_clust_7="13000.00000" pt_clust_8="13000.00000" pt_clust_9="88.29237"></scales>
<clustering>
<clus scale="   88.292">  1  9  2 -1</clus>
<clus scale="   90.697">  7  8 -1 -1</clus>
<clus scale="   96.236">  5  6 -1 -1</clus>
<clus scale="  142.630">  2  7  1 -1</clus>
<clus scale="   88.292">  1  5  2 -1</clus>
</clustering>
</event>
<event>
 9    1  0.1426358E-005  0.1185257E+03  0.7546771E-02  0.1245914E+00
          2   -1    0    0  502    0 -0.00000000000E+00  0.00000000000E+00  0.16121854283E+03  0.16121854283E+03  0.00000000000E+00 0. -1.
         21   -1    0    0  501  502  0.00000000000E+00 -0.00000000000E+00 -0.16291829735E+03  0.16291829735E+03  0.00000000000E+00 0.  1.
         23    2    1    2    0    0  0.46121374679E+02  0.53032116372E+02  0.75318129972E+02  0.13786013995E+03  0.91613377376E+02 0.  0.
         23    2    1    2    0    0 -0.36735298990E+02 -0.83355111123E+02 -0.34013448397E+02  0.13282612539E+03  0.90489271032E+02 0.  0.
        -13    1    4    4    0    0  0.21596798287E+02 -0.61285478661E+02 -0.25825585045E+02  0.69923475556E+02  0.00000000000E+00 0. -1.
         13    1    4    4    0    0 -0.58332097277E+02 -0.22069632462E+02 -0.81878633516E+01  0.62902649833E+02  0.00000000000E+00 0.  1.
        -13    1    3    3    0    0  0.59882806458E+02  0.31381650574E+02  0.86574919995E+02  0.10984523328E+03  0.00000000000E+00 0. -1.
         13    1    3    3    0    0 -0.13761431779E+02  0.21650465798E+02 -0.11256790023E+02  0.28014906666E+02  0.00000000000E+00 0.  1.
          2    1    1    2  501    0 -0.93860756891E+01  0.30322994751E+02 -0.43004436095E+02  0.53450574846E+02  0.00000000000E+00 0. -1.
<scales pt_clust_5="13000.00000" pt_clust_6="13000.00000" pt_clust_7="13000.00000" pt_clust_8="13000.00000" pt_clust_9="31.74244"></scales>
<clustering>
<clus scale="   31.742">  2  9  1 -1</clus>
<clus scale="   90.489">  5  6 -1 -1</clus>
<clus scale="   91.613">  7  8 -1 -1</clus>
<clus scale="  117.659">  2  5  1 -1</clus>
<clus scale="   31.742">  2  5  1 -1</clus>
</clustering>
</event>
<event>
 9    1  0.1426358E-005  0.1004806E+03  0.7546771E-02  0.1279310E+00
         21   -1    0    0  501  502  0.00000000000E+00  0.00000000000E+00  0.14569976761E+03  0.14569976761E+03  0.00000000000E+00 0. -1.
          3   -1    0    0  502    0 -0.00000000000E+00 -0.00000000000E+00 -0.10624192749E+03  0.10624192749E+03  0.00000000000E+00 0. -1.
         23    2    1    2    0    0 -0.25781375798E+02 -0.46806891691E+02 -0.20518117756E+02  0.10735368189E+03  0.90819906474E+02 0.  0.
         23    2    1    2    0    0 -0.32596947332E+01  0.27302396124E+02  0.53862066394E+02  0.10907479322E+03  0.90775227210E+02 0.  0.
        -13    1    3    3    0    0  0.33102961903E+02 -0.94043436684E+01  0.76129584783E+00  0.34421320979E+02  0.00000000000E+00 0.  1.
         13    1    3    3    0    0 -0.58884337701E+02 -0.37402548023E+02 -0.21279413604E+02  0.72932360914E+02  0.00000000000E+00 0. -1.
        -13    1    4    4    0    0 -0.36596175365E+02  0.65949920926E+01  0.58747771282E+02  0.69527509682E+02  0.00000000000E+00 0. -1.
         13    1    4    4    0    0  0.33336480631E+02  0.20707404032E+02 -0.48857048884E+01  0.39547283533E+02  0.00000000000E+00 0.  1.
          3    1    1    2  501    0  0.29041070531E+02  0.19504495567E+02  0.61138914776E+01  0.35513219988E+02  0.00000000000E+00 0. -1.
<scales pt_clust_5="13000.00000" pt_clust_6="13000.00000" pt_clust_7="13000.00000" pt_clust_8="13000.00000" pt_clust_9="34.98298"></scales>
<clustering>
<clus scale="   34.983">  1  9  2 -1</clus>
<clus scale="   90.775">  7  8 -1 -1</clus>
<clus scale="   90.820">  5  6 -1 -1</clus>
<clus scale="  100.440">  1  7  2 -1</clus>
<clus scale="   34.983">  1  5  2 -1</clus>
</clustering>
</event>
<event>
 9    1  0.1426358E-005  0.1050569E+03  0.7546771E-02  0.1271669E+00
         21   -1    0    0  501  502  0.00000000000E+00  0.00000000000E+00  0.61500931948E+02  0.61500931948E+02  0.00000000000E+00 0. -1.
          2   -1    0    0  502    0 -0.00000000000E+00 -0.00000000000E+00 -0.26278462191E+03  0.26278462191E+03  0.00000000000E+00 0. -1.
         23    2    1    2    0    0 -0.30981181913E+01 -0.56729001398E+02 -0.10865942837E+03  0.15162109355E+03  0.89186920007E+02 0.  0.
         23    2    1    2    0    0 -0.32026136916E+02  0.35297541943E+02 -0.69465612791E+02  0.12544853327E+03  0.92953070023E+02 0.  0.
        -13    1    3    3    0    0  0.25896862018E+02 -0.69210134862E+02 -0.70952113563E+02  0.10244458331E+03  0.00000000000E+00 0. -1.
         13    1    3    3    0    0 -0.28994980209E+02  0.12481133464E+02 -0.37707314804E+02  0.49176510242E+02  0.00000000000E+00 0.  1.
        -13    1    4    4    0    0 -0.27163483555E+02  0.58903454539E+02 -0.76541443028E+02  0.10032977771E+03  0.00000000000E+00 0. -1.
         13    1    4    4    0    0 -0.48626533603E+01 -0.23605912596E+02  0.70758302370E+01  0.25118755557E+02  0.00000000000E+00 0.  1.
          2    1    1    2  501    0  0.35124255107E+02  0.21431459455E+02 -0.23158648801E+02  0.47215927032E+02  0.00000000000E+00 0. -1.
<scales pt_clust_5="13000.00000" pt_clust_6="13000.00000" pt_clust_7="13000.00000" pt_clust_8="13000.00000" pt_clust_9="41.14633"></scales>
<clustering>
<clus scale="   41.146">  1  9  2 -1</clus>
<clus scale="   89.187">  5  6 -1 -1</clus>
<clus scale="   92.953">  7  8 -1 -1</clus>
<clus scale="  101.740">  2  5  1 -1</clus>
<clus scale="   41.146">  1  5  2 -1</clus>
</clustering>
</event>
<event>
 9    1  0.1426358E-005  0.1826922E+03  0.7546771E-02  0.1185462E+00
         21   -1    0    0  501  502  0.00000000000E+00  0.00000000000E+00  0.17373157060E+03  0.17373157060E+03  0.00000000000E+00 0. -1.
          4   -1    0    0  502    0 -0.00000000000E+00 -0.00000000000E+00 -0.40746608257E+03  0.40746608257E+03  0.00000000000E+00 0. -1.
         23    2    1    2    0    0  0.48939606158E+02  0.59697483943E+02 -0.83246502187E+02  0.14235890381E+03  0.85890644001E+02 0.  0.
         23    2    1    2    0    0  0.31408481785E+02  0.97181429319E+02 -0.21291768464E+03  0.25185138892E+03  0.87546894481E+02 0.  0.
        -11    1    4    4    0    0  0.38914658354E+01  0.32799025203E+02 -0.62102382362E+01  0.33607835687E+02  0.00000000000E+00 0.  1.
         11    1    4    4    0    0  0.27517015950E+02  0.64382404116E+02 -0.20670744641E+03  0.21824355323E+03  0.00000000000E+00 0. -1.
        -13    1    3    3    0    0 -0.22423031420E+02  0.98179116047E+01 -0.35319901909E+02  0.42973005447E+02  0.00000000000E+00 0. -1.
         13    1    3    3    0    0  0.71362637577E+02  0.49879572339E+02 -0.47926600279E+02  0.99385898361E+02  0.00000000000E+00 0.  1.
          4    1    1    2  501    0 -0.80348087943E+02 -0.15687891326E+03  0.62429674855E+02  0.18698736044E+03  0.00000000000E+00 0. -1.
<scales pt_clust_5="13000.00000" pt_clust_6="13000.00000" pt_clust_7="13000.00000" pt_clust_8="13000.00000" pt_clust_9="160.34961"></scales>
<clustering>
<clus scale="   85.891">  7  8 -1 -1</clus>
<clus scale="   87.547">  5  6 -1 -1</clus>
<clus scale="  115.482">  2  7  1 -1</clus>
<clus scale="  160.350">  1  9  2 -1</clus>
<clus scale="  160.350">  1  5  2 -1</clus>
</clustering>
</event>
<event>
 9    1  0.1426358E-005  0.1251145E+03  0.7546771E-02  0.1235358E+00
         21   -1    0    0  501  502  0.00000000000E+00  0.00000000000E+00  0.39258752218E+03  0.39258752218E+03  0.00000000000E+00 0. -1.
          1   -1    0    0  502    0 -0.00000000000E+00 -0.00000000000E+00 -0.77802428900E+02  0.77802428900E+02  0.00000000000E+00 0. -1.
         23    2    1    2    0    0  0.78002410228E+02  0.59643564117E+01  0.53619292015E+02  0.13070225766E+03  0.89933876447E+02 0.  0.
         23    2    1    2    0    0 -0.90259493771E+02 -0.31671470854E+02  0.76684992837E+02  0.15302151944E+03  0.91570404624E+02 0.  0.
        -11    1    4    4    0    0 -0.22914951197E+02  0.13368794418E+02  0.66212349145E+02  0.71329480805E+02  0.00000000000E+00 0.  1.
         11    1    4    4    0    0 -0.67344542574E+02 -0.45040265272E+02  0.10472643692E+02  0.81692038634E+02  0.00000000000E+00 0. -1.
        -11    1    3    3    0    0  0.76896016909E+02  0.29454659452E+02  0.64684911664E+02  0.10471252159E+03  0.00000000000E+00 0.  1.
         11    1    3    3    0    0  0.11063933193E+01 -0.23490303040E+02 -0.11065619649E+02  0.25989736076E+02  0.00000000000E+00 0. -1.
          1    1    1    2  501    0  0.12257083542E+02  0.25707114442E+02  0.18448080843E+03  0.18666617398E+03  0.00000000000E+00 0. -1.
<scales pt_clust_5="13000.00000" pt_clust_6="13000.00000" pt_clust_7="13000.00000" pt_clust_8="13000.00000" pt_clust_9="28.47967"></scales>
<clustering>
<clus scale="   28.480">  1  9  2 -1</clus>
<clus scale="   89.934">  7  8 -1 -1</clus>
<clus scale="   91.570">  5  6 -1 -1</clus>
<clus scale="  123.922">  2  7  1 -1</clus>
<clus scale="   28.480">  1  5  2 -1</clus>
</clustering>
</event>
<event>
 9    1  0.1426358E-005  0.1323392E+03  0.7546771E-02  0.1224318E+00
         21   -1    0    0  501  502  0.00000000000E+00  0.00000000000E+00  0.10559803100E+03  0.10559803100E+03  0.00000000000E+00 0. -1.
          4   -1    0    0  502    0 -0.00000000000E+00 -0.00000000000E+00 -0.65096476744E+03  0.65096476744E+03  0.00000000000E+00 0. -1.
         23    2    1    2    0    0 -0.35545124624E+02  0.88597579611E+02 -0.54757595379E+03  0.56272479123E+03  0.87788259482E+02 0.  0.
         23    2    1    2    0    0  0.62235747511E+02 -0.11103854418E+03  0.16431132098E+02  0.15617835904E+03  0.88987927097E+02 0.  0.
        -11    1    3    3    0    0  0.24786149229E+02  0.51137241204E+02 -0.29131385294E+03  0.29680487117E+03  0.00000000000E+00 0. -1.
         11    1    3    3    0    0 -0.60331273853E+02  0.37460338407E+02 -0.25626210084E+03  0.26591992006E+03  0.00000000000E+00 0.  1.
        -13    1    4    4    0    0  0.31884473073E+02 -0.24260581493E+02  0.44671300896E+02  0.60006004377E+02  0.00000000000E+00 0.  1.
         13    1    4    4    0    0  0.30351274438E+02 -0.86777962685E+02 -0.28240168798E+02  0.96172354663E+02  0.00000000000E+00 0. -1.
          4    1    1    2  501    0 -0.26690622887E+02  0.22440964567E+02 -0.14221914761E+02  0.37659648170E+02  0.00000000000E+00 0. -1.
<scales pt_clust_5="13000.00000" pt_clust_6="13000.00000" pt_clust_7="13000.00000" pt_clust_8="13000.00000" pt_clust_9="34.87099"></scales>
<clustering>
<clus scale="   34.871">  1  9  2 -1</clus>
<clus scale="   87.788">  5  6 -1 -1</clus>
<clus scale="   88.988">  7  8 -1 -1</clus>
<clus scale="  131.536">  2  5  1 -1</clus>
<clus scale="   34.871">  1  5  2 -1</clus>
</clustering>
</event>
<event>
 9    1  0.1426358E-005  0.1059381E+03  0.7546771E-02  0.1271737E+00
         21   -1    0    0  501  502  0.00000000000E+00  0.00000000000E+00  0.34880373570E+02  0.34880373570E+02  0.00000000000E+00 0.  1.
          1   -1    0    0  502    0 -0.00000000000E+00 -0.00000000000E+00 -0.43618160175E+03  0.43618160175E+03  0.00000000000E+00 0. -1.
         23    2    1    2    0    0  0.32671508760E+02  0.10432539742E+02 -0.25629497317E+03  0.27628807256E+03  0.97322764020E+02 0.  0.
         23    2    1    2    0    0 -0.51985658249E+02 -0.23748098505E+02 -0.12190812039E+03  0.16185180837E+03  0.89821696778E+02 0.  0.
        -11    1    4    4    0    0 -0.14749282020E+02 -0.47204298373E+02 -0.10239277950E+03  0.11371045861E+03  0.00000000000E+00 0. -1.
         11    1    4    4    0    0 -0.37236376229E+02  0.23456199868E+02 -0.19515340890E+02  0.48141349762E+02  0.00000000000E+00 0.  1.
        -13    1    3    3    0    0  0.24361683167E+02 -0.42782125760E+02 -0.11641208674E+03  0.12639452453E+03  0.00000000000E+00 0. -1.
         13    1    3    3    0    0  0.83098255933E+01  0.53214665502E+02 -0.13988288642E+03  0.14989354802E+03  0.00000000000E+00 0.  1.
          1    1    1    2  501    0  0.19314149489E+02  0.13315558763E+02 -0.23098134630E+02  0.32922094390E+02  0.00000000000E+00 0. -1.
<scales pt_clust_5="13000.00000" pt_clust_6="13000.00000" pt_clust_7="13000.00000" pt_clust_8="13000.00000" pt_clust_9="23.45934"></scales>
<clustering>
<clus scale="   23.459">  1  9  2 -1</clus>
<clus scale="   89.822">  5  6 -1 -1</clus>
<clus scale="   97.323">  7  8 -1 -1</clus>
<clus scale="   99.091">  1  5  2 -1</clus>
<clus scale="   23.459">  1  5  2 -1</clus>
</clustering>
</event>
<event>
 9    1  0.1426358E-005  0.1235484E+03  0.7546771E-02  0.1238503E+00
          1   -1    0    0  502    0 -0.00000000000E+00  0.00000000000E+00  0.34808307908E+03  0.34808307908E+03  0.00000000000E+00 0. -1.
         21   -1    0    0  501  502  0.00000000000E+00 -0.00000000000E+00 -0.32535012405E+03  0.32535012405E+03  0.00000000000E+00 0. -1.
         23    2    1    2    0    0  0.41072942022E+02  0.68093326409E+02  0.31572453214E+03  0.33929468551E+03  0.95473639029E+02 0.  0.
         23    2    1    2    0    0 -0.48509668032E+02 -0.44285780747E+02 -0.14334416074E+03  0.18242677334E+03  0.91747266691E+02 0.  0.
        -13    1    3    3    0    0 -0.24689432633E+02  0.16195760948E+01  0.31326450934E+02  0.39919138751E+02  0.00000000000E+00 0.  1.
         13    1    3    3    0    0  0.65762374655E+02  0.66473750314E+02  0.28439808121E+03  0.29937554675E+03  0.00000000000E+00 0. -1.
        -13    1    4    4    0    0  0.26896611106E+02 -0.89823713938E+01 -0.25497192130E+02  0.38134203694E+02  0.00000000000E+00 0. -1.
         13    1    4    4    0    0 -0.75406279138E+02 -0.35303409353E+02 -0.11784696861E+03  0.14429256965E+03  0.00000000000E+00 0.  1.
          1    1    1    2  501    0  0.74367260101E+01 -0.23807545662E+02 -0.14964741638E+03  0.15171174428E+03  0.00000000000E+00 0. -1.
<scales pt_clust_5="13000.00000" pt_clust_6="13000.00000" pt_clust_7="13000.00000" pt_clust_8="13000.00000" pt_clust_9="24.94202"></scales>
<clustering>
<clus scale="   24.942">  2  9  1 -1</clus>
<clus scale="   91.747">  7  8 -1 -1</clus>
<clus scale="   95.474">  5  6 -1 -1</clus>
<clus scale="  120.692">  2  7  1 -1</clus>
<clus scale="   24.942">  2  5  1 -1</clus>
</clustering>
</event>
<event>
 9    1  0.1426358E-005  0.1008212E+03  0.7546771E-02  0.1279756E+00
         21   -1    0    0  501  502  0.00000000000E+00  0.00000000000E+00  0.31320330760E+03  0.31320330760E+03  0.00000000000E+00 0. -1.
          2   -1    0    0  502    0 -0.00000000000E+00 -0.00000000000E+00 -0.22571265373E+03  0.22571265373E+03  0.00000000000E+00 0. -1.
         23    2    1    2    0    0 -0.64533408315E+01  0.41659678587E+02 -0.17798549092E+03  0.20536683454E+03  0.93378409280E+02 0.  0.
         23    2    1    2    0    0  0.63149523994E+02  0.25774891057E+02  0.14336376094E+03  0.18297252616E+03  0.90959166600E+02 0.  0.
        -11    1    3    3    0    0  0.20879120612E+02  0.22373375038E+01  0.32579067387E-01  0.20998676578E+02  0.00000000000E+00 0.  1.
         11    1    3    3    0    0 -0.27332461443E+02  0.39422341084E+02 -0.17801806999E+03  0.18436815796E+03  0.00000000000E+00 0. -1.
        -13    1    4    4    0    0 -0.94907153322E+01  0.35146552743E+02  0.72160980218E+02  0.80824259435E+02  0.00000000000E+00 0.  1.
         13    1    4    4    0    0  0.72640239326E+02 -0.93716616855E+01  0.71202780718E+02  0.10214826672E+03  0.00000000000E+00 0. -1.
          2    1    1    2  501    0 -0.56696183163E+02 -0.67434569645E+02  0.12211238386E+03  0.15057660064E+03  0.00000000000E+00 0. -1.
<scales pt_clust_5="13000.00000" pt_clust_6="13000.00000" pt_clust_7="13000.00000" pt_clust_8="13000.00000" pt_clust_9="88.10152"></scales>
<clustering>
<clus scale="   88.102">  1  9  2 -1</clus>
<clus scale="   90.959">  7  8 -1 -1</clus>
<clus scale="   93.378">  5  6 -1 -1</clus>
<clus scale="   98.585">  1  7  2 -1</clus>
<clus scale="   88.102">  1  5  2 -1</clus>
</clustering>
</event>
<event>
 9    1  0.1426358E-005  0.1143543E+03  0.7546771E-02  0.1253159E+00
         21   -1    0    0  501  502  0.00000000000E+00  0.00000000000E+00  0.13343055899E+03  0.13343055899E+03  0.00000000000E+00 0.  1.
          1   -1    0    0  502    0 -0.00000000000E+00 -0.00000000000E+00 -0.15403383565E+03  0.15403383565E+03  0.00000000000E+00 0. -1.
         23    2    1    2    0    0  0.21940511976E+02 -0.52590105908E+02 -0.41685553413E+02  0.11656240367E+03  0.92746985289E+02 0.  0.
         23    2    1    2    0    0 -0.20923128456E+02  0.78460099788E+02 -0.18378785829E+02  0.12370594122E+03  0.91496533057E+02 0.  0.
        -11    1    4    4    0    0  0.22083022065E+02  0.30753420067E+01  0.18919391526E+02  0.29241425541E+02  0.00000000000E+00 0. -1.
         11    1    4    4    0    0 -0.43006150521E+02  0.75384757782E+02 -0.37298177355E+02  0.94464515679E+02  0.00000000000E+00 0.  1.
        -11    1    3    3    0    0  0.41560565919E+02 -0.68001493001E+02 -0.17049082641E+02  0.81499416616E+02  0.00000000000E+00 0. -1.
         11    1    3    3    0    0 -0.19620053943E+02  0.15411387093E+02 -0.24636470772E+02  0.35062987051E+02  0.00000000000E+00 0.  1.
          1    1    1    2  501    0 -0.10173835194E+01 -0.25869993880E+02  0.39461062580E+02  0.47196049755E+02  0.00000000000E+00 0. -1.
<scales pt_clust_5="13000.00000" pt_clust_6="13000.00000" pt_clust_7="13000.00000" pt_clust_8="13000.00000" pt_clust_9="25.88999"></scales>
<clustering>
<clus scale="   25.890">  1  9  2 -1</clus>
<clus scale="   91.497">  5  6 -1 -1</clus>
<clus scale="   92.747">  7  8 -1 -1</clus>
<clus scale="  113.342">  1  5  2 -1</clus>
<clus scale="   25.890">  1  5  2 -1</clus>
</clustering>
</event>
<event>
 9    1  0.1426358E-005  0.1287773E+03  0.7546771E-02  0.1229634E+00
         21   -1    0    0  501  502  0.00000000000E+00  0.00000000000E+00  0.80781746858E+02  0.80781746858E+02  0.00000000000E+00 0.  1.
         -4   -1    0    0    0  501 -0.00000000000E+00 -0.00000000000E+00 -0.74943013209E+03  0.74943013209E+03  0.00000000000E+00 0.  1.
         23    2    1    2    0    0 -0.44445962457E+02 -0.95555829298E+02 -0.56177098412E+03  0.57888878795E+03  0.91756362842E+02 0.  0.
         23    2    1    2    0    0  0.74765997356E+02  0.80901977527E+01 -0.10661632606E+03  0.15875090632E+03  0.90440055359E+02 0.  0.
        -11    1    4    4    0    0 -0.17881812390E+02 -0.13405399606E+02 -0.17085637293E+02  0.28131529547E+02  0.00000000000E+00 0. -1.
         11    1    4    4    0    0  0.92647809746E+02  0.21495597358E+02 -0.89530688766E+02  0.13061937677E+03  0.00000000000E+00 0.  1.
        -13    1    3    3    0    0 -0.25007856598E+02 -0.10237891310E+03 -0.53406005335E+03  0.54435923371E+03  0.00000000000E+00 0.  1.
         13    1    3    3    0    0 -0.19438105859E+02  0.68230837981E+01 -0.27710930765E+02  0.34529554236E+02  0.00000000000E+00 0. -1.
         -4    1    1    2    0  502 -0.30320034900E+02  0.87465631545E+02 -0.26107505940E+00  0.92572184689E+02  0.00000000000E+00 0.  1.
<scales pt_clust_5="13000.00000" pt_clust_6="13000.00000" pt_clust_7="13000.00000" pt_clust_8="13000.00000" pt_clust_9="92.57182"></scales>
<clustering>
<clus scale="   90.440">  5  6 -1 -1</clus>
<clus scale="   91.756">  7  8 -1 -1</clus>
<clus scale="   92.572">  1  9  2 -1</clus>
<clus scale="  127.843">  1  5  2 -1</clus>
<clus scale="   92.572">  1  5  2 -1</clus>
</clustering>
</event>
<event>
 9    1  0.1426358E-005  0.1410287E+03  0.7546771E-02  0.1229926E+00
          1   -1    0    0  502    0 -0.00000000000E+00  0.00000000000E+00  0.15399406122E+03  0.15399406122E+03  0.00000000000E+00 0. -1.
         21   -1    0    0  501  502  0.00000000000E+00 -0.00000000000E+00 -0.20447959185E+03  0.20447959185E+03  0.00000000000E+00 0.  1.
         23    2    1    2    0    0  0.30167082264E+02 -0.14362785582E+02 -0.43284982073E+02  0.10599063191E+03  0.90796926803E+02 0.  0.
         23    2    1    2    0    0 -0.43497343893E+02  0.11385776406E+03 -0.15640888240E+01  0.15194090911E+03  0.90708236256E+02 0.  0.
        -11    1    3    3    0    0  0.51465794130E+02  0.16029588959E+02 -0.42874467163E+02  0.68875943711E+02  0.00000000000E+00 0. -1.
         11    1    3    3    0    0 -0.21298711865E+02 -0.30392374541E+02 -0.41051491021E+00  0.37114688196E+02  0.00000000000E+00 0.  1.
        -13    1    4    4    0    0 -0.57015373036E+01  0.49894822569E+02 -0.43663397388E+02  0.66546924184E+02  0.00000000000E+00 0.  1.
         13    1    4    4    0    0 -0.37795806589E+02  0.63962941490E+02  0.42099308564E+02  0.85393984925E+02  0.00000000000E+00 0. -1.
          1    1    1    2  501    0  0.13330261628E+02 -0.99494978477E+02 -0.56364597394E+01  0.10054211205E+03  0.00000000000E+00 0. -1.
<scales pt_clust_5="13000.00000" pt_clust_6="13000.00000" pt_clust_7="13000.00000" pt_clust_8="13000.00000" pt_clust_9="107.98664"></scales>
<clustering>
<clus scale="   90.708">  7  8 -1 -1</clus>
<clus scale="   90.797">  5  6 -1 -1</clus>
<clus scale="   96.749">  1  5  2 -1</clus>
<clus scale="  107.987">  2  9  1 -1</clus>
<clus scale="  107.987">  2  5  1 -1</clus>
</clustering>
</event>
<event>
 9    1  0.1426358E-005  0.1411211E+03  0.7546771E-02  0.1212835E+00
         -1   -1    0    0    0  501 -0.00000000000E+00  0.00000000000E+00  0.12198027239E+03  0.12198027239E+03  0.00000000000E+00 0.  1.
         21   -1    0    0  501  502  0.00000000000E+00 -0.00000000000E+00 -0.22178119451E+03  0.22178119451E+03  0.00000000000E+00 0. -1.
         23    2    1    2    0    0  0.41796678722E+02 -0.10723371140E+03 -0.16812998352E+02  0.14786478318E+03  0.91297787370E+02 0.  0.
         23    2    1    2    0    0 -0.49523982531E+02  0.87791832445E+02 -0.26300131236E+02  0.13547149276E+03  0.86607146111E+02 0.  0.
        -11    1    3    3    0    0 -0.45368832454E+01 -0.22506981477E+02  0.32218180152E+02  0.39562086107E+02  0.00000000000E+00 0.  1.
         11    1    3    3    0    0  0.46333561968E+02 -0.84726729919E+02 -0.49031178504E+02  0.10830269707E+03  0.00000000000E+00 0. -1.
        -13    1    4    4    0    0 -0.53106835408E+02  0.29237767988E+02 -0.43178324238E+02  0.74428158166E+02  0.00000000000E+00 0. -1.
         13    1    4    4    0    0  0.35828528773E+01  0.58554064457E+02  0.16878193002E+02  0.61043334593E+02  0.00000000000E+00 0.  1.
         -1    1    1    2    0  502  0.77273038084E+01  0.19441878951E+02 -0.56687792528E+02  0.60425190963E+02  0.00000000000E+00 0.  1.
<scales pt_clust_5="13000.00000" pt_clust_6="13000.00000" pt_clust_7="13000.00000" pt_clust_8="13000.00000" pt_clust_9="20.92123"></scales>
<clustering>
<clus scale="   20.921">  2  9  1 -1</clus>
<clus scale="   86.607">  7  8 -1 -1</clus>
<clus scale="   91.298">  5  6 -1 -1</clus>
<clus scale="  138.133">  2  7  1 -1</clus>
<clus scale="   20.921">  2  5  1 -1</clus>
</clustering>
</event>
<event>
 9    1  0.1584678E-005  0.9404790E+02  0.7546771E-02  0.1294905E+00
         21   -1    0    0  501  502  0.00000000000E+00  0.00000000000E+00  0.18453630563E+03  0.18453630563E+03  0.00000000000E+00 0. -1.
         -3   -1    0    0    0  501 -0.00000000000E+00 -0.00000000000E+00 -0.35623024268E+03  0.35623024268E+03  0.00000000000E+00 0.  1.
         23    2    1    2    0    0  0.25653250420E+02 -0.20283267765E+02 -0.23844626052E+03  0.25754625656E+03  0.91673087112E+02 0.  0.
         23    2    1    2    0    0  0.62171655608E+02 -0.17053074444E+02 -0.58172659043E+02  0.12601511428E+03  0.91321567325E+02 0.  0.
        -11    1    4    4    0    0  0.78936394992E+02 -0.33052875515E+02 -0.56977579868E+02  0.10280997832E+03  0.00000000000E+00 0. -1.
         11    1    4    4    0    0 -0.16764739384E+02  0.15999801071E+02 -0.11950791747E+01  0.23205135965E+02  0.00000000000E+00 0.  1.
        -11    1    3    3    0    0 -0.82660052038E+01 -0.49462275606E+02 -0.97066387308E+02  0.10925532983E+03  0.00000000000E+00 0.  1.
         11    1    3    3    0    0  0.33919255623E+02  0.29179007841E+02 -0.14137987321E+03  0.14829092673E+03  0.00000000000E+00 0. -1.
         -3    1    1    2    0  502 -0.87824906027E+02  0.37336342208E+02  0.12492498251E+03  0.15720517747E+03  0.00000000000E+00 0.  1.
<scales pt_clust_5="13000.00000" pt_clust_6="13000.00000" pt_clust_7="13000.00000" pt_clust_8="13000.00000" pt_clust_9="95.43174"></scales>
<clustering>
<clus scale="   91.322">  5  6 -1 -1</clus>
<clus scale="   91.673">  7  8 -1 -1</clus>
<clus scale="   95.432">  1  9  2 -1</clus>
<clus scale="   95.432">  1  5  2 -1</clus>
<clus scale="   94.048">  1  5  2 -1</clus>
</clustering>
</event>
<event>
 9    1  0.1426358E-005  0.1407571E+03  0.7546771E-02  0.1212689E+00
          2   -1    0    0  502    0 -0.00000000000E+00  0.00000000000E+00  0.40276639397E+03  0.40276639397E+03  0.00000000000E+00 0. -1.
         21   -1    0    0  501  502  0.00000000000E+00 -0.00000000000E+00 -0.75241194169E+02  0.75241194169E+02  0.00000000000E+00 0. -1.
         23    2    1    2    0    0 -0.95018908206E+02  0.66709248223E+02  0.23699755799E+03  0.27928504305E+03  0.91397899661E+02 0.  0.
         23    2    1    2    0    0  0.83517253538E+02 -0.35941114306E+02  0.10047012435E+03  0.16440317615E+03  0.93098136958E+02 0.  0.
        -11    1    4    4    0    0  0.96841721182E+02 -0.15359436601E+02  0.54191868910E+02  0.11203120061E+03  0.00000000000E+00 0. -1.
         11    1    4    4    0    0 -0.13324467645E+02 -0.20581677706E+02  0.46278255444E+02  0.52371975541E+02  0.00000000000E+00 0.  1.
        -13    1    3    3    0    0 -0.18125144770E+02 -0.19607334277E+02  0.19804527729E+02  0.33244364168E+02  0.00000000000E+00 0.  1.
         13    1    3    3    0    0 -0.76893763436E+02  0.86316582500E+02  0.21719303027E+03  0.24604067888E+03  0.00000000000E+00 0. -1.
          2    1    1    2  501    0  0.11501654669E+02 -0.30768133917E+02 -0.99424825469E+01  0.34319368934E+02  0.00000000000E+00 0. -1.
<scales pt_clust_5="13000.00000" pt_clust_6="13000.00000" pt_clust_7="13000.00000" pt_clust_8="13000.00000" pt_clust_9="32.84762"></scales>
<clustering>
<clus scale="   32.848">  2  9  1 -1</clus>
<clus scale="   91.398">  7  8 -1 -1</clus>
<clus scale="   93.098">  5  6 -1 -1</clus>
<clus scale="  139.638">  1  7  2 -1</clus>
<clus scale="   32.848">  2  5  1 -1</clus>
</clustering>
</event>
<event>
 9    1  0.1426358E-005  0.1444959E+03  0.7546771E-02  0.1207418E+00
         21   -1    0    0  501  502  0.00000000000E+00  0.00000000000E+00  0.11306646622E+03  0.11306646622E+03  0.00000000000E+00 0.  1.
          2   -1    0    0  502    0 -0.00000000000E+00 -0.00000000000E+00 -0.22316089282E+03  0.22316089282E+03  0.00000000000E+00 0. -1.
         23    2    1    2    0    0 -0.10621655949E+03  0.58701573310E+02 -0.86104907731E+02  0.17422359078E+03  0.90619932853E+02 0.  0.
         23    2    1    2    0    0  0.83057899603E+02 -0.56199153757E+02 -0.11822416080E+02  0.13572404182E+03  0.90687851651E+02 0.  0.
        -11    1    3    3    0    0 -0.11062560749E+03  0.36156313145E+02 -0.40624397686E+02  0.12327061978E+03  0.00000000000E+00 0.  1.
         11    1    3    3    0    0  0.44090479989E+01  0.22545260166E+02 -0.45480510045E+02  0.50952971005E+02  0.00000000000E+00 0. -1.
        -13    1    4    4    0    0  0.29400434565E+02 -0.44044510516E+02 -0.46681179759E+02  0.70593462891E+02  0.00000000000E+00 0. -1.
         13    1    4    4    0    0  0.53657465039E+02 -0.12154643241E+02  0.34858763679E+02  0.65130578931E+02  0.00000000000E+00 0.  1.
          2    1    1    2  501    0  0.23158659891E+02 -0.25024195533E+01 -0.12167102789E+02  0.26279726442E+02  0.00000000000E+00 0. -1.
<scales pt_clust_5="13000.00000" pt_clust_6="13000.00000" pt_clust_7="13000.00000" pt_clust_8="13000.00000" pt_clust_9="23.29348"></scales>
<clustering>
<clus scale="   23.293">  1  9  2 -1</clus>
<clus scale="   90.620">  5  6 -1 -1</clus>
<clus scale="   90.688">  7  8 -1 -1</clus>
<clus scale="  144.453">  2  5  1 -1</clus>
<clus scale="   23.293">  1  5  2 -1</clus>
</clustering>
</event>
<event>
 9    1  0.1426358E-005  0.9250122E+02  0.7546771E-02  0.1296924E+00
         21   -1    0    0  501  502  0.00000000000E+00  0.00000000000E+00  0.30830255434E+02  0.30830255434E+02  0.00000000000E+00 0. -1.
          1   -1    0    0  502    0 -0.00000000000E+00 -0.00000000000E+00 -0.51592887559E+03  0.51592887559E+03  0.00000000000E+00 0. -1.
         23    2    1    2    0    0  0.16523348644E+02 -0.31341376957E+01 -0.26098768134E+03  0.27692149539E+03  0.91039007723E+02 0.  0.
         23    2    1    2    0    0  0.70356285782E+00  0.26422941116E+02 -0.22126519001E+03  0.24073036625E+03  0.91072268594E+02 0.  0.
        -11    1    3    3    0    0  0.28128645308E+02  0.29064299074E+02 -0.55904372824E+02  0.69001833805E+02  0.00000000000E+00 0. -1.
         11    1    3    3    0    0 -0.11605296664E+02 -0.32198436770E+02 -0.20508330852E+03  0.20791966159E+03  0.00000000000E+00 0.  1.
        -11    1    4    4    0    0 -0.32985416598E+02  0.91609378357E+01 -0.18556844013E+03  0.18869977865E+03  0.00000000000E+00 0.  1.
         11    1    4    4    0    0  0.33688979455E+02  0.17262003281E+02 -0.35696749877E+02  0.52030587598E+02  0.00000000000E+00 0. -1.
          1    1    1    2  501    0 -0.17226911502E+02 -0.23288803421E+02 -0.28457488027E+01  0.29107269383E+02  0.00000000000E+00 0. -1.
<scales pt_clust_5="13000.00000" pt_clust_6="13000.00000" pt_clust_7="13000.00000" pt_clust_8="13000.00000" pt_clust_9="28.96782"></scales>
<clustering>
<clus scale="   28.968">  1  9  2 -1</clus>
<clus scale="   91.039">  5  6 -1 -1</clus>
<clus scale="   91.072">  7  8 -1 -1</clus>
<clus scale="   92.468">  2  5  1 -1</clus>
<clus scale="   28.968">  1  5  2 -1</clus>
</clustering>
</event>
<event>
 9    1  0.1426358E-005  0.1046445E+03  0.7546771E-02  0.1273356E+00
         -3   -1    0    0    0  501 -0.00000000000E+00  0.00000000000E+00  0.10491508162E+03  0.10491508162E+03  0.00000000000E+00 0.  1.
         21   -1    0    0  501  502  0.00000000000E+00 -0.00000000000E+00 -0.37998352858E+03  0.37998352858E+03  0.00000000000E+00 0.  1.
         23    2    1    2    0    0  0.63992736506E+02  0.24482619508E+02  0.16327242192E+02  0.11057881452E+03  0.85244509492E+02 0.  0.
         23    2    1    2    0    0 -0.23164190997E+02 -0.23050089845E+02 -0.18605406877E+02  0.98487309610E+02  0.91025834809E+02 0.  0.
        -13    1    3    3    0    0  0.17532731831E+02  0.25708834277E+02  0.45927635249E+02  0.55476918848E+02  0.00000000000E+00 0.  1.
         13    1    3    3    0    0  0.46460004674E+02 -0.12262147688E+01 -0.29600393057E+02  0.55101895667E+02  0.00000000000E+00 0. -1.
        -13    1    4    4    0    0  0.13564351285E+02 -0.35887260712E+02  0.20351557504E+02  0.43428941964E+02  0.00000000000E+00 0. -1.
         13    1    4    4    0    0 -0.36728542283E+02  0.12837170867E+02 -0.38956964382E+02  0.55058367647E+02  0.00000000000E+00 0.  1.
         -3    1    1    2    0  502 -0.40828545508E+02 -0.14325296628E+01 -0.27279028227E+03  0.27583248607E+03  0.00000000000E+00 0.  1.
<scales pt_clust_5="13000.00000" pt_clust_6="13000.00000" pt_clust_7="13000.00000" pt_clust_8="13000.00000" pt_clust_9="40.85367"></scales>
<clustering>
<clus scale="   40.854">  2  9  1 -1</clus>
<clus scale="   85.245">  5  6 -1 -1</clus>
<clus scale="   91.026">  7  8 -1 -1</clus>
<clus scale="   99.656">  1  5  2 -1</clus>
<clus scale="   40.854">  2  5  1 -1</clus>
</clustering>
</event>
<event>
 9    1  0.1426358E-005  0.1027320E+03  0.7546771E-02  0.1288237E+00
          2   -1    0    0  502    0 -0.00000000000E+00  0.00000000000E+00  0.46707646075E+03  0.46707646075E+03  0.00000000000E+00 0. -1.
         21   -1    0    0  501  502  0.00000000000E+00 -0.00000000000E+00 -0.24960200348E+02  0.24960200348E+02  0.00000000000E+00 0.  1.
         23    2    1    2    0    0 -0.39495322227E+01 -0.26855536579E+02  0.25423394076E+03  0.27305929265E+03  0.95862724880E+02 0.  0.
         23    2    1    2    0    0  0.21736009123E+02  0.45627195667E+02  0.14139574830E+03  0.16578211245E+03  0.70261341379E+02 0.  0.
        -11    1    3    3    0    0 -0.28123661445E+02 -0.52976894638E+02  0.19437631115E+03  0.20341986637E+03  0.00000000000E+00 0.  1.
         11    1    3    3    0    0  0.24174129223E+02  0.26121358059E+02  0.59857629608E+02  0.69639426281E+02  0.00000000000E+00 0. -1.
        -13    1    4    4    0    0  0.23956188242E+02 -0.13375210000E+02  0.47981301744E+02  0.55272059077E+02  0.00000000000E+00 0. -1.
         13    1    4    4    0    0 -0.22201791186E+01  0.59002405668E+02  0.93414446559E+02  0.11051005337E+03  0.00000000000E+00 0.  1.
          2    1    1    2  501    0 -0.17786476900E+02 -0.18771659089E+02  0.46486571340E+02  0.53195255996E+02  0.00000000000E+00 0. -1.
<scales pt_clust_5="13000.00000" pt_clust_6="13000.00000" pt_clust_7="13000.00000" pt_clust_8="13000.00000" pt_clust_9="25.85989"></scales>
<clustering>
<clus scale="   25.860">  2  9  1 -1</clus>
<clus scale="   70.261">  7  8 -1 -1</clus>
<clus scale="   79.378">  2  7  1 -1</clus>
<clus scale="   95.863">  5  6 -1 -1</clus>
<clus scale="   25.860">  2  5  1 -1</clus>
</clustering>
</event>
<event>
 9    1  0.1426358E-005  0.1018074E+03  0.7546771E-02  0.1277067E+00
         21   -1    0    0  501  502  0.00000000000E+00  0.00000000000E+00  0.19985130249E+03  0.19985130249E+03  0.00000000000E+00 0. -1.
          1   -1    0    0  502    0 -0.00000000000E+00 -0.00000000000E+00 -0.70269376078E+02  0.70269376078E+02  0.00000000000E+00 0. -1.
         23    2    1    2    0    0  0.35617490896E+02  0.37422583928E+02  0.34171895116E+02  0.10973326701E+03  0.90579335548E+02 0.  0.
         23    2    1    2    0    0 -0.41693335194E+02 -0.12738454599E+02  0.58016635062E+02  0.11517139441E+03  0.89431078047E+02 0.  0.
        -11    1    3    3    0    0  0.37190616406E+02 -0.12792238996E+02 -0.12390363704E+02  0.41234747967E+02  0.00000000000E+00 0. -1.
         11    1    3    3    0    0 -0.15731255107E+01  0.50214822925E+02  0.46562258820E+02  0.68498519047E+02  0.00000000000E+00 0.  1.
        -13    1    4    4    0    0  0.42249670226E+01  0.24098401609E+02  0.50124394204E+02  0.55776681515E+02  0.00000000000E+00 0. -1.
         13    1    4    4    0    0 -0.45918302217E+02 -0.36836856208E+02  0.78922408574E+01  0.59394712892E+02  0.00000000000E+00 0.  1.
          1    1    1    2  501    0  0.60758442986E+01 -0.24684129329E+02  0.37393396238E+02  0.45216017150E+02  0.00000000000E+00 0. -1.
<scales pt_clust_5="13000.00000" pt_clust_6="13000.00000" pt_clust_7="13000.00000" pt_clust_8="13000.00000" pt_clust_9="25.42090"></scales>
<clustering>
<clus scale="   25.421">  1  9  2 -1</clus>
<clus scale="   89.431">  7  8 -1 -1</clus>
<clus scale="   90.579">  5  6 -1 -1</clus>
<clus scale="  100.787">  1  7  2 -1</clus>
<clus scale="   25.421">  1  5  2 -1</clus>
</clustering>
</event>
<event>
 9    1  0.1426358E-005  0.9472271E+02  0.7546771E-02  0.1295306E+00
         -3   -1    0    0    0  501 -0.00000000000E+00  0.00000000000E+00  0.13270090838E+03  0.13270090838E+03  0.00000000000E+00 0.  1.
         21   -1    0    0  501  502  0.00000000000E+00 -0.00000000000E+00 -0.49694996427E+03  0.49694996427E+03  0.00000000000E+00 0. -1.
         23    2    1    2    0    0 -0.93431912631E+01 -0.23310290134E+02  0.91142623051E+02  0.12692202788E+03  0.84685055204E+02 0.  0.
         23    2    1    2    0    0 -0.47614854355E+02  0.53174289095E+02 -0.14348418849E+03  0.18426007081E+03  0.90936142269E+02 0.  0.
        -11    1    3    3    0    0 -0.38609788936E+02 -0.26122536595E+02  0.84913536241E+02  0.96868009976E+02  0.00000000000E+00 0.  1.
         11    1    3    3    0    0  0.29266597673E+02  0.28122464611E+01  0.62290868104E+01  0.30054017901E+02  0.00000000000E+00 0. -1.
        -13    1    4    4    0    0 -0.17700169934E+02 -0.20832614255E+02 -0.10754661478E+02  0.29376122547E+02  0.00000000000E+00 0.  1.
         13    1    4    4    0    0 -0.29914684422E+02  0.74006903350E+02 -0.13272952701E+03  0.15488394826E+03  0.00000000000E+00 0. -1.
         -3    1    1    2    0  502  0.56958045618E+02 -0.29863998961E+02 -0.31190749045E+03  0.31846877397E+03  0.00000000000E+00 0.  1.
<scales pt_clust_5="13000.00000" pt_clust_6="13000.00000" pt_clust_7="13000.00000" pt_clust_8="13000.00000" pt_clust_9="64.31234"></scales>
<clustering>
<clus scale="   64.312">  2  9  1 -1</clus>
<clus scale="   84.685">  5  6 -1 -1</clus>
<clus scale="   88.739">  1  5  2 -1</clus>
<clus scale="   90.936">  7  8 -1 -1</clus>
<clus scale="   64.312">  2  5  1 -1</clus>
</clustering>
</event>
<event>
 9    1  0.1426358E-005  0.9434296E+02  0.7546771E-02  0.1293847E+00
          1   -1    0    0  502    0 -0.00000000000E+00  0.00000000000E+00  0.33933079324E+03  0.33933079324E+03  0.00000000000E+00 0. -1.
         21   -1    0    0  501  502  0.00000000000E+00 -0.00000000000E+00 -0.36745164156E+02  0.36745164156E+02  0.00000000000E+00 0.  1.
         23    2    1    2    0    0 -0.19927121833E+02 -0.79319976248E+01  0.15481892287E+03  0.18085490660E+03  0.90992261179E+02 0.  0.
         23    2    1    2    0    0  0.30223680231E+02 -0.10701867135E+02  0.14595198398E+03  0.17385441213E+03  0.88855918121E+02 0.  0.
        -13    1    3    3    0    0  0.22833728443E+02  0.78278979977E+01  0.55280430891E+01  0.24763166236E+02  0.00000000000E+00 0.  1.
         13    1    3    3    0    0 -0.42760850276E+02 -0.15759895622E+02  0.14929087978E+03  0.15609174037E+03  0.00000000000E+00 0. -1.
        -13    1    4    4    0    0  0.18066501405E+02  0.39037270124E+02  0.60432311284E+02  0.74177969633E+02  0.00000000000E+00 0.  1.
         13    1    4    4    0    0  0.12157178826E+02 -0.49739137259E+02  0.85519672692E+02  0.99676442501E+02  0.00000000000E+00 0. -1.
          1    1    1    2  501    0 -0.10296558397E+02  0.18633864760E+02  0.18147222405E+01  0.21366638658E+02  0.00000000000E+00 0. -1.
<scales pt_clust_5="13000.00000" pt_clust_6="13000.00000" pt_clust_7="13000.00000" pt_clust_8="13000.00000" pt_clust_9="21.28943"></scales>
<clustering>
<clus scale="   21.289">  2  9  1 -1</clus>
<clus scale="   88.856">  7  8 -1 -1</clus>
<clus scale="   90.992">  5  6 -1 -1</clus>
<clus scale="   92.284">  2  7  1 -1</clus>
<clus scale="   21.289">  2  5  1 -1</clus>
</clustering>
</event>
<event>
 9    1  0.1426358E-005  0.9988905E+02  0.7546771E-02  0.1280941E+00
         21   -1    0    0  501  502  0.00000000000E+00  0.00000000000E+00  0.14555610796E+03  0.14555610796E+03  0.00000000000E+00 0. -1.
         -4   -1    0    0    0  501 -0.00000000000E+00 -0.00000000000E+00 -0.92541573860E+02  0.92541573860E+02  0.00000000000E+00 0.  1.
         23    2    1    2    0    0  0.41097713336E+02 -0.13051830761E+02 -0.90744197862E+01  0.10249185314E+03  0.92535736541E+02 0.  0.
         23    2    1    2    0    0 -0.31074733081E+02 -0.44265412331E+01  0.37755482753E+02  0.10401356004E+03  0.91695751759E+02 0.  0.
        -13    1    4    4    0    0  0.14813466044E+02 -0.37453189087E+02  0.18105316234E+02  0.44158607598E+02  0.00000000000E+00 0.  1.
         13    1    4    4    0    0 -0.45888199125E+02  0.33026647854E+02  0.19650166518E+02  0.59854952440E+02  0.00000000000E+00 0. -1.
        -13    1    3    3    0    0  0.58520482689E+02 -0.35734020792E+02  0.82347733098E+01  0.69060688004E+02  0.00000000000E+00 0.  1.
         13    1    3    3    0    0 -0.17422769353E+02  0.22682190031E+02 -0.17309193096E+02  0.33431165133E+02  0.00000000000E+00 0. -1.
         -4    1    1    2    0  502 -0.10022980255E+02  0.17478371994E+02  0.24333471133E+02  0.31592268645E+02  0.00000000000E+00 0.  1.
<scales pt_clust_5="13000.00000" pt_clust_6="13000.00000" pt_clust_7="13000.00000" pt_clust_8="13000.00000" pt_clust_9="20.14829"></scales>
<clustering>
<clus scale="   20.148">  1  9  2 -1</clus>
<clus scale="   91.696">  5  6 -1 -1</clus>
<clus scale="   92.536">  7  8 -1 -1</clus>
<clus scale="   99.111">  1  5  2 -1</clus>
<clus scale="   20.148">  1  5  2 -1</clus>
</clustering>
</event>
<event>
 9    1  0.1426358E-005  0.2186118E+03  0.7546771E-02  0.1135098E+00
          2   -1    0    0  502    0 -0.00000000000E+00  0.00000000000E+00  0.71066456888E+03  0.71066456888E+03  0.00000000000E+00 0. -1.
         21   -1    0    0  501  502  0.00000000000E+00 -0.00000000000E+00 -0.13637968303E+03  0.13637968303E+03  0.00000000000E+00 0. -1.
         23    2    1    2    0    0  0.42630823635E+02  0.18800651271E+03  0.50280462547E+03  0.54591906296E+03  0.89729014095E+02 0.  0.
         23    2    1    2    0    0 -0.32197292299E+02 -0.21656112950E+03  0.10163040995E+03  0.25830864733E+03  0.91974064913E+02 0.  0.
        -13    1    3    3    0    0  0.64657120200E+02  0.14831582476E+03  0.33411828495E+03  0.37123194287E+03  0.00000000000E+00 0. -1.
         13    1    3    3    0    0 -0.22026296565E+02  0.39690687946E+02  0.16868634052E+03  0.17468712009E+03  0.00000000000E+00 0.  1.
        -13    1    4    4    0    0 -0.31896845535E+02 -0.13166269164E+03  0.13831453075E+02  0.13617555661E+03  0.00000000000E+00 0.  1.
         13    1    4    4    0    0 -0.30044676406E+00 -0.84898437864E+02  0.87798956876E+02  0.12213309072E+03  0.00000000000E+00 0. -1.
          2    1    1    2  501    0 -0.10433531336E+02  0.28554616794E+02 -0.30150149575E+02  0.42816541614E+02  0.00000000000E+00 0. -1.
<scales pt_clust_5="13000.00000" pt_clust_6="13000.00000" pt_clust_7="13000.00000" pt_clust_8="13000.00000" pt_clust_9="30.40106"></scales>
<clustering>
<clus scale="   30.401">  2  9  1 -1</clus>
<clus scale="   89.729">  5  6 -1 -1</clus>
<clus scale="   91.974">  7  8 -1 -1</clus>
<clus scale="  217.677">  1  5  2 -1</clus>
<clus scale="   30.401">  2  5  1 -1</clus>
</clustering>
</event>
<event>
 9    1  0.1426358E-005  0.2372623E+03  0.7546771E-02  0.1121685E+00
          3   -1    0    0  502    0 -0.00000000000E+00  0.00000000000E+00  0.25074989242E+03  0.25074989242E+03  0.00000000000E+00 0. -1.
         21   -1    0    0  501  502  0.00000000000E+00 -0.00000000000E+00 -0.36812240769E+03  0.36812240769E+03  0.00000000000E+00 0.  1.
         23    2    1    2    0    0  0.17256231220E+03 -0.39586729119E+02 -0.61385190676E+02  0.20825590704E+03  0.90870900000E+02 0.  0.
         23    2    1    2    0    0 -0.27689802583E+03  0.37603982493E+02 -0.78425065116E+02  0.30387687545E+03  0.90022710411E+02 0.  0.
        -11    1    3    3    0    0  0.11869046397E+03  0.65153090317E+01 -0.68165551329E+02  0.13702706987E+03  0.00000000000E+00 0.  1.
         11    1    3    3    0    0  0.53871848229E+02 -0.46102038151E+02  0.67803606534E+01  0.71228837165E+02  0.00000000000E+00 0. -1.
        -13    1    4    4    0    0 -0.98827955994E+01  0.23077432660E+02 -0.14277015705E+02  0.28880282624E+02  0.00000000000E+00 0. -1.
         13    1    4    4    0    0 -0.26701523023E+03  0.14526549833E+02 -0.64148049411E+02  0.27499659283E+03  0.00000000000E+00 0.  1.
          3    1    1    2  501    0  0.10433571363E+03  0.19827466261E+01  0.22437740522E+02  0.10673951762E+03  0.00000000000E+00 0. -1.
<scales pt_clust_5="13000.00000" pt_clust_6="13000.00000" pt_clust_7="13000.00000" pt_clust_8="13000.00000" pt_clust_9="104.35460"></scales>
<clustering>
<clus scale="   90.023">  7  8 -1 -1</clus>
<clus scale="   90.871">  5  6 -1 -1</clus>
<clus scale="  104.355">  2  9  1 -1</clus>
<clus scale="  236.939">  2  7  1 -1</clus>
<clus scale="  104.355">  2  5  1 -1</clus>
</clustering>
</event>
<event>
 9    1  0.1426358E-005  0.9391013E+02  0.7546771E-02  0.1293925E+00
         21   -1    0    0  501  502  0.00000000000E+00  0.00000000000E+00  0.27358127365E+02  0.27358127365E+02  0.00000000000E+00 0.  1.
          1   -1    0    0  502    0 -0.00000000000E+00 -0.00000000000E+00 -0.47540794735E+03  0.47540794735E+03  0.00000000000E+00 0. -1.
         23    2    1    2    0    0 -0.25325263746E+02  0.19954756437E+00 -0.25142074390E+03  0.26806063776E+03  0.89457846236E+02 0.  0.
         23    2    1    2    0    0  0.24286129241E+02  0.25750239501E+02 -0.17861628779E+03  0.20309955473E+03  0.89959768548E+02 0.  0.
        -13    1    3    3    0    0 -0.47488655615E+02 -0.43549083388E+01 -0.23578042502E+03  0.24055466419E+03  0.00000000000E+00 0. -1.
         13    1    3    3    0    0  0.22163391870E+02  0.45544559032E+01 -0.15640318871E+02  0.27505973572E+02  0.00000000000E+00 0.  1.
        -13    1    4    4    0    0  0.92575050297E+01  0.57341720035E+02 -0.13652887785E+03  0.14837084869E+03  0.00000000000E+00 0.  1.
         13    1    4    4    0    0  0.15028624211E+02 -0.31591480534E+02 -0.42087409947E+02  0.54728706033E+02  0.00000000000E+00 0. -1.
          1    1    1    2  501    0  0.10391345046E+01 -0.25949787065E+02 -0.18012788301E+02  0.31605882231E+02  0.00000000000E+00 0. -1.
<scales pt_clust_5="13000.00000" pt_clust_6="13000.00000" pt_clust_7="13000.00000" pt_clust_8="13000.00000" pt_clust_9="25.97058"></scales>
<clustering>
<clus scale="   25.971">  1  9  2 -1</clus>
<clus scale="   89.458">  5  6 -1 -1</clus>
<clus scale="   89.960">  7  8 -1 -1</clus>
<clus scale="   93.429">  2  5  1 -1</clus>
<clus scale="   25.971">  1  5  2 -1</clus>
</clustering>
</event>
<event>
 9    1  0.1426358E-005  0.2146868E+03  0.7546771E-02  0.1138006E+00
          2   -1    0    0  502    0 -0.00000000000E+00  0.00000000000E+00  0.97980869472E+03  0.97980869472E+03  0.00000000000E+00 0. -1.
         21   -1    0    0  501  502  0.00000000000E+00 -0.00000000000E+00 -0.67909905844E+02  0.67909905844E+02  0.00000000000E+00 0.  1.
         23    2    1    2    0    0 -0.19709694262E+03  0.72026631606E+02  0.68038583025E+03  0.71782140074E+03  0.91146283045E+02 0.  0.
         23    2    1    2    0    0  0.15003659503E+03 -0.54757054410E+02  0.17390359666E+03  0.25353128335E+03  0.92338160314E+02 0.  0.
        -11    1    4    4    0    0  0.46503481337E+02  0.91335187173E+01  0.84120036899E+01  0.48132699350E+02  0.00000000000E+00 0.  1.
         11    1    4    4    0    0  0.10353311369E+03 -0.63890573127E+02  0.16549159297E+03  0.20539858400E+03  0.00000000000E+00 0. -1.
        -13    1    3    3    0    0 -0.13789832704E+03  0.84182370117E+02  0.40826253812E+03  0.43906824079E+03  0.00000000000E+00 0.  1.
         13    1    3    3    0    0 -0.59198615582E+02 -0.12155738511E+02  0.27212329213E+03  0.27875315995E+03  0.00000000000E+00 0. -1.
          2    1    1    2  501    0  0.47060347588E+02 -0.17269577196E+02  0.57609361958E+02  0.76365916460E+02  0.00000000000E+00 0. -1.
<scales pt_clust_5="13000.00000" pt_clust_6="13000.00000" pt_clust_7="13000.00000" pt_clust_8="13000.00000" pt_clust_9="50.12898"></scales>
<clustering>
<clus scale="   50.129">  2  9  1 -1</clus>
<clus scale="   91.146">  7  8 -1 -1</clus>
<clus scale="   92.338">  5  6 -1 -1</clus>
<clus scale="  214.177">  1  7  2 -1</clus>
<clus scale="   50.129">  2  5  1 -1</clus>
</clustering>
</event>
<event>
 9    1  0.1426358E-005  0.2465967E+03  0.7546771E-02  0.1115903E+00
         21   -1    0    0  501  502  0.00000000000E+00  0.00000000000E+00  0.13851925007E+03  0.13851925007E+03  0.00000000000E+00 0.  1.
         -4   -1    0    0    0  501 -0.00000000000E+00 -0.00000000000E+00 -0.13111702163E+04  0.13111702163E+04  0.00000000000E+00 0.  1.
         23    2    1    2    0    0  0.10674528734E+03 -0.20258564780E+03 -0.74953353889E+03  0.78850619332E+03  0.86637116293E+02 0.  0.
         23    2    1    2    0    0 -0.13196452452E+03  0.18577357166E+03 -0.51148778507E+03  0.56775963600E+03  0.93833865591E+02 0.  0.
        -11    1    4    4    0    0 -0.40842666307E+02  0.13472062781E+03 -0.26543855578E+03  0.30045864581E+03  0.00000000000E+00 0.  1.
         11    1    4    4    0    0 -0.91121858209E+02  0.51052943853E+02 -0.24604922929E+03  0.26730099018E+03  0.00000000000E+00 0. -1.
        -13    1    3    3    0    0  0.10232946838E+03 -0.15250807464E+03 -0.66740181731E+03  0.69221038614E+03  0.00000000000E+00 0.  1.
         13    1    3    3    0    0  0.44158189598E+01 -0.50077573167E+02 -0.82131721579E+02  0.96295807182E+02  0.00000000000E+00 0. -1.
         -4    1    1    2    0  502  0.25219237178E+02  0.16812076140E+02  0.88370357751E+02  0.93423637036E+02  0.00000000000E+00 0.  1.
<scales pt_clust_5="13000.00000" pt_clust_6="13000.00000" pt_clust_7="13000.00000" pt_clust_8="13000.00000" pt_clust_9="30.30934"></scales>
<clustering>
<clus scale="   30.309">  1  9  2 -1</clus>
<clus scale="   86.637">  7  8 -1 -1</clus>
<clus scale="   93.834">  5  6 -1 -1</clus>
<clus scale="  243.949">  2  7  1 -1</clus>
<clus scale="   30.309">  1  5  2 -1</clus>
</clustering>
</event>
<event>
 9    1  0.1426358E-005  0.1069701E+03  0.7546771E-02  0.1266288E+00
          1   -1    0    0  502    0 -0.00000000000E+00  0.00000000000E+00  0.14609420175E+03  0.14609420175E+03  0.00000000000E+00 0. -1.
         21   -1    0    0  501  502  0.00000000000E+00 -0.00000000000E+00 -0.17317848712E+03  0.17317848712E+03  0.00000000000E+00 0.  1.
         23    2    1    2    0    0 -0.21420254975E+02 -0.53573195503E+02  0.29852500859E+02  0.11085799332E+03  0.89829885200E+02 0.  0.
         23    2    1    2    0    0 -0.71511769840E+01  0.61697099268E+02  0.32682558582E+02  0.11400097038E+03  0.89835406276E+02 0.  0.
        -13    1    3    3    0    0  0.22591467125E+02  0.92045936883E+01 -0.75720651479E+01  0.25542809212E+02  0.00000000000E+00 0.  1.
         13    1    3    3    0    0 -0.44011722101E+02 -0.62777789191E+02  0.37424566007E+02  0.85315184104E+02  0.00000000000E+00 0. -1.
        -13    1    4    4    0    0 -0.21692724239E+01  0.24487264611E+02 -0.31310866301E+02  0.39808318471E+02  0.00000000000E+00 0.  1.
         13    1    4    4    0    0 -0.49819045601E+01  0.37209834657E+02  0.63993424883E+02  0.74192651904E+02  0.00000000000E+00 0. -1.
          1    1    1    2  501    0  0.28571431959E+02 -0.81239037656E+01 -0.89619344814E+02  0.94413725175E+02  0.00000000000E+00 0. -1.
<scales pt_clust_5="13000.00000" pt_clust_6="13000.00000" pt_clust_7="13000.00000" pt_clust_8="13000.00000" pt_clust_9="29.70395"></scales>
<clustering>
<clus scale="   29.704">  2  9  1 -1</clus>
<clus scale="   89.830">  5  6 -1 -1</clus>
<clus scale="   89.835">  7  8 -1 -1</clus>
<clus scale="  106.965">  1  5  2 -1</clus>
<clus scale="   29.704">  2  5  1 -1</clus>
</clustering>
</event>
<event>
 9    1  0.1426358E-005  0.1057573E+03  0.7546771E-02  0.1271205E+00
          1   -1    0    0  502    0 -0.00000000000E+00  0.00000000000E+00  0.15535439228E+03  0.15535439228E+03  0.00000000000E+00 0. -1.
         21   -1    0    0  501  502  0.00000000000E+00 -0.00000000000E+00 -0.28345375388E+03  0.28345375388E+03  0.00000000000E+00 0.  1.
         23    2    1    2    0    0  0.25616948475E+02  0.58862588096E+02  0.67156582151E+02  0.13290246504E+03  0.95036973652E+02 0.  0.
         23    2    1    2    0    0 -0.18014549207E+02 -0.18397453630E+02  0.12804662442E+02  0.93810326549E+02  0.89294051895E+02 0.  0.
        -11    1    4    4    0    0 -0.45518001167E+02 -0.19934382822E+02  0.33002441285E+02  0.59652570603E+02  0.00000000000E+00 0. -1.
         11    1    4    4    0    0  0.27503451961E+02  0.15369291924E+01 -0.20197778843E+02  0.34157755946E+02  0.00000000000E+00 0.  1.
        -11    1    3    3    0    0 -0.12644493758E+02  0.61454764964E+02  0.70538213621E+02  0.94404506990E+02  0.00000000000E+00 0.  1.
         11    1    3    3    0    0  0.38261442232E+02 -0.25921768684E+01 -0.33816314694E+01  0.38497958050E+02  0.00000000000E+00 0. -1.
          1    1    1    2  501    0 -0.76023992679E+01 -0.40465134466E+02 -0.20806060619E+03  0.21209535457E+03  0.00000000000E+00 0. -1.
<scales pt_clust_5="13000.00000" pt_clust_6="13000.00000" pt_clust_7="13000.00000" pt_clust_8="13000.00000" pt_clust_9="41.17309"></scales>
<clustering>
<clus scale="   41.173">  2  9  1 -1</clus>
<clus scale="   89.294">  5  6 -1 -1</clus>
<clus scale="   95.037">  7  8 -1 -1</clus>
<clus scale="  100.628">  2  5  1 -1</clus>
<clus scale="   41.173">  2  5  1 -1</clus>
</clustering>
</event>
<event>
 9    1  0.1426358E-005  0.1050836E+03  0.7546771E-02  0.1273471E+00
         21   -1    0    0  501  502  0.00000000000E+00  0.00000000000E+00  0.25811599893E+02  0.25811599893E+02  0.00000000000E+00 0.  1.
          1   -1    0    0  502    0 -0.00000000000E+00 -0.00000000000E+00 -0.62073992472E+03  0.62073992472E+03  0.00000000000E+00 0. -1.
         23    2    1    2    0    0 -0.18286026285E+02 -0.22262294522E+02 -0.32959962548E+03  0.34577847828E+03  0.10048310510E+03 0.  0.
         23    2    1    2    0    0  0.36099857727E+02  0.12713403503E+02 -0.13286464119E+03  0.16677587989E+03  0.93254227135E+02 0.  0.
        -13    1    3    3    0    0  0.32255969636E+02 -0.22809139254E+02 -0.62502975087E+02  0.73941370730E+02  0.00000000000E+00 0.  1.
         13    1    3    3    0    0 -0.50541995921E+02  0.54684473253E+00 -0.26709665040E+03  0.27183710755E+03  0.00000000000E+00 0. -1.
        -13    1    4    4    0    0  0.58996174724E+02  0.53717365222E+01 -0.41576082012E+02  0.72373854262E+02  0.00000000000E+00 0.  1.
         13    1    4    4    0    0 -0.22896316997E+02  0.73416669811E+01 -0.91288559179E+02  0.94402025630E+02  0.00000000000E+00 0. -1.
          1    1    1    2  501    0 -0.17813831443E+02  0.95488910187E+01 -0.13246405815E+03  0.13399716643E+03  0.00000000000E+00 0. -1.
<scales pt_clust_5="13000.00000" pt_clust_6="13000.00000" pt_clust_7="13000.00000" pt_clust_8="13000.00000" pt_clust_9="20.21174"></scales>
<clustering>
<clus scale="   20.212">  1  9  2 -1</clus>
<clus scale="   93.254">  7  8 -1 -1</clus>
<clus scale="   98.194">  1  7  2 -1</clus>
<clus scale="  100.483">  5  6 -1 -1</clus>
<clus scale="   20.212">  1  5  2 -1</clus>
</clustering>
</event>
<event>
 9    1  0.1426358E-005  0.9737970E+02  0.7546771E-02  0.1286174E+00
         21   -1    0    0  501  502  0.00000000000E+00  0.00000000000E+00  0.41682027180E+03  0.41682027180E+03  0.00000000000E+00 0. -1.
         -1   -1    0    0    0  501 -0.00000000000E+00 -0.00000000000E+00 -0.35820314075E+02  0.35820314075E+02  0.00000000000E+00 0.  1.
         23    2    1    2    0    0 -0.25016338529E+02  0.25948108355E+02  0.77828799926E+02  0.12468683917E+03  0.90500631181E+02 0.  0.
         23    2    1    2    0    0  0.73445281664E+01 -0.39913677029E+02  0.27305894091E+03  0.29034955019E+03  0.89970174909E+02 0.  0.
        -13    1    3    3    0    0 -0.57968541490E+02  0.16333067148E+02  0.63417693602E+02  0.87458131393E+02  0.00000000000E+00 0.  1.
         13    1    3    3    0    0  0.32952202961E+02  0.96150412071E+01  0.14411106324E+02  0.37228707779E+02  0.00000000000E+00 0. -1.
        -13    1    4    4    0    0 -0.20209410152E+02  0.17906933209E+02  0.37315973274E+02  0.46060399228E+02  0.00000000000E+00 0.  1.
         13    1    4    4    0    0  0.27553938318E+02 -0.57820610238E+02  0.23574296764E+03  0.24428915096E+03  0.00000000000E+00 0. -1.
         -1    1    1    2    0  502  0.17671810363E+02  0.13965568674E+02  0.30112216888E+02  0.37604196519E+02  0.00000000000E+00 0.  1.
<scales pt_clust_5="13000.00000" pt_clust_6="13000.00000" pt_clust_7="13000.00000" pt_clust_8="13000.00000" pt_clust_9="22.52400"></scales>
<clustering>
<clus scale="   22.524">  1  9  2 -1</clus>
<clus scale="   89.970">  7  8 -1 -1</clus>
<clus scale="   90.501">  5  6 -1 -1</clus>
<clus scale="   96.887">  1  7  2 -1</clus>
<clus scale="   22.524">  1  5  2 -1</clus>
</clustering>
</event>
<event>
 9    1  0.1426358E-005  0.9819886E+02  0.7546771E-02  0.1293129E+00
         21   -1    0    0  501  502  0.00000000000E+00  0.00000000000E+00  0.46727154542E+02  0.46727154542E+02  0.00000000000E+00 0. -1.
         -2   -1    0    0    0  501 -0.00000000000E+00 -0.00000000000E+00 -0.40792477734E+03  0.40792477734E+03  0.00000000000E+00 0.  1.
         23    2    1    2    0    0 -0.21664921060E+02 -0.16718827517E+02 -0.17503843989E+03  0.20201197270E+03  0.97064379036E+02 0.  0.
         23    2    1    2    0    0 -0.50473980972E+02  0.83950455097E+01 -0.87373705973E+02  0.13003540385E+03  0.81590086505E+02 0.  0.
        -11    1    4    4    0    0 -0.56927363841E+02  0.30329589327E+02 -0.85489517853E+02  0.10709372720E+03  0.00000000000E+00 0.  1.
         11    1    4    4    0    0  0.64533828691E+01 -0.21934543817E+02 -0.18841881205E+01  0.22941676656E+02  0.00000000000E+00 0. -1.
        -13    1    3    3    0    0 -0.59775956588E+02 -0.53877179230E+01 -0.11929027936E+03  0.13353787193E+03  0.00000000000E+00 0. -1.
         13    1    3    3    0    0  0.38111035528E+02 -0.11331109594E+02 -0.55748160525E+02  0.68474100765E+02  0.00000000000E+00 0.  1.
         -2    1    1    2    0  502  0.72138902032E+02  0.83237820073E+01 -0.98785476936E+02  0.12260455533E+03  0.00000000000E+00 0.  1.
<scales pt_clust_5="13000.00000" pt_clust_6="13000.00000" pt_clust_7="13000.00000" pt_clust_8="13000.00000" pt_clust_9="72.61757"></scales>
<clustering>
<clus scale="   72.618">  1  9  2 -1</clus>
<clus scale="   81.590">  5  6 -1 -1</clus>
<clus scale="   82.937">  1  5  2 -1</clus>
<clus scale="   97.064">  7  8 -1 -1</clus>
<clus scale="   72.618">  1  5  2 -1</clus>
</clustering>
</event>
<event>
 9    1  0.1426358E-005  0.9739348E+02  0.7546771E-02  0.1288784E+00
         21   -1    0    0  501  502  0.00000000000E+00  0.00000000000E+00  0.13180696935E+03  0.13180696935E+03  0.00000000000E+00 0.  1.
          1   -1    0    0  502    0 -0.00000000000E+00 -0.00000000000E+00 -0.11070665813E+03  0.11070665813E+03  0.00000000000E+00 0. -1.
         23    2    1    2    0    0 -0.37782800982E+02 -0.87260088806E+01 -0.13385751358E+02  0.10391941115E+03  0.95479748608E+02 0.  0.
         23    2    1    2    0    0 -0.50101288976E+01  0.87398666108E+00  0.18220250413E+02  0.92145688407E+02  0.90183064501E+02 0.  0.
        -11    1    4    4    0    0 -0.29089478824E+02 -0.35011026079E+02  0.17948373852E+02  0.48929682702E+02  0.00000000000E+00 0.  1.
         11    1    4    4    0    0  0.24079349926E+02  0.35885012741E+02  0.27187656015E+00  0.43216005705E+02  0.00000000000E+00 0. -1.
        -13    1    3    3    0    0 -0.33438314809E+02 -0.33175108279E+02 -0.44029655947E+02  0.64477277465E+02  0.00000000000E+00 0.  1.
         13    1    3    3    0    0 -0.43444861733E+01  0.24449099398E+02  0.30643904589E+02  0.39442133689E+02  0.00000000000E+00 0. -1.
          1    1    1    2  501    0  0.42792929880E+02  0.78520222196E+01  0.16265812156E+02  0.46448527918E+02  0.00000000000E+00 0. -1.
<scales pt_clust_5="13000.00000" pt_clust_6="13000.00000" pt_clust_7="13000.00000" pt_clust_8="13000.00000" pt_clust_9="43.50735"></scales>
<clustering>
<clus scale="   43.507">  1  9  2 -1</clus>
<clus scale="   90.183">  5  6 -1 -1</clus>
<clus scale="   92.207">  1  5  2 -1</clus>
<clus scale="   95.480">  7  8 -1 -1</clus>
<clus scale="   43.507">  1  5  2 -1</clus>
</clustering>
</event>
<event>
 9    1  0.1426358E-005  0.9449607E+02  0.7546771E-02  0.1293433E+00
          1   -1    0    0  502    0 -0.00000000000E+00  0.00000000000E+00  0.50422096582E+03  0.50422096582E+03  0.00000000000E+00 0. -1.
         21   -1    0    0  501  502  0.00000000000E+00 -0.00000000000E+00 -0.26214838725E+02  0.26214838725E+02  0.00000000000E+00 0.  1.
         23    2    1    2    0    0  0.21500241343E+02  0.67629025073E+01  0.29936823776E+03  0.31397423690E+03  0.91926505586E+02 0.  0.
         23    2    1    2    0    0 -0.22209017986E+02  0.19814143793E+02  0.14984244147E+03  0.17726948206E+03  0.89921472580E+02 0.  0.
        -13    1    4    4    0    0 -0.74650805760E+01 -0.26907178370E+02  0.11181942177E+03  0.11525322886E+03  0.00000000000E+00 0. -1.
         13    1    4    4    0    0 -0.14743937410E+02  0.46721322163E+02  0.38023019696E+02  0.62016253206E+02  0.00000000000E+00 0.  1.
        -13    1    3    3    0    0 -0.18228148837E+02  0.37253348794E+02  0.17617341507E+03  0.18098936318E+03  0.00000000000E+00 0.  1.
         13    1    3    3    0    0  0.39728390179E+02 -0.30490446287E+02  0.12319482269E+03  0.13298487372E+03  0.00000000000E+00 0. -1.
          1    1    1    2  501    0  0.70877664334E+00 -0.26577046300E+02  0.28795447856E+02  0.39192085573E+02  0.00000000000E+00 0. -1.
<scales pt_clust_5="13000.00000" pt_clust_6="13000.00000" pt_clust_7="13000.00000" pt_clust_8="13000.00000" pt_clust_9="26.58650"></scales>
<clustering>
<clus scale="   26.586">  2  9  1 -1</clus>
<clus scale="   89.921">  5  6 -1 -1</clus>
<clus scale="   91.927">  7  8 -1 -1</clus>
<clus scale="   92.547">  2  5  1 -1</clus>
<clus scale="   26.586">  2  5  1 -1</clus>
</clustering>
</event>
<event>
 9    1  0.1426358E-005  0.3707956E+03  0.7546771E-02  0.1054514E+00
          2   -1    0    0  502    0 -0.00000000000E+00  0.00000000000E+00  0.22451632156E+03  0.22451632156E+03  0.00000000000E+00 0. -1.
         21   -1    0    0  501  502  0.00000000000E+00 -0.00000000000E+00 -0.78612146506E+03  0.78612146506E+03  0.00000000000E+00 0. -1.
         23    2    1    2    0    0  0.27773833511E+03 -0.25352142978E+03 -0.16860997095E+03  0.42202547890E+03  0.90909209639E+02 0.  0.
         23    2    1    2    0    0 -0.23513111729E+03  0.24377007989E+03 -0.23160939696E+03  0.42141233044E+03  0.96098622896E+02 0.  0.
        -11    1    4    4    0    0 -0.24714607430E+02  0.18736616639E+02  0.69269253865E+01  0.31778214532E+02  0.00000000000E+00 0.  1.
         11    1    4    4    0    0 -0.21041650986E+03  0.22503346325E+03 -0.23853632234E+03  0.38963411591E+03  0.00000000000E+00 0. -1.
        -13    1    3    3    0    0  0.20346908823E+03 -0.22294621498E+03 -0.10502296088E+03  0.31958489788E+03  0.00000000000E+00 0. -1.
         13    1    3    3    0    0  0.74269246874E+02 -0.30575214797E+02 -0.63587010073E+02  0.10244058103E+03  0.00000000000E+00 0.  1.
          2    1    1    2  501    0 -0.42607217819E+02  0.97513498863E+01 -0.16138577560E+03  0.16719997727E+03  0.00000000000E+00 0. -1.
<scales pt_clust_5="13000.00000" pt_clust_6="13000.00000" pt_clust_7="13000.00000" pt_clust_8="13000.00000" pt_clust_9="43.70885"></scales>
<clustering>
<clus scale="   43.709">  2  9  1 -1</clus>
<clus scale="   90.909">  7  8 -1 -1</clus>
<clus scale="   96.099">  5  6 -1 -1</clus>
<clus scale="  369.485">  1  7  2 -1</clus>
<clus scale="   43.709">  2  5  1 -1</clus>
</clustering>
</event>
<event>
 9    1  0.1426358E-005  0.9766315E+02  0.7546771E-02  0.1285400E+00
         21   -1    0    0  501  502  0.00000000000E+00  0.00000000000E+00  0.41328558231E+02  0.41328558231E+02  0.00000000000E+00 0.  1.
          1   -1    0    0  502    0 -0.00000000000E+00 -0.00000000000E+00 -0.51200873841E+03  0.51200873841E+03  0.00000000000E+00 0. -1.
         23    2    1    2    0    0  0.15392425253E+02  0.11200098140E+02 -0.24185771797E+03  0.25936235467E+03  0.91713174207E+02 0.  0.
         23    2    1    2    0    0 -0.67279977365E+02  0.20343684593E+02 -0.18875330550E+03  0.22122285875E+03  0.91494710462E+02 0.  0.
        -13    1    3    3    0    0 -0.31916865414E+02  0.17602953788E+02 -0.51397363945E+02  0.63009834950E+02  0.00000000000E+00 0.  1.
         13    1    3    3    0    0  0.47309290667E+02 -0.64028556478E+01 -0.19046035403E+03  0.19635251972E+03  0.00000000000E+00 0. -1.
        -13    1    4    4    0    0 -0.52322969160E+02 -0.24434485548E+02 -0.56474771409E+02  0.80772130041E+02  0.00000000000E+00 0. -1.
         13    1    4    4    0    0 -0.14957008204E+02  0.44778170141E+02 -0.13227853409E+03  0.14045072871E+03  0.00000000000E+00 0.  1.
          1    1    1    2  501    0  0.51887552112E+02 -0.31543782733E+02 -0.40069156712E+02  0.72752083220E+02  0.00000000000E+00 0. -1.
<scales pt_clust_5="13000.00000" pt_clust_6="13000.00000" pt_clust_7="13000.00000" pt_clust_8="13000.00000" pt_clust_9="60.72338"></scales>
<clustering>
<clus scale="   60.723">  1  9  2 -1</clus>
<clus scale="   91.495">  7  8 -1 -1</clus>
<clus scale="   91.713">  5  6 -1 -1</clus>
<clus scale="   97.458">  1  7  2 -1</clus>
<clus scale="   60.723">  1  5  2 -1</clus>
</clustering>
</event>
<event>
 9    1  0.1426358E-005  0.9227956E+02  0.7546771E-02  0.1298236E+00
         21   -1    0    0  501  502  0.00000000000E+00  0.00000000000E+00  0.35774144948E+02  0.35774144948E+02  0.00000000000E+00 0. -1.
         -3   -1    0    0    0  501 -0.00000000000E+00 -0.00000000000E+00 -0.61585696201E+03  0.61585696201E+03  0.00000000000E+00 0.  1.
         23    2    1    2    0    0 -0.15740639841E+02  0.27561567166E+01 -0.41563917688E+03  0.42592692328E+03  0.91664903163E+02 0.  0.
         23    2    1    2    0    0 -0.20417220637E+02 -0.64112493702E+01 -0.49513472611E+02  0.10516500335E+03  0.90278053495E+02 0.  0.
        -13    1    4    4    0    0  0.30775429500E+02  0.38236487273E+00  0.37162765998E+01  0.31001354415E+02  0.00000000000E+00 0. -1.
         13    1    4    4    0    0 -0.51192650137E+02 -0.67936142430E+01 -0.53229749211E+02  0.74163648937E+02  0.00000000000E+00 0.  1.
        -13    1    3    3    0    0 -0.25411012709E+02  0.43927252924E+02 -0.22952128060E+03  0.23506454723E+03  0.00000000000E+00 0.  1.
         13    1    3    3    0    0  0.96703728685E+01 -0.41171096207E+02 -0.18611789629E+03  0.19086237605E+03  0.00000000000E+00 0. -1.
         -3    1    1    2    0  502  0.36157860478E+02  0.36550926536E+01 -0.11493016757E+03  0.12053918033E+03  0.00000000000E+00 0.  1.
<scales pt_clust_5="13000.00000" pt_clust_6="13000.00000" pt_clust_7="13000.00000" pt_clust_8="13000.00000" pt_clust_9="36.34215"></scales>
<clustering>
<clus scale="   36.342">  1  9  2 -1</clus>
<clus scale="   90.278">  5  6 -1 -1</clus>
<clus scale="   90.902">  1  5  2 -1</clus>
<clus scale="   91.665">  7  8 -1 -1</clus>
<clus scale="   36.342">  1  5  2 -1</clus>
</clustering>
</event>
<event>
 9    1  0.1426358E-005  0.2340069E+03  0.7546771E-02  0.1123927E+00
         21   -1    0    0  501  502  0.00000000000E+00  0.00000000000E+00  0.30575655878E+03  0.30575655878E+03  0.00000000000E+00 0.  1.
         -1   -1    0    0    0  501 -0.00000000000E+00 -0.00000000000E+00 -0.31036834039E+03  0.31036834039E+03  0.00000000000E+00 0.  1.
         23    2    1    2    0    0  0.40974029942E+02 -0.22638102814E+03 -0.17799533723E+03  0.30441365945E+03  0.89766892308E+02 0.  0.
         23    2    1    2    0    0 -0.93358282665E+01  0.17225799726E+03  0.14438900033E+03  0.24263908532E+03  0.90915163745E+02 0.  0.
        -11    1    4    4    0    0 -0.34614423513E+02  0.95944763175E+02  0.37017835969E+02  0.10850749318E+03  0.00000000000E+00 0. -1.
         11    1    4    4    0    0  0.25278595247E+02  0.76313234086E+02  0.10737116436E+03  0.13413159214E+03  0.00000000000E+00 0.  1.
        -13    1    3    3    0    0  0.61770489644E+02 -0.12818115139E+03 -0.76015368156E+02  0.16132060364E+03  0.00000000000E+00 0.  1.
         13    1    3    3    0    0 -0.20796459702E+02 -0.98199876746E+02 -0.10197996907E+03  0.14309305581E+03  0.00000000000E+00 0. -1.
         -1    1    1    2    0  502 -0.31638201675E+02  0.54123030879E+02  0.28994555281E+02  0.69072154395E+02  0.00000000000E+00 0.  1.
<scales pt_clust_5="13000.00000" pt_clust_6="13000.00000" pt_clust_7="13000.00000" pt_clust_8="13000.00000" pt_clust_9="62.69193"></scales>
<clustering>
<clus scale="   62.692">  1  9  2 -1</clus>
<clus scale="   89.767">  7  8 -1 -1</clus>
<clus scale="   90.915">  5  6 -1 -1</clus>
<clus scale="  233.563">  2  7  1 -1</clus>
<clus scale="   62.692">  1  5  2 -1</clus>
</clustering>
</event>
<event>
 9    1  0.1426358E-005  0.2244783E+03  0.7546771E-02  0.1130829E+00
          1   -1    0    0  502    0 -0.00000000000E+00  0.00000000000E+00  0.13873001025E+04  0.13873001025E+04  0.00000000000E+00 0. -1.
         21   -1    0    0  501  502  0.00000000000E+00 -0.00000000000E+00 -0.71357221906E+02  0.71357221906E+02  0.00000000000E+00 0. -1.
         23    2    1    2    0    0 -0.17853631371E+03  0.43190716196E+02  0.70613776443E+03  0.73492175934E+03  0.87970430917E+02 0.  0.
         23    2    1    2    0    0  0.27292895690E+03 -0.50516372878E+01  0.44176839671E+03  0.52726444883E+03  0.91283887474E+02 0.  0.
        -11    1    3    3    0    0 -0.75776277385E+02  0.48703062206E+02  0.21479902324E+03  0.23292198880E+03  0.00000000000E+00 0.  1.
         11    1    3    3    0    0 -0.10276003632E+03 -0.55123460095E+01  0.49133874119E+03  0.50199977054E+03  0.00000000000E+00 0. -1.
        -13    1    4    4    0    0  0.26542173252E+02 -0.26969168613E+02  0.85973124130E+02  0.93931896017E+02  0.00000000000E+00 0.  1.
         13    1    4    4    0    0  0.24638678365E+03  0.21917531325E+02  0.35579527258E+03  0.43333255282E+03  0.00000000000E+00 0. -1.
          1    1    1    2  501    0 -0.94392643194E+02 -0.38139078908E+02  0.16803671942E+03  0.19647111621E+03  0.00000000000E+00 0. -1.
<scales pt_clust_5="13000.00000" pt_clust_6="13000.00000" pt_clust_7="13000.00000" pt_clust_8="13000.00000" pt_clust_9="101.80649"></scales>
<clustering>
<clus scale="   87.970">  5  6 -1 -1</clus>
<clus scale="   91.284">  7  8 -1 -1</clus>
<clus scale="  101.806">  2  9  1 -1</clus>
<clus scale="  223.151">  1  5  2 -1</clus>
<clus scale="  101.806">  2  5  1 -1</clus>
</clustering>
</event>
<event>
 9    1  0.1426358E-005  0.1117802E+03  0.7546771E-02  0.1257425E+00
         21   -1    0    0  501  502  0.00000000000E+00  0.00000000000E+00  0.13841614611E+03  0.13841614611E+03  0.00000000000E+00 0.  1.
          2   -1    0    0  502    0 -0.00000000000E+00 -0.00000000000E+00 -0.13991557180E+03  0.13991557180E+03  0.00000000000E+00 0. -1.
         23    2    1    2    0    0  0.40753695135E+02 -0.68702090463E+02 -0.39270431712E+02  0.12739290735E+03  0.91136958112E+02 0.  0.
         23    2    1    2    0    0 -0.44299341725E+01  0.42687374299E+02  0.31532881618E+02  0.10582678042E+03  0.91450251997E+02 0.  0.
        -11    1    3    3    0    0 -0.13491805638E+02 -0.59251104257E+02 -0.18080440084E+01  0.60794664225E+02  0.00000000000E+00 0.  1.
         11    1    3    3    0    0  0.54245500773E+02 -0.94509862061E+01 -0.37462387704E+02  0.66598243121E+02  0.00000000000E+00 0. -1.
        -13    1    4    4    0    0 -0.19021580749E+02  0.27602495371E+02  0.61027020830E+02  0.69627692452E+02  0.00000000000E+00 0.  1.
         13    1    4    4    0    0  0.14591646577E+02  0.15084878928E+02 -0.29494139212E+02  0.36199087971E+02  0.00000000000E+00 0. -1.
          2    1    1    2  501    0 -0.36323760962E+02  0.26014716164E+02  0.62381244051E+01  0.45112030143E+02  0.00000000000E+00 0. -1.
<scales pt_clust_5="13000.00000" pt_clust_6="13000.00000" pt_clust_7="13000.00000" pt_clust_8="13000.00000" pt_clust_9="44.67864"></scales>
<clustering>
<clus scale="   44.679">  1  9  2 -1</clus>
<clus scale="   91.137">  5  6 -1 -1</clus>
<clus scale="   91.450">  7  8 -1 -1</clus>
<clus scale="  111.524">  2  5  1 -1</clus>
<clus scale="   44.679">  1  5  2 -1</clus>
</clustering>
</event>
<event>
 9    1  0.1426358E-005  0.1452637E+03  0.7546771E-02  0.1206631E+00
          1   -1    0    0  502    0 -0.00000000000E+00  0.00000000000E+00  0.32616696161E+03  0.32616696161E+03  0.00000000000E+00 0. -1.
         21   -1    0    0  501  502  0.00000000000E+00 -0.00000000000E+00 -0.24659440770E+03  0.24659440770E+03  0.00000000000E+00 0. -1.
         23    2    1    2    0    0 -0.31928526600E+02 -0.11824636077E+03  0.24558195747E+03  0.28910092717E+03  0.90924230053E+02 0.  0.
         23    2    1    2    0    0  0.49115013010E+02  0.71964268263E+02 -0.16541694339E+02  0.12625013910E+03  0.89857273280E+02 0.  0.
        -13    1    4    4    0    0  0.63756559196E+02  0.32469954127E+02  0.15645154085E+02  0.73239112555E+02  0.00000000000E+00 0.  1.
         13    1    4    4    0    0 -0.14641546186E+02  0.39494314136E+02 -0.32186848424E+02  0.53011026544E+02  0.00000000000E+00 0. -1.
        -13    1    3    3    0    0  0.17370681935E+02 -0.97434015018E+02  0.16319570428E+03  0.19086111644E+03  0.00000000000E+00 0.  1.
         13    1    3    3    0    0 -0.49299208535E+02 -0.20812345751E+02  0.82386253191E+02  0.98239810732E+02  0.00000000000E+00 0. -1.
          1    1    1    2  501    0 -0.17186486409E+02  0.46282092506E+02 -0.14946770922E+03  0.15741030304E+03  0.00000000000E+00 0. -1.
<scales pt_clust_5="13000.00000" pt_clust_6="13000.00000" pt_clust_7="13000.00000" pt_clust_8="13000.00000" pt_clust_9="49.37011"></scales>
<clustering>
<clus scale="   49.370">  2  9  1 -1</clus>
<clus scale="   89.857">  5  6 -1 -1</clus>
<clus scale="   90.924">  7  8 -1 -1</clus>
<clus scale="  144.598">  2  5  1 -1</clus>
<clus scale="   49.370">  2  5  1 -1</clus>
</clustering>
</event>
<event>
 9    1  0.1426358E-005  0.2949464E+03  0.7546771E-02  0.1087831E+00
          1   -1    0    0  502    0 -0.00000000000E+00  0.00000000000E+00  0.13940239045E+04  0.13940239045E+04  0.00000000000E+00 0. -1.
         21   -1    0    0  501  502  0.00000000000E+00 -0.00000000000E+00 -0.14464086362E+03  0.14464086362E+03  0.00000000000E+00 0. -1.
         23    2    1    2    0    0  0.83000165713E+01 -0.28074588464E+03  0.71493425865E+03  0.77335971192E+03  0.89817079736E+02 0.  0.
         23    2    1    2    0    0 -0.34438996822E+02  0.27955651752E+03  0.61411666102E+03  0.68145023053E+03  0.88866486088E+02 0.  0.
        -11    1    3    3    0    0 -0.40079056714E+02 -0.14085327843E+03  0.37603360846E+03  0.40354337006E+03  0.00000000000E+00 0. -1.
         11    1    3    3    0    0  0.48379073286E+02 -0.13989260621E+03  0.33890065019E+03  0.36981634186E+03  0.00000000000E+00 0.  1.
        -13    1    4    4    0    0 -0.88214783653E+01  0.24287905822E+03  0.45109157973E+03  0.51239795931E+03  0.00000000000E+00 0.  1.
         13    1    4    4    0    0 -0.25617518457E+02  0.36677459298E+02  0.16302508130E+03  0.16905227122E+03  0.00000000000E+00 0. -1.
          1    1    1    2  501    0  0.26138980251E+02  0.11893671189E+01 -0.79667878772E+02  0.83854825686E+02  0.00000000000E+00 0. -1.
<scales pt_clust_5="13000.00000" pt_clust_6="13000.00000" pt_clust_7="13000.00000" pt_clust_8="13000.00000" pt_clust_9="26.16603"></scales>
<clustering>
<clus scale="   26.166">  2  9  1 -1</clus>
<clus scale="   88.866">  7  8 -1 -1</clus>
<clus scale="   89.817">  5  6 -1 -1</clus>
<clus scale="  294.658">  2  7  1 -1</clus>
<clus scale="   26.166">  2  5  1 -1</clus>
</clustering>
</event>
<event>
 9    1  0.1426358E-005  0.1398683E+03  0.7546771E-02  0.1214190E+00
         21   -1    0    0  501  502  0.00000000000E+00  0.00000000000E+00  0.53774559054E+03  0.53774559054E+03  0.00000000000E+00 0. -1.
         -1   -1    0    0    0  501 -0.00000000000E+00 -0.00000000000E+00 -0.52636292567E+02  0.52636292567E+02  0.00000000000E+00 0.  1.
         23    2    1    2    0    0 -0.92943158486E+02 -0.46351386086E+02  0.10495223708E+03  0.17041233308E+03  0.85079430500E+02 0.  0.
         23    2    1    2    0    0  0.11544265429E+03  0.33084374773E+02  0.28946400634E+03  0.32559015056E+03  0.88306018444E+02 0.  0.
        -11    1    3    3    0    0 -0.76722668270E+02 -0.11925197125E+02  0.24507169688E+02  0.81419773514E+02  0.00000000000E+00 0.  1.
         11    1    3    3    0    0 -0.16220490216E+02 -0.34426188961E+02  0.80445067394E+02  0.88992559562E+02  0.00000000000E+00 0. -1.
        -13    1    4    4    0    0  0.45580594133E+02  0.29230799415E+02  0.42295221985E+02  0.68708922265E+02  0.00000000000E+00 0.  1.
         13    1    4    4    0    0  0.69862060153E+02  0.38535753578E+01  0.24716878435E+03  0.25688122830E+03  0.00000000000E+00 0. -1.
         -1    1    1    2    0  502 -0.22499495801E+02  0.13267011313E+02  0.90693054549E+02  0.94379399468E+02  0.00000000000E+00 0.  1.
<scales pt_clust_5="13000.00000" pt_clust_6="13000.00000" pt_clust_7="13000.00000" pt_clust_8="13000.00000" pt_clust_9="26.11974"></scales>
<clustering>
<clus scale="   26.120">  1  9  2 -1</clus>
<clus scale="   85.079">  5  6 -1 -1</clus>
<clus scale="   88.306">  7  8 -1 -1</clus>
<clus scale="  137.854">  2  5  1 -1</clus>
<clus scale="   26.120">  1  5  2 -1</clus>
</clustering>
</event>
<event>
 9    1  0.1426358E-005  0.9870883E+02  0.7546771E-02  0.1283544E+00
         21   -1    0    0  501  502  0.00000000000E+00  0.00000000000E+00  0.23535545838E+03  0.23535545838E+03  0.00000000000E+00 0.  1.
          1   -1    0    0  502    0 -0.00000000000E+00 -0.00000000000E+00 -0.77904592648E+02  0.77904592648E+02  0.00000000000E+00 0. -1.
         23    2    1    2    0    0  0.39313536825E+01 -0.30987890330E+02  0.17577305916E+02  0.99544041265E+02  0.92867376291E+02 0.  0.
         23    2    1    2    0    0  0.39012835187E+02  0.29978764074E+02  0.53242231714E+02  0.11701953257E+03  0.91859175695E+02 0.  0.
        -11    1    3    3    0    0  0.27012486993E+02 -0.49260619799E+02  0.34165202545E+02  0.65753662875E+02  0.00000000000E+00 0.  1.
         11    1    3    3    0    0 -0.23081133311E+02  0.18272729468E+02 -0.16587896629E+02  0.33790378390E+02  0.00000000000E+00 0. -1.
        -13    1    4    4    0    0 -0.28786947154E+02  0.15479382663E+02  0.28620490730E+02  0.43444586587E+02  0.00000000000E+00 0. -1.
         13    1    4    4    0    0  0.67799782341E+02  0.14499381411E+02  0.24621740984E+02  0.73574945980E+02  0.00000000000E+00 0.  1.
          1    1    1    2  501    0 -0.42944188869E+02  0.10091262562E+01  0.86631328108E+02  0.96696477202E+02  0.00000000000E+00 0. -1.
<scales pt_clust_5="13000.00000" pt_clust_6="13000.00000" pt_clust_7="13000.00000" pt_clust_8="13000.00000" pt_clust_9="42.95604"></scales>
<clustering>
<clus scale="   42.956">  1  9  2 -1</clus>
<clus scale="   91.859">  7  8 -1 -1</clus>
<clus scale="   92.867">  5  6 -1 -1</clus>
<clus scale="   97.761">  1  7  2 -1</clus>
<clus scale="   42.956">  1  5  2 -1</clus>
</clustering>
</event>
<event>
 9    1  0.1980205E-005  0.1036813E+03  0.7546771E-02  0.1279812E+00
         21   -1    0    0  501  502  0.00000000000E+00  0.00000000000E+00  0.12071139347E+03  0.12071139347E+03  0.00000000000E+00 0. -1.
          1   -1    0    0  502    0 -0.00000000000E+00 -0.00000000000E+00 -0.36491263384E+03  0.36491263384E+03  0.00000000000E+00 0. -1.
         23    2    1    2    0    0 -0.54923140779E+01 -0.18606189539E+01 -0.30032086859E+03  0.31372227804E+03  0.90528538114E+02 0.  0.
         23    2    1    2    0    0 -0.30481000302E+02 -0.22860579653E+02  0.14140720830E+02  0.11134231010E+03  0.10366027470E+03 0.  0.
        -11    1    3    3    0    0 -0.10280573706E+02  0.43653679851E+02 -0.15603195404E+03  0.16234932905E+03  0.00000000000E+00 0.  1.
         11    1    3    3    0    0  0.47882596286E+01 -0.45514298805E+02 -0.14428891454E+03  0.15137294899E+03  0.00000000000E+00 0. -1.
        -13    1    4    4    0    0 -0.12518002562E+02 -0.63585778037E+02  0.57019104451E+00  0.64808770043E+02  0.00000000000E+00 0.  1.
         13    1    4    4    0    0 -0.17962997740E+02  0.40725198384E+02  0.13570529786E+02  0.46533540053E+02  0.00000000000E+00 0. -1.
          1    1    1    2  501    0  0.35973314380E+02  0.24721198607E+02  0.41978907385E+02  0.60559439175E+02  0.00000000000E+00 0. -1.
<scales pt_clust_5="13000.00000" pt_clust_6="13000.00000" pt_clust_7="13000.00000" pt_clust_8="13000.00000" pt_clust_9="43.64879"></scales>
<clustering>
<clus scale="   43.649">  1  9  2 -1</clus>
<clus scale="   90.529">  5  6 -1 -1</clus>
<clus scale="   90.553">  2  5  1 -1</clus>
<clus scale="  103.660">  7  8 -1 -1</clus>
<clus scale="   43.649">  1  5  2 -1</clus>
</clustering>
</event>
<event>
 9    1  0.1426358E-005  0.1233781E+03  0.7546771E-02  0.1237952E+00
         -1   -1    0    0    0  501 -0.00000000000E+00  0.00000000000E+00  0.11000489412E+03  0.11000489412E+03  0.00000000000E+00 0.  1.
         21   -1    0    0  501  502  0.00000000000E+00 -0.00000000000E+00 -0.37913115724E+03  0.37913115724E+03  0.00000000000E+00 0.  1.
         23    2    1    2    0    0 -0.73956353798E+02  0.54539938893E+02 -0.27340043868E+01  0.12953401270E+03  0.91254799684E+02 0.  0.
         23    2    1    2    0    0  0.45373068589E+02 -0.59380838086E+02 -0.29249345692E+02  0.12069368866E+03  0.90147895002E+02 0.  0.
        -11    1    4    4    0    0 -0.16884378194E+02 -0.46745820158E+02  0.23190224310E+01  0.49755721222E+02  0.00000000000E+00 0. -1.
         11    1    4    4    0    0  0.62257446783E+02 -0.12635017928E+02 -0.31568368123E+02  0.70937967436E+02  0.00000000000E+00 0.  1.
        -13    1    3    3    0    0 -0.48878698423E+02  0.74076253897E+02  0.19340443571E+02  0.90832105054E+02  0.00000000000E+00 0.  1.
         13    1    3    3    0    0 -0.25077655375E+02 -0.19536315004E+02 -0.22074447958E+02  0.38701907649E+02  0.00000000000E+00 0. -1.
         -1    1    1    2    0  502  0.28583285209E+02  0.48408991925E+01 -0.23714291304E+03  0.23890835000E+03  0.00000000000E+00 0.  1.
<scales pt_clust_5="13000.00000" pt_clust_6="13000.00000" pt_clust_7="13000.00000" pt_clust_8="13000.00000" pt_clust_9="28.99032"></scales>
<clustering>
<clus scale="   28.990">  2  9  1 -1</clus>
<clus scale="   90.148">  5  6 -1 -1</clus>
<clus scale="   91.255">  7  8 -1 -1</clus>
<clus scale="  122.562">  2  5  1 -1</clus>
<clus scale="   28.990">  2  5  1 -1</clus>
</clustering>
</event>
<event>
 9    1  0.1426358E-005  0.2292249E+03  0.7546771E-02  0.1129009E+00
          2   -1    0    0  502    0 -0.00000000000E+00  0.00000000000E+00  0.76069696055E+03  0.76069696055E+03  0.00000000000E+00 0. -1.
         21   -1    0    0  501  502  0.00000000000E+00 -0.00000000000E+00 -0.14920765024E+03  0.14920765024E+03  0.00000000000E+00 0. -1.
         23    2    1    2    0    0 -0.34909712002E+02  0.19910526444E+03  0.38248649070E+03  0.44706234849E+03  0.11272636582E+03 0.  0.
         23    2    1    2    0    0 -0.17638381183E+02 -0.19960269481E+03  0.30158843094E+03  0.37323076467E+03  0.90516704238E+02 0.  0.
        -11    1    3    3    0    0 -0.68515248291E+02  0.72624785642E+02  0.14802281518E+03  0.17854817992E+03  0.00000000000E+00 0.  1.
         11    1    3    3    0    0  0.33605536289E+02  0.12648047880E+03  0.23446367552E+03  0.26851416858E+03  0.00000000000E+00 0. -1.
        -13    1    4    4    0    0  0.30197188926E+02 -0.82494978800E+02  0.84019215916E+02  0.12155871170E+03  0.00000000000E+00 0. -1.
         13    1    4    4    0    0 -0.47835570109E+02 -0.11710771601E+03  0.21756921503E+03  0.25167205297E+03  0.00000000000E+00 0.  1.
          2    1    1    2  501    0  0.52548093185E+02  0.49743037104E+00 -0.72585611341E+02  0.89611497633E+02  0.00000000000E+00 0. -1.
<scales pt_clust_5="13000.00000" pt_clust_6="13000.00000" pt_clust_7="13000.00000" pt_clust_8="13000.00000" pt_clust_9="52.55045"></scales>
<clustering>
<clus scale="   52.550">  2  9  1 -1</clus>
<clus scale="   90.517">  7  8 -1 -1</clus>
<clus scale="  112.726">  5  6 -1 -1</clus>
<clus scale="  219.158">  2  7  1 -1</clus>
<clus scale="   52.550">  2  5  1 -1</clus>
</clustering>
</event>
<event>
 9    1  0.1426358E-005  0.9379537E+02  0.7546771E-02  0.1294769E+00
         -1   -1    0    0    0  501 -0.00000000000E+00  0.00000000000E+00  0.35336570602E+02  0.35336570602E+02  0.00000000000E+00 0.  1.
         21   -1    0    0  501  502  0.00000000000E+00 -0.00000000000E+00 -0.38594288441E+03  0.38594288441E+03  0.00000000000E+00 0.  1.
         23    2    1    2    0    0 -0.18223751980E+02  0.17056572871E+02 -0.14829193378E+03  0.17636892433E+03  0.92154587680E+02 0.  0.
         23    2    1    2    0    0 -0.91138280970E+01  0.13586710532E+02 -0.15881344742E+03  0.18508841738E+03  0.93639471387E+02 0.  0.
        -11    1    3    3    0    0 -0.39247016311E+02  0.23608030955E+02 -0.27151811145E+02  0.53243668763E+02  0.00000000000E+00 0.  1.
         11    1    3    3    0    0  0.21023264331E+02 -0.65514580840E+01 -0.12114012264E+03  0.12312525557E+03  0.00000000000E+00 0. -1.
        -13    1    4    4    0    0  0.22987446304E+02  0.44361756808E+02 -0.73397863281E+02  0.88789833252E+02  0.00000000000E+00 0.  1.
         13    1    4    4    0    0 -0.32101274401E+02 -0.30775046276E+02 -0.85415584136E+02  0.96298584127E+02  0.00000000000E+00 0. -1.
         -1    1    1    2    0  502  0.27337580077E+02 -0.30643283403E+02 -0.43500932610E+02  0.59822113303E+02  0.00000000000E+00 0.  1.
<scales pt_clust_5="13000.00000" pt_clust_6="13000.00000" pt_clust_7="13000.00000" pt_clust_8="13000.00000" pt_clust_9="41.06526"></scales>
<clustering>
<clus scale="   41.065">  2  9  1 -1</clus>
<clus scale="   92.155">  5  6 -1 -1</clus>
<clus scale="   92.313">  1  5  2 -1</clus>
<clus scale="   93.639">  7  8 -1 -1</clus>
<clus scale="   41.065">  2  5  1 -1</clus>
</clustering>
</event>
<event>
 9    1  0.1426358E-005  0.1425455E+03  0.7546771E-02  0.1210624E+00
         21   -1    0    0  501  502  0.00000000000E+00  0.00000000000E+00  0.17027604303E+03  0.17027604303E+03  0.00000000000E+00 0. -1.
          4   -1    0    0  502    0 -0.00000000000E+00 -0.00000000000E+00 -0.21036937817E+03  0.21036937817E+03  0.00000000000E+00 0. -1.
         23    2    1    2    0    0  0.82765253972E+02  0.50170621629E+02 -0.63962686657E+02  0.14920015015E+03  0.93820472070E+02 0.  0.
         23    2    1    2    0    0 -0.12688234016E+03 -0.21889289172E+02 -0.25405439731E+02  0.15951366387E+03  0.90669197456E+02 0.  0.
        -11    1    4    4    0    0 -0.98265059890E+02 -0.43676311304E+02 -0.47223345410E+02  0.11744652620E+03  0.00000000000E+00 0. -1.
         11    1    4    4    0    0 -0.28617280270E+02  0.21787022131E+02  0.21817905679E+02  0.42067137669E+02  0.00000000000E+00 0.  1.
        -11    1    3    3    0    0  0.83199458180E+02  0.27767619795E+02 -0.70010917729E+01  0.87989805299E+02  0.00000000000E+00 0.  1.
         11    1    3    3    0    0 -0.43420420881E+00  0.22403001834E+02 -0.56961594884E+02  0.61210344846E+02  0.00000000000E+00 0. -1.
          4    1    1    2  501    0  0.44117086189E+02 -0.28281332457E+02  0.49274791254E+02  0.71931607186E+02  0.00000000000E+00 0. -1.
<scales pt_clust_5="13000.00000" pt_clust_6="13000.00000" pt_clust_7="13000.00000" pt_clust_8="13000.00000" pt_clust_9="52.40373"></scales>
<clustering>
<clus scale="   52.404">  1  9  2 -1</clus>
<clus scale="   90.669">  5  6 -1 -1</clus>
<clus scale="   93.820">  7  8 -1 -1</clus>
<clus scale="  140.491">  1  5  2 -1</clus>
<clus scale="   52.404">  1  5  2 -1</clus>
</clustering>
</event>
<event>
 9    1  0.1426358E-005  0.1655910E+03  0.7546771E-02  0.1182858E+00
         -2   -1    0    0    0  501 -0.00000000000E+00  0.00000000000E+00  0.21222118523E+03  0.21222118523E+03  0.00000000000E+00 0.  1.
         21   -1    0    0  501  502  0.00000000000E+00 -0.00000000000E+00 -0.21084458314E+03  0.21084458314E+03  0.00000000000E+00 0.  1.
         23    2    1    2    0    0  0.68904351549E+02  0.10852583302E+03  0.87275110806E+02  0.17991100249E+03  0.90693758096E+02 0.  0.
         23    2    1    2    0    0 -0.68548534033E+02 -0.14815328670E+03 -0.72219416880E+02  0.20123127312E+03  0.92898241267E+02 0.  0.
        -11    1    3    3    0    0  0.19107616660E+02  0.94761115544E+02  0.26683315669E+02  0.10028344514E+03  0.00000000000E+00 0.  1.
         11    1    3    3    0    0  0.49796734889E+02  0.13764717475E+02  0.60591795136E+02  0.79627557357E+02  0.00000000000E+00 0. -1.
        -11    1    4    4    0    0 -0.33565207405E+02 -0.14655268765E+03 -0.45185114153E+02  0.15699047088E+03  0.00000000000E+00 0.  1.
         11    1    4    4    0    0 -0.34983326629E+02 -0.16005990477E+01 -0.27034302727E+02  0.44240802245E+02  0.00000000000E+00 0. -1.
         -2    1    1    2    0  502 -0.35581751541E+00  0.39627453677E+02 -0.13679091836E+02  0.41923492752E+02  0.00000000000E+00 0.  1.
<scales pt_clust_5="13000.00000" pt_clust_6="13000.00000" pt_clust_7="13000.00000" pt_clust_8="13000.00000" pt_clust_9="39.62905"></scales>
<clustering>
<clus scale="   39.629">  2  9  1 -1</clus>
<clus scale="   90.694">  5  6 -1 -1</clus>
<clus scale="   92.898">  7  8 -1 -1</clus>
<clus scale="  164.364">  1  5  2 -1</clus>
<clus scale="   39.629">  2  5  1 -1</clus>
</clustering>
</event>
<event>
 9    1  0.1426358E-005  0.1535343E+03  0.7546771E-02  0.1196520E+00
         21   -1    0    0  501  502  0.00000000000E+00  0.00000000000E+00  0.43984245669E+03  0.43984245669E+03  0.00000000000E+00 0.  1.
          3   -1    0    0  502    0 -0.00000000000E+00 -0.00000000000E+00 -0.64852320689E+02  0.64852320689E+02  0.00000000000E+00 0. -1.
         23    2    1    2    0    0 -0.12117113426E+03 -0.42081143784E+02  0.15176836018E+03  0.21884970308E+03  0.91696733557E+02 0.  0.
         23    2    1    2    0    0  0.10289300641E+03  0.59651096108E+02  0.16513549807E+03  0.22246677482E+03  0.89869400473E+02 0.  0.
        -13    1    4    4    0    0 -0.55872550006E+01  0.26955696739E+02  0.67515376159E+02  0.72911953910E+02  0.00000000000E+00 0.  1.
         13    1    4    4    0    0  0.10848026141E+03  0.32695399370E+02  0.97620121915E+02  0.14955482091E+03  0.00000000000E+00 0. -1.
        -13    1    3    3    0    0 -0.99839035443E+02  0.69243462432E+01  0.12155880730E+03  0.15745578173E+03  0.00000000000E+00 0. -1.
         13    1    3    3    0    0 -0.21332098815E+02 -0.49005490027E+02  0.30209552883E+02  0.61393921344E+02  0.00000000000E+00 0.  1.
          3    1    1    2  501    0  0.18278127847E+02 -0.17569952325E+02  0.58086277744E+02  0.63378299476E+02  0.00000000000E+00 0. -1.
<scales pt_clust_5="13000.00000" pt_clust_6="13000.00000" pt_clust_7="13000.00000" pt_clust_8="13000.00000" pt_clust_9="25.35337"></scales>
<clustering>
<clus scale="   25.353">  1  9  2 -1</clus>
<clus scale="   89.869">  5  6 -1 -1</clus>
<clus scale="   91.697">  7  8 -1 -1</clus>
<clus scale="  152.450">  1  5  2 -1</clus>
<clus scale="   25.353">  1  5  2 -1</clus>
</clustering>
</event>
<event>
 9    1  0.1426358E-005  0.1008099E+03  0.7546771E-02  0.1278975E+00
          3   -1    0    0  502    0 -0.00000000000E+00  0.00000000000E+00  0.10254118287E+03  0.10254118287E+03  0.00000000000E+00 0. -1.
         21   -1    0    0  501  502  0.00000000000E+00 -0.00000000000E+00 -0.44217796404E+03  0.44217796404E+03  0.00000000000E+00 0.  1.
         23    2    1    2    0    0 -0.32232390009E+02 -0.74124313216E+01  0.41094322712E+02  0.10626760419E+03  0.92250686919E+02 0.  0.
         23    2    1    2    0    0  0.10561014442E+03 -0.15447336748E+02 -0.24287744966E+03  0.28062095689E+03  0.91468809319E+02 0.  0.
        -11    1    4    4    0    0  0.21965518282E+02 -0.42885337023E+02 -0.54856591636E+02  0.73012887704E+02  0.00000000000E+00 0. -1.
         11    1    4    4    0    0  0.83644626139E+02  0.27438000276E+02 -0.18802085802E+03  0.20760806919E+03  0.00000000000E+00 0.  1.
        -11    1    3    3    0    0 -0.41182545763E+02  0.32111472279E+02  0.39908807588E+02  0.65725654433E+02  0.00000000000E+00 0. -1.
         11    1    3    3    0    0  0.89501557546E+01 -0.39523903601E+02  0.11855151236E+01  0.40541949755E+02  0.00000000000E+00 0.  1.
          3    1    1    2  501    0 -0.73377754413E+02  0.22859768069E+02 -0.13785365423E+03  0.15783058583E+03  0.00000000000E+00 0. -1.
<scales pt_clust_5="13000.00000" pt_clust_6="13000.00000" pt_clust_7="13000.00000" pt_clust_8="13000.00000" pt_clust_9="76.85612"></scales>
<clustering>
<clus scale="   76.856">  2  9  1 -1</clus>
<clus scale="   91.469">  5  6 -1 -1</clus>
<clus scale="   92.251">  7  8 -1 -1</clus>
<clus scale="  100.095">  2  5  1 -1</clus>
<clus scale="   76.856">  2  5  1 -1</clus>
</clustering>
</event>
<event>
 9    1  0.1426358E-005  0.9484557E+02  0.7546771E-02  0.1300498E+00
         -4   -1    0    0    0  501 -0.00000000000E+00  0.00000000000E+00  0.10286065424E+03  0.10286065424E+03  0.00000000000E+00 0.  1.
         21   -1    0    0  501  502  0.00000000000E+00 -0.00000000000E+00 -0.15223351150E+03  0.15223351150E+03  0.00000000000E+00 0.  1.
         23    2    1    2    0    0 -0.78990202314E+01  0.86321028935E+01  0.53572501308E+01  0.91710262273E+02  0.90802887379E+02 0.  0.
         23    2    1    2    0    0  0.17675677155E+01 -0.43060676874E+02  0.12295186238E+02  0.87784224885E+02  0.75482132624E+02 0.  0.
        -11    1    3    3    0    0  0.37282309853E+02 -0.43485484468E+01  0.19925027148E+02  0.42495731649E+02  0.00000000000E+00 0.  1.
         11    1    3    3    0    0 -0.45181330084E+02  0.12980651340E+02 -0.14567777017E+02  0.49214530624E+02  0.00000000000E+00 0. -1.
        -13    1    4    4    0    0  0.34481958405E+02 -0.10889627988E+02 -0.89045017401E+01  0.37240832488E+02  0.00000000000E+00 0.  1.
         13    1    4    4    0    0 -0.32714390690E+02 -0.32171048885E+02  0.21199687978E+02  0.50543392396E+02  0.00000000000E+00 0. -1.
         -4    1    1    2    0  502  0.61314525158E+01  0.34428573980E+02 -0.67025293629E+02  0.75599678586E+02  0.00000000000E+00 0.  1.
<scales pt_clust_5="13000.00000" pt_clust_6="13000.00000" pt_clust_7="13000.00000" pt_clust_8="13000.00000" pt_clust_9="34.97029"></scales>
<clustering>
<clus scale="   34.970">  2  9  1 -1</clus>
<clus scale="   75.482">  7  8 -1 -1</clus>
<clus scale="   80.300">  2  7  1 -1</clus>
<clus scale="   90.803">  5  6 -1 -1</clus>
<clus scale="   34.970">  2  5  1 -1</clus>
</clustering>
</event>
<event>
 9    1  0.1426358E-005  0.9688452E+02  0.7546771E-02  0.1288467E+00
         -4   -1    0    0    0  501 -0.00000000000E+00  0.00000000000E+00  0.59927967800E+03  0.59927967800E+03  0.00000000000E+00 0.  1.
         21   -1    0    0  501  502  0.00000000000E+00 -0.00000000000E+00 -0.23436382942E+02  0.23436382942E+02  0.00000000000E+00 0. -1.
         23    2    1    2    0    0 -0.94512245681E+01  0.14069358312E+02  0.27845192244E+03  0.29397863935E+03  0.92739930966E+02 0.  0.
         23    2    1    2    0    0  0.27145664071E+01 -0.42234459525E+02  0.27410220338E+03  0.29157506304E+03  0.89960441556E+02 0.  0.
        -11    1    4    4    0    0  0.26305791383E+02 -0.62343031499E+02  0.17055481163E+03  0.18348730748E+03  0.00000000000E+00 0.  1.
         11    1    4    4    0    0 -0.23591224976E+02  0.20108571974E+02  0.10354739175E+03  0.10808775556E+03  0.00000000000E+00 0. -1.
        -11    1    3    3    0    0 -0.87684390903E+00 -0.35352125919E+02  0.18048972660E+03  0.18392140460E+03  0.00000000000E+00 0.  1.
         11    1    3    3    0    0 -0.85743806591E+01  0.49421484231E+02  0.97962195842E+02  0.11005723475E+03  0.00000000000E+00 0. -1.
         -4    1    1    2    0  502  0.67366581609E+01  0.28165101213E+02  0.23289169241E+02  0.37162358556E+02  0.00000000000E+00 0.  1.
<scales pt_clust_5="13000.00000" pt_clust_6="13000.00000" pt_clust_7="13000.00000" pt_clust_8="13000.00000" pt_clust_9="28.95955"></scales>
<clustering>
<clus scale="   28.960">  2  9  1 -1</clus>
<clus scale="   89.960">  5  6 -1 -1</clus>
<clus scale="   92.740">  7  8 -1 -1</clus>
<clus scale="   94.227">  2  5  1 -1</clus>
<clus scale="   28.960">  2  5  1 -1</clus>
</clustering>
</event>
<event>
 9    1  0.1426358E-005  0.9880042E+02  0.7546771E-02  0.1283204E+00
         21   -1    0    0  501  502  0.00000000000E+00  0.00000000000E+00  0.21919849628E+03  0.21919849628E+03  0.00000000000E+00 0. -1.
         -3   -1    0    0    0  501 -0.00000000000E+00 -0.00000000000E+00 -0.64836020534E+02  0.64836020534E+02  0.00000000000E+00 0.  1.
         23    2    1    2    0    0 -0.25571475726E+02  0.72256975488E+01  0.33823824177E+02  0.10285936180E+03  0.93433859775E+02 0.  0.
         23    2    1    2    0    0  0.26551763926E+02 -0.36473748968E+02  0.76874751087E+02  0.12861142529E+03  0.92713757498E+02 0.  0.
        -11    1    4    4    0    0 -0.30216894012E+02  0.69808360686E+01  0.29826303120E+02  0.43027910869E+02  0.00000000000E+00 0.  1.
         11    1    4    4    0    0  0.56768657938E+02 -0.43454585036E+02  0.47048447966E+02  0.85583514422E+02  0.00000000000E+00 0. -1.
        -11    1    3    3    0    0  0.59323880090E+01  0.46413388686E+02  0.14393525258E+02  0.48954769391E+02  0.00000000000E+00 0.  1.
         11    1    3    3    0    0 -0.31503863735E+02 -0.39187691137E+02  0.19430298919E+02  0.53904592411E+02  0.00000000000E+00 0. -1.
         -3    1    1    2    0  502 -0.98028819955E+00  0.29248051419E+02  0.43663900478E+02  0.52563729717E+02  0.00000000000E+00 0.  1.
<scales pt_clust_5="13000.00000" pt_clust_6="13000.00000" pt_clust_7="13000.00000" pt_clust_8="13000.00000" pt_clust_9="29.26447"></scales>
<clustering>
<clus scale="   29.264">  1  9  2 -1</clus>
<clus scale="   92.714">  5  6 -1 -1</clus>
<clus scale="   93.434">  7  8 -1 -1</clus>
<clus scale="   98.120">  1  5  2 -1</clus>
<clus scale="   29.264">  1  5  2 -1</clus>
</clustering>
</event>
<event>
 9    1  0.1426358E-005  0.3672580E+03  0.7546771E-02  0.1055790E+00
         21   -1    0    0  501  502  0.00000000000E+00  0.00000000000E+00  0.34637777508E+03  0.34637777508E+03  0.00000000000E+00 0. -1.
          3   -1    0    0  502    0 -0.00000000000E+00 -0.00000000000E+00 -0.12913538716E+04  0.12913538716E+04  0.00000000000E+00 0. -1.
         23    2    1    2    0    0 -0.26570448415E+03 -0.46735927893E+02 -0.34357264381E+03  0.44642679389E+03  0.92041299849E+02 0.  0.
         23    2    1    2    0    0  0.48897931467E+03 -0.68041916966E+02 -0.74786877688E+03  0.90065438439E+03  0.90222724633E+02 0.  0.
        -11    1    3    3    0    0 -0.72867085834E+02  0.13330554078E+02 -0.47411052263E+02  0.87949552282E+02  0.00000000000E+00 0.  1.
         11    1    3    3    0    0 -0.19283739832E+03 -0.60066481971E+02 -0.29616159154E+03  0.35847724161E+03  0.00000000000E+00 0. -1.
        -13    1    4    4    0    0  0.10135887100E+03 -0.42376835061E+02 -0.21220146582E+03  0.23895371723E+03  0.00000000000E+00 0.  1.
         13    1    4    4    0    0  0.38762044367E+03 -0.25665081904E+02 -0.53566731106E+03  0.66170066716E+03  0.00000000000E+00 0. -1.
          3    1    1    2  501    0 -0.22327483052E+03  0.11477784486E+03  0.14646532415E+03  0.29065046842E+03  0.00000000000E+00 0. -1.
<scales pt_clust_5="13000.00000" pt_clust_6="13000.00000" pt_clust_7="13000.00000" pt_clust_8="13000.00000" pt_clust_9="251.04901"></scales>
<clustering>
<clus scale="   90.223">  7  8 -1 -1</clus>
<clus scale="   92.041">  5  6 -1 -1</clus>
<clus scale="  251.049">  1  9  2 -1</clus>
<clus scale="  366.806">  1  7  2 -1</clus>
<clus scale="  251.049">  1  5  2 -1</clus>
</clustering>
</event>
<event>
 9    1  0.1426358E-005  0.1569288E+03  0.7546771E-02  0.1203453E+00
         21   -1    0    0  501  502  0.00000000000E+00  0.00000000000E+00  0.43405800218E+03  0.43405800218E+03  0.00000000000E+00 0. -1.
          1   -1    0    0  502    0 -0.00000000000E+00 -0.00000000000E+00 -0.46587694220E+03  0.46587694220E+03  0.00000000000E+00 0. -1.
         23    2    1    2    0    0  0.22932108473E+02 -0.79066287552E+02 -0.14146631095E+03  0.18733810515E+03  0.91134456045E+02 0.  0.
         23    2    1    2    0    0 -0.40520737387E+01  0.20254740934E+03 -0.24843685915E+03  0.33334974435E+03  0.91429244462E+02 0.  0.
        -11    1    3    3    0    0 -0.19744840733E+02 -0.71644873426E+02 -0.61790752319E+02  0.96648557650E+02  0.00000000000E+00 0.  1.
         11    1    3    3    0    0  0.42676949206E+02 -0.74214141261E+01 -0.79675558635E+02  0.90689547496E+02  0.00000000000E+00 0. -1.
        -13    1    4    4    0    0  0.33886766264E+02  0.36784698358E+02 -0.38107057533E+02  0.62877458560E+02  0.00000000000E+00 0.  1.
         13    1    4    4    0    0 -0.37938840003E+02  0.16576271098E+03 -0.21032980162E+03  0.27047228579E+03  0.00000000000E+00 0. -1.
          1    1    1    2  501    0 -0.18880034735E+02 -0.12348112179E+03  0.35808423008E+03  0.37924709489E+03  0.00000000000E+00 0. -1.
<scales pt_clust_5="13000.00000" pt_clust_6="13000.00000" pt_clust_7="13000.00000" pt_clust_8="13000.00000" pt_clust_9="127.54354"></scales>
<clustering>
<clus scale="   91.134">  5  6 -1 -1</clus>
<clus scale="   91.429">  7  8 -1 -1</clus>
<clus scale="  122.812">  2  5  1 -1</clus>
<clus scale="  127.544">  1  9  2 -1</clus>
<clus scale="  127.544">  1  5  2 -1</clus>
</clustering>
</event>
<event>
 9    1  0.1426358E-005  0.1129187E+03  0.7546771E-02  0.1255514E+00
         21   -1    0    0  501  502  0.00000000000E+00  0.00000000000E+00  0.11533911553E+03  0.11533911553E+03  0.00000000000E+00 0.  1.
         -1   -1    0    0    0  501 -0.00000000000E+00 -0.00000000000E+00 -0.24267005744E+03  0.24267005744E+03  0.00000000000E+00 0.  1.
         23    2    1    2    0    0 -0.40377700654E+02  0.62229663945E+02 -0.13763767967E+03  0.18081500202E+03  0.90813238599E+02 0.  0.
         23    2    1    2    0    0  0.45211833079E+02 -0.32105190439E+02 -0.43363622678E+02  0.11545795525E+03  0.91516569840E+02 0.  0.
        -11    1    4    4    0    0  0.55166480000E+02 -0.57476229204E+02 -0.30298992879E+02  0.85234303004E+02  0.00000000000E+00 0. -1.
         11    1    4    4    0    0 -0.99546469207E+01  0.25371038765E+02 -0.13064629798E+02  0.30223652246E+02  0.00000000000E+00 0.  1.
        -11    1    3    3    0    0 -0.54094244202E+02  0.13321839899E+02 -0.10922848434E+03  0.12261533536E+03  0.00000000000E+00 0.  1.
         11    1    3    3    0    0  0.13716543548E+02  0.48907824046E+02 -0.28409195330E+02  0.58199666658E+02  0.00000000000E+00 0. -1.
         -1    1    1    2    0  502 -0.48341324256E+01 -0.30124473506E+02  0.53670360434E+02  0.61736215703E+02  0.00000000000E+00 0.  1.
<scales pt_clust_5="13000.00000" pt_clust_6="13000.00000" pt_clust_7="13000.00000" pt_clust_8="13000.00000" pt_clust_9="30.50988"></scales>
<clustering>
<clus scale="   30.510">  1  9  2 -1</clus>
<clus scale="   90.813">  7  8 -1 -1</clus>
<clus scale="   91.517">  5  6 -1 -1</clus>
<clus scale="  112.349">  2  7  1 -1</clus>
<clus scale="   30.510">  1  5  2 -1</clus>
</clustering>
</event>
<event>
 9    1  0.1426358E-005  0.1068085E+03  0.7546771E-02  0.1268885E+00
         21   -1    0    0  501  502  0.00000000000E+00  0.00000000000E+00  0.37287991181E+03  0.37287991181E+03  0.00000000000E+00 0.  1.
         -1   -1    0    0    0  501 -0.00000000000E+00 -0.00000000000E+00 -0.51011396321E+02  0.51011396321E+02  0.00000000000E+00 0.  1.
         23    2    1    2    0    0 -0.36799226197E+02 -0.19129522462E+02  0.85213092018E+02  0.13588026469E+03  0.97375836846E+02 0.  0.
         23    2    1    2    0    0  0.49574001705E+02 -0.32713944518E+01  0.87136754074E+02  0.13628488069E+03  0.92263053960E+02 0.  0.
        -13    1    4    4    0    0  0.42600653155E+02 -0.34983415793E+02  0.14924606807E+02  0.57108658872E+02  0.00000000000E+00 0.  1.
         13    1    4    4    0    0  0.69733485496E+01  0.31712021342E+02  0.72212147267E+02  0.79176221813E+02  0.00000000000E+00 0. -1.
        -13    1    3    3    0    0  0.21091585798E+02  0.20506536397E+02  0.48427038743E+02  0.56661725246E+02  0.00000000000E+00 0. -1.
         13    1    3    3    0    0 -0.57890811995E+02 -0.39636058859E+02  0.36786053275E+02  0.79218539439E+02  0.00000000000E+00 0.  1.
         -1    1    1    2    0  502 -0.12774775508E+02  0.22400916914E+02  0.14951866940E+03  0.15172616276E+03  0.00000000000E+00 0.  1.
<scales pt_clust_5="13000.00000" pt_clust_6="13000.00000" pt_clust_7="13000.00000" pt_clust_8="13000.00000" pt_clust_9="25.78752"></scales>
<clustering>
<clus scale="   25.788">  1  9  2 -1</clus>
<clus scale="   92.263">  5  6 -1 -1</clus>
<clus scale="   97.376">  7  8 -1 -1</clus>
<clus scale="  102.169">  1  5  2 -1</clus>
<clus scale="   25.788">  1  5  2 -1</clus>
</clustering>
</event>
<event>
 9    1  0.1426358E-005  0.1134654E+03  0.7546771E-02  0.1262755E+00
          1   -1    0    0  502    0 -0.00000000000E+00  0.00000000000E+00  0.54608656390E+03  0.54608656390E+03  0.00000000000E+00 0. -1.
         21   -1    0    0  501  502  0.00000000000E+00 -0.00000000000E+00 -0.80658576127E+02  0.80658576127E+02  0.00000000000E+00 0. -1.
         23    2    1    2    0    0 -0.11927683566E+02 -0.70646715254E+01  0.34153147185E+03  0.35411013207E+03  0.92509784103E+02 0.  0.
         23    2    1    2    0    0  0.59396938191E+02  0.78812436432E+02  0.11212387128E+03  0.18580375168E+03  0.11050735372E+03 0.  0.
        -11    1    4    4    0    0  0.90299406695E+02  0.40594998640E+02  0.74088674990E+02  0.12365706015E+03  0.00000000000E+00 0. -1.
         11    1    4    4    0    0 -0.30902468504E+02  0.38217437792E+02  0.38035196287E+02  0.62146691526E+02  0.00000000000E+00 0.  1.
        -13    1    3    3    0    0  0.38471849458E+02 -0.15252821357E+02  0.18020415460E+03  0.18489529224E+03  0.00000000000E+00 0.  1.
         13    1    3    3    0    0 -0.50399533024E+02  0.81881498316E+01  0.16132731725E+03  0.16921483983E+03  0.00000000000E+00 0. -1.
          1    1    1    2  501    0 -0.47469254625E+02 -0.71747764907E+02  0.11772644645E+02  0.86831256272E+02  0.00000000000E+00 0. -1.
<scales pt_clust_5="13000.00000" pt_clust_6="13000.00000" pt_clust_7="13000.00000" pt_clust_8="13000.00000" pt_clust_9="86.02948"></scales>
<clustering>
<clus scale="   86.029">  2  9  1 -1</clus>
<clus scale="   92.510">  7  8 -1 -1</clus>
<clus scale="   96.024">  1  7  2 -1</clus>
<clus scale="  110.507">  5  6 -1 -1</clus>
<clus scale="   86.029">  2  5  1 -1</clus>
</clustering>
</event>
<event>
 9    1  0.1426358E-005  0.2161724E+03  0.7546771E-02  0.1136797E+00
         21   -1    0    0  501  502  0.00000000000E+00  0.00000000000E+00  0.64702295450E+02  0.64702295450E+02  0.00000000000E+00 0. -1.
          1   -1    0    0  502    0 -0.00000000000E+00 -0.00000000000E+00 -0.19082240041E+04  0.19082240041E+04  0.00000000000E+00 0. -1.
         23    2    1    2    0    0  0.13838469510E+03  0.12573277561E+03 -0.10441117248E+04  0.10647974261E+04  0.93087109868E+02 0.  0.
         23    2    1    2    0    0 -0.16878781548E+03 -0.12135996725E+03 -0.83245144655E+03  0.86301557785E+03  0.92751864964E+02 0.  0.
        -11    1    4    4    0    0 -0.95889740824E+02 -0.12102917672E+03 -0.58676204619E+03  0.60673932036E+03  0.00000000000E+00 0.  1.
         11    1    4    4    0    0 -0.72898074653E+02 -0.33079053025E+00 -0.24568940035E+03  0.25627625750E+03  0.00000000000E+00 0. -1.
        -13    1    3    3    0    0  0.79816698103E+02  0.13710691297E+02 -0.34777936899E+03  0.35708427275E+03  0.00000000000E+00 0.  1.
         13    1    3    3    0    0  0.58567996994E+02  0.11202208432E+03 -0.69633235586E+03  0.70771315338E+03  0.00000000000E+00 0. -1.
          1    1    1    2  501    0  0.30403120380E+02 -0.43728083592E+01  0.33041462712E+02  0.45113295601E+02  0.00000000000E+00 0. -1.
<scales pt_clust_5="13000.00000" pt_clust_6="13000.00000" pt_clust_7="13000.00000" pt_clust_8="13000.00000" pt_clust_9="30.71598"></scales>
<clustering>
<clus scale="   30.716">  1  9  2 -1</clus>
<clus scale="   92.752">  5  6 -1 -1</clus>
<clus scale="   93.087">  7  8 -1 -1</clus>
<clus scale="  216.028">  1  5  2 -1</clus>
<clus scale="   30.716">  1  5  2 -1</clus>
</clustering>
</event>
<event>
 9    1  0.1426358E-005  0.1297013E+03  0.7546771E-02  0.1228727E+00
         -2   -1    0    0    0  501 -0.00000000000E+00  0.00000000000E+00  0.17223071342E+03  0.17223071342E+03  0.00000000000E+00 0.  1.
         21   -1    0    0  501  502  0.00000000000E+00 -0.00000000000E+00 -0.34011796607E+03  0.34011796607E+03  0.00000000000E+00 0.  1.
         23    2    1    2    0    0 -0.40880458465E+02  0.74246918728E+02  0.71854264826E+02  0.14139364457E+03  0.87437466369E+02 0.  0.
         23    2    1    2    0    0  0.11461817544E+03 -0.64288761096E+02 -0.50209930048E+02  0.16734109031E+03  0.90618058267E+02 0.  0.
        -13    1    4    4    0    0  0.51598806138E+02 -0.20427103952E+02 -0.68750540512E+02  0.88353495637E+02  0.00000000000E+00 0. -1.
         13    1    4    4    0    0  0.63019369306E+02 -0.43861657145E+02  0.18540610464E+02  0.78987594669E+02  0.00000000000E+00 0.  1.
        -13    1    3    3    0    0 -0.62391425688E+02  0.64219328322E+02  0.32144333102E+02  0.95131857335E+02  0.00000000000E+00 0.  1.
         13    1    3    3    0    0  0.21510967223E+02  0.10027590407E+02  0.39709931724E+02  0.46261787231E+02  0.00000000000E+00 0. -1.
         -2    1    1    2    0  502 -0.73737716979E+02 -0.99581576324E+01 -0.18953158743E+03  0.20361394462E+03  0.00000000000E+00 0.  1.
<scales pt_clust_5="13000.00000" pt_clust_6="13000.00000" pt_clust_7="13000.00000" pt_clust_8="13000.00000" pt_clust_9="74.40710"></scales>
<clustering>
<clus scale="   74.407">  2  9  1 -1</clus>
<clus scale="   87.437">  7  8 -1 -1</clus>
<clus scale="   90.618">  5  6 -1 -1</clus>
<clus scale="  127.499">  1  7  2 -1</clus>
<clus scale="   74.407">  2  5  1 -1</clus>
</clustering>
</event>
<event>
 9    1  0.1426358E-005  0.1121736E+03  0.7546771E-02  0.1257087E+00
         21   -1    0    0  501  502  0.00000000000E+00  0.00000000000E+00  0.38021777411E+02  0.38021777411E+02  0.00000000000E+00 0. -1.
          2   -1    0    0  502    0 -0.00000000000E+00 -0.00000000000E+00 -0.72689750766E+03  0.72689750766E+03  0.00000000000E+00 0. -1.
         23    2    1    2    0    0  0.51914590520E+02 -0.12295690812E+02 -0.37175529094E+03  0.38590175155E+03  0.88723484971E+02 0.  0.
         23    2    1    2    0    0 -0.10592962450E+03  0.39407618331E+02 -0.19455605028E+03  0.24236209101E+03  0.90073751611E+02 0.  0.
        -11    1    3    3    0    0  0.73614117000E+02  0.32986444739E+01 -0.22577305365E+03  0.23749398104E+03  0.00000000000E+00 0. -1.
         11    1    3    3    0    0 -0.21699526480E+02 -0.15594335286E+02 -0.14598223730E+03  0.14840777051E+03  0.00000000000E+00 0.  1.
        -11    1    4    4    0    0  0.11466417752E+02  0.23127856554E+02 -0.39736358629E+02  0.47385173651E+02  0.00000000000E+00 0.  1.
         11    1    4    4    0    0 -0.11739604225E+03  0.16279761777E+02 -0.15481969165E+03  0.19497691736E+03  0.00000000000E+00 0. -1.
          2    1    1    2  501    0  0.54015033981E+02 -0.27111927520E+02 -0.12256438903E+03  0.13665544251E+03  0.00000000000E+00 0. -1.
<scales pt_clust_5="13000.00000" pt_clust_6="13000.00000" pt_clust_7="13000.00000" pt_clust_8="13000.00000" pt_clust_9="60.43741"></scales>
<clustering>
<clus scale="   60.437">  1  9  2 -1</clus>
<clus scale="   88.723">  5  6 -1 -1</clus>
<clus scale="   90.074">  7  8 -1 -1</clus>
<clus scale="  111.092">  2  5  1 -1</clus>
<clus scale="   60.437">  1  5  2 -1</clus>
</clustering>
</event>
<event>
 9    1  0.1426358E-005  0.1034923E+03  0.7546771E-02  0.1273922E+00
         21   -1    0    0  501  502  0.00000000000E+00  0.00000000000E+00  0.13377647146E+03  0.13377647146E+03  0.00000000000E+00 0.  1.
         -1   -1    0    0    0  501 -0.00000000000E+00 -0.00000000000E+00 -0.27979918234E+03  0.27979918234E+03  0.00000000000E+00 0.  1.
         23    2    1    2    0    0  0.23886873803E+02  0.50165691647E+02 -0.19688288898E+03  0.22351372109E+03  0.90046278032E+02 0.  0.
         23    2    1    2    0    0 -0.21681787159E+02 -0.19451287052E+02 -0.32114946166E+02  0.10155708367E+03  0.91836915306E+02 0.  0.
        -11    1    4    4    0    0  0.35044797960E+02  0.30773304129E+01 -0.14289345017E+02  0.37970952155E+02  0.00000000000E+00 0.  1.
         11    1    4    4    0    0 -0.56726585119E+02 -0.22528617465E+02 -0.17825601149E+02  0.63586131510E+02  0.00000000000E+00 0. -1.
        -13    1    3    3    0    0 -0.24378737170E+02 -0.11934456174E+02 -0.48909519587E+02  0.55936528105E+02  0.00000000000E+00 0. -1.
         13    1    3    3    0    0  0.48265610973E+02  0.62100147822E+02 -0.14797336939E+03  0.16757719299E+03  0.00000000000E+00 0.  1.
         -1    1    1    2    0  502 -0.22050866447E+01 -0.30714404595E+02  0.82975124262E+02  0.88504849036E+02  0.00000000000E+00 0.  1.
<scales pt_clust_5="13000.00000" pt_clust_6="13000.00000" pt_clust_7="13000.00000" pt_clust_8="13000.00000" pt_clust_9="30.79346"></scales>
<clustering>
<clus scale="   30.793">  1  9  2 -1</clus>
<clus scale="   90.046">  7  8 -1 -1</clus>
<clus scale="   91.837">  5  6 -1 -1</clus>
<clus scale="  101.907">  2  7  1 -1</clus>
<clus scale="   30.793">  1  5  2 -1</clus>
</clustering>
</event>
<event>
 9    1  0.1426358E-005  0.9402606E+02  0.7546771E-02  0.1293987E+00
         21   -1    0    0  501  502  0.00000000000E+00  0.00000000000E+00  0.14677546293E+03  0.14677546293E+03  0.00000000000E+00 0.  1.
          3   -1    0    0  502    0 -0.00000000000E+00 -0.00000000000E+00 -0.91507600003E+02  0.91507600003E+02  0.00000000000E+00 0. -1.
         23    2    1    2    0    0  0.87915062459E+01 -0.12142214420E+02 -0.12138895844E+02  0.92068751157E+02  0.90025430820E+02 0.  0.
         23    2    1    2    0    0 -0.94030206247E+01  0.37745044808E+02  0.35347499015E+02  0.10518170267E+03  0.91107846456E+02 0.  0.
        -13    1    3    3    0    0 -0.34195052223E+02  0.28005998701E+01  0.16733854741E+02  0.38172854892E+02  0.00000000000E+00 0.  1.
         13    1    3    3    0    0  0.42986558468E+02 -0.14942814290E+02 -0.28872750585E+02  0.53895896265E+02  0.00000000000E+00 0. -1.
        -13    1    4    4    0    0 -0.43851071730E+02  0.41327266044E+02  0.36643253664E+02  0.70523665883E+02  0.00000000000E+00 0.  1.
         13    1    4    4    0    0  0.34448051105E+02 -0.35822212365E+01 -0.12957546494E+01  0.34658036788E+02  0.00000000000E+00 0. -1.
          3    1    1    2  501    0  0.61151437876E+00 -0.25602830388E+02  0.32059259756E+02  0.41032609103E+02  0.00000000000E+00 0. -1.
<scales pt_clust_5="13000.00000" pt_clust_6="13000.00000" pt_clust_7="13000.00000" pt_clust_8="13000.00000" pt_clust_9="25.61013"></scales>
<clustering>
<clus scale="   25.610">  1  9  2 -1</clus>
<clus scale="   90.025">  5  6 -1 -1</clus>
<clus scale="   91.108">  7  8 -1 -1</clus>
<clus scale="   92.978">  2  5  1 -1</clus>
<clus scale="   25.610">  1  5  2 -1</clus>
</clustering>
</event>
<event>
 9    1  0.1426358E-005  0.1419783E+03  0.7546771E-02  0.1231133E+00
          4   -1    0    0  502    0 -0.00000000000E+00  0.00000000000E+00  0.28660452974E+03  0.28660452974E+03  0.00000000000E+00 0. -1.
         21   -1    0    0  501  502  0.00000000000E+00 -0.00000000000E+00 -0.15604620076E+03  0.15604620076E+03  0.00000000000E+00 0. -1.
         23    2    1    2    0    0 -0.32376827147E+01 -0.22420666507E+01  0.28438396696E+02  0.96763537738E+02  0.92406332990E+02 0.  0.
         23    2    1    2    0    0  0.15380819709E+02 -0.10701955745E+03  0.16685284781E+03  0.21831012339E+03  0.90164748429E+02 0.  0.
        -11    1    4    4    0    0  0.17020795512E+01 -0.29489361241E+02 -0.43653878137E+01  0.29859271793E+02  0.00000000000E+00 0.  1.
         11    1    4    4    0    0  0.13678740158E+02 -0.77530196210E+02  0.17121823563E+03  0.18845085160E+03  0.00000000000E+00 0. -1.
        -11    1    3    3    0    0 -0.44399507651E+02  0.12298274233E+02  0.26315948387E+02  0.53057449696E+02  0.00000000000E+00 0.  1.
         11    1    3    3    0    0  0.41161824936E+02 -0.14540340884E+02  0.21224483094E+01  0.43706088042E+02  0.00000000000E+00 0. -1.
          4    1    1    2  501    0 -0.12143136994E+02  0.10926162410E+03 -0.64732915532E+02  0.12757706938E+03  0.00000000000E+00 0. -1.
<scales pt_clust_5="13000.00000" pt_clust_6="13000.00000" pt_clust_7="13000.00000" pt_clust_8="13000.00000" pt_clust_9="109.67300"></scales>
<clustering>
<clus scale="   90.165">  5  6 -1 -1</clus>
<clus scale="   92.406">  7  8 -1 -1</clus>
<clus scale="   92.490">  1  7  2 -1</clus>
<clus scale="  109.673">  2  9  1 -1</clus>
<clus scale="  109.673">  2  5  1 -1</clus>
</clustering>
</event>
<event>
 9    1  0.1426358E-005  0.9450810E+02  0.7546771E-02  0.1292751E+00
         21   -1    0    0  501  502  0.00000000000E+00  0.00000000000E+00  0.35125684755E+02  0.35125684755E+02  0.00000000000E+00 0. -1.
          1   -1    0    0  502    0 -0.00000000000E+00 -0.00000000000E+00 -0.92966819273E+03  0.92966819273E+03  0.00000000000E+00 0. -1.
         23    2    1    2    0    0 -0.21450061993E+02  0.75747062437E+01 -0.50594906579E+03  0.51464085137E+03  0.91396211024E+02 0.  0.
         23    2    1    2    0    0  0.26487153367E+02  0.20059007969E+02 -0.40587116248E+03  0.41717554789E+03  0.90554426336E+02 0.  0.
        -13    1    4    4    0    0  0.55329809484E+02  0.30063182253E+01 -0.32415045809E+03  0.32885246729E+03  0.00000000000E+00 0. -1.
         13    1    4    4    0    0 -0.28842656117E+02  0.17052689744E+02 -0.81720704397E+02  0.88323080599E+02  0.00000000000E+00 0.  1.
        -13    1    3    3    0    0 -0.55643910666E+02 -0.81422477890E+01 -0.32339474345E+03  0.32824792625E+03  0.00000000000E+00 0.  1.
         13    1    3    3    0    0  0.34193848672E+02  0.15716954033E+02 -0.18255432234E+03  0.18639292512E+03  0.00000000000E+00 0. -1.
          1    1    1    2  501    0 -0.50370913740E+01 -0.27633714213E+02  0.17277720305E+02  0.32977478218E+02  0.00000000000E+00 0. -1.
<scales pt_clust_5="13000.00000" pt_clust_6="13000.00000" pt_clust_7="13000.00000" pt_clust_8="13000.00000" pt_clust_9="28.08905"></scales>
<clustering>
<clus scale="   28.089">  1  9  2 -1</clus>
<clus scale="   90.554">  5  6 -1 -1</clus>
<clus scale="   91.396">  7  8 -1 -1</clus>
<clus scale="   93.694">  1  5  2 -1</clus>
<clus scale="   28.089">  1  5  2 -1</clus>
</clustering>
</event>
<event>
 9    1  0.1426358E-005  0.9926626E+02  0.7546771E-02  0.1282451E+00
         21   -1    0    0  501  502  0.00000000000E+00  0.00000000000E+00  0.68049290560E+02  0.68049290560E+02  0.00000000000E+00 0. -1.
          2   -1    0    0  502    0 -0.00000000000E+00 -0.00000000000E+00 -0.41871697868E+03  0.41871697868E+03  0.00000000000E+00 0. -1.
         23    2    1    2    0    0 -0.24705236939E+02  0.56138158477E+02 -0.27214576070E+03  0.29352527098E+03  0.91279395641E+02 0.  0.
         23    2    1    2    0    0 -0.21761904211E+02 -0.11702259951E+01 -0.78238591904E+02  0.12126357759E+03  0.90047921034E+02 0.  0.
        -11    1    4    4    0    0 -0.32730692681E+02 -0.39538042027E+02 -0.33394006660E+02  0.61234913992E+02  0.00000000000E+00 0.  1.
         11    1    4    4    0    0  0.10968788470E+02  0.38367816032E+02 -0.44844585243E+02  0.60028663597E+02  0.00000000000E+00 0. -1.
        -13    1    3    3    0    0 -0.50877575880E+02  0.72807544643E+01 -0.96378579433E+02  0.10922622252E+03  0.00000000000E+00 0.  1.
         13    1    3    3    0    0  0.26172338941E+02  0.48857404013E+02 -0.17576718127E+03  0.18429904846E+03  0.00000000000E+00 0. -1.
          2    1    1    2  501    0  0.46467141151E+02 -0.54967932482E+02 -0.28333552106E+00  0.71977420675E+02  0.00000000000E+00 0. -1.
<scales pt_clust_5="13000.00000" pt_clust_6="13000.00000" pt_clust_7="13000.00000" pt_clust_8="13000.00000" pt_clust_9="71.97686"></scales>
<clustering>
<clus scale="   71.977">  1  9  2 -1</clus>
<clus scale="   90.048">  5  6 -1 -1</clus>
<clus scale="   91.279">  7  8 -1 -1</clus>
<clus scale="   98.135">  1  5  2 -1</clus>
<clus scale="   71.977">  1  5  2 -1</clus>
</clustering>
</event>
<event>
 9    1  0.1426358E-005  0.9664295E+02  0.7546771E-02  0.1289842E+00
         21   -1    0    0  501  502  0.00000000000E+00  0.00000000000E+00  0.13628116259E+03  0.13628116259E+03  0.00000000000E+00 0. -1.
          1   -1    0    0  502    0 -0.00000000000E+00 -0.00000000000E+00 -0.20821353644E+03  0.20821353644E+03  0.00000000000E+00 0. -1.
         23    2    1    2    0    0  0.14657029546E+02  0.15624255163E+02 -0.12958181246E+03  0.16169459554E+03  0.94311983564E+02 0.  0.
         23    2    1    2    0    0 -0.26480489657E+02  0.10207681502E+01 -0.25404366498E+02  0.97273583909E+02  0.90080574982E+02 0.  0.
        -11    1    3    3    0    0  0.38501399876E+02  0.16951643350E+02 -0.15018182189E+02  0.44668353461E+02  0.00000000000E+00 0.  1.
         11    1    3    3    0    0 -0.23844370329E+02 -0.13273881867E+01 -0.11456363027E+03  0.11702624208E+03  0.00000000000E+00 0. -1.
        -13    1    4    4    0    0  0.16292531255E+02 -0.29514586068E+02 -0.29175386519E+02  0.44584308271E+02  0.00000000000E+00 0.  1.
         13    1    4    4    0    0 -0.42773020912E+02  0.30535354218E+02  0.37710200214E+01  0.52689275637E+02  0.00000000000E+00 0. -1.
          1    1    1    2  501    0  0.11823460111E+02 -0.16645023313E+02  0.83053805104E+02  0.85526519585E+02  0.00000000000E+00 0. -1.
<scales pt_clust_5="13000.00000" pt_clust_6="13000.00000" pt_clust_7="13000.00000" pt_clust_8="13000.00000" pt_clust_9="20.41693"></scales>
<clustering>
<clus scale="   20.417">  1  9  2 -1</clus>
<clus scale="   90.081">  7  8 -1 -1</clus>
<clus scale="   92.518">  1  7  2 -1</clus>
<clus scale="   94.312">  5  6 -1 -1</clus>
<clus scale="   20.417">  1  5  2 -1</clus>
</clustering>
</event>
<event>
 9    1  0.1426358E-005  0.1035132E+03  0.7546771E-02  0.1274235E+00
         21   -1    0    0  501  502  0.00000000000E+00  0.00000000000E+00  0.13178281619E+03  0.13178281619E+03  0.00000000000E+00 0. -1.
          2   -1    0    0  502    0 -0.00000000000E+00 -0.00000000000E+00 -0.23131392161E+03  0.23131392161E+03  0.00000000000E+00 0. -1.
         23    2    1    2    0    0 -0.20743279949E+02  0.44511646989E+02 -0.17454399222E+03  0.20268858251E+03  0.90584137012E+02 0.  0.
         23    2    1    2    0    0  0.11362624693E+01 -0.62156334295E+02  0.79197005202E+02  0.13370090963E+03  0.87971964945E+02 0.  0.
        -13    1    4    4    0    0 -0.23280240064E+02 -0.57401375712E+02  0.13423089243E+02  0.63380334773E+02  0.00000000000E+00 0. -1.
         13    1    4    4    0    0  0.24416502534E+02 -0.47549585833E+01  0.65773915959E+02  0.70320574853E+02  0.00000000000E+00 0.  1.
        -13    1    3    3    0    0 -0.22274190275E+01 -0.26349147602E+02 -0.26071126063E+02  0.37134116242E+02  0.00000000000E+00 0.  1.
         13    1    3    3    0    0 -0.18515860922E+02  0.70860794591E+02 -0.14847286616E+03  0.16555446627E+03  0.00000000000E+00 0. -1.
          2    1    1    2  501    0  0.19607017480E+02  0.17644687306E+02 -0.41841184005E+01  0.26707245672E+02  0.00000000000E+00 0. -1.
<scales pt_clust_5="13000.00000" pt_clust_6="13000.00000" pt_clust_7="13000.00000" pt_clust_8="13000.00000" pt_clust_9="26.37745"></scales>
<clustering>
<clus scale="   26.377">  1  9  2 -1</clus>
<clus scale="   87.972">  5  6 -1 -1</clus>
<clus scale="   90.584">  7  8 -1 -1</clus>
<clus scale="  101.235">  1  5  2 -1</clus>
<clus scale="   26.377">  1  5  2 -1</clus>
</clustering>
</event>
<event>
 9    1  0.1426358E-005  0.2248216E+03  0.7546771E-02  0.1130413E+00
          2   -1    0    0  502    0 -0.00000000000E+00  0.00000000000E+00  0.12543043131E+04  0.12543043131E+04  0.00000000000E+00 0.  1.
         21   -1    0    0  501  502  0.00000000000E+00 -0.00000000000E+00 -0.78623898398E+02  0.78623898398E+02  0.00000000000E+00 0.  1.
         23    2    1    2    0    0 -0.13326533589E+03  0.17179111387E+03  0.98458086792E+03  0.10123577702E+04  0.90536914791E+02 0.  0.
         23    2    1    2    0    0  0.70275495867E+02 -0.15260524879E+03  0.14770435824E+03  0.24171005985E+03  0.91543259253E+02 0.  0.
        -11    1    3    3    0    0 -0.13978780325E+03  0.14165905843E+03  0.91266692041E+03  0.93411392581E+03  0.00000000000E+00 0.  1.
         11    1    3    3    0    0  0.65224673665E+01  0.30132055438E+02  0.71913947505E+02  0.78243844430E+02  0.00000000000E+00 0. -1.
        -13    1    4    4    0    0 -0.97716063924E+01 -0.85582649744E+02  0.55908791315E+02  0.10269209889E+03  0.00000000000E+00 0.  1.
         13    1    4    4    0    0  0.80047102260E+02 -0.67022599042E+02  0.91795566924E+02  0.13901796096E+03  0.00000000000E+00 0. -1.
          2    1    1    2  501    0  0.62989840018E+02 -0.19185865086E+02  0.43395188516E+02  0.78860381377E+02  0.00000000000E+00 0.  1.
<scales pt_clust_5="13000.00000" pt_clust_6="13000.00000" pt_clust_7="13000.00000" pt_clust_8="13000.00000" pt_clust_9="65.84692"></scales>
<clustering>
<clus scale="   65.847">  2  9  1 -1</clus>
<clus scale="   90.537">  5  6 -1 -1</clus>
<clus scale="   91.543">  7  8 -1 -1</clus>
<clus scale="  224.414">  1  5  2 -1</clus>
<clus scale="   65.847">  2  5  1 -1</clus>
</clustering>
</event>
<event>
 9    1  0.1426358E-005  0.9756492E+02  0.7546771E-02  0.1286807E+00
          1   -1    0    0  502    0 -0.00000000000E+00  0.00000000000E+00  0.26953279894E+03  0.26953279894E+03  0.00000000000E+00 0. -1.
         21   -1    0    0  501  502  0.00000000000E+00 -0.00000000000E+00 -0.70636026018E+02  0.70636026018E+02  0.00000000000E+00 0.  1.
         23    2    1    2    0    0  0.27225563978E+02  0.27905097660E+02  0.19149558443E+03  0.21594371738E+03  0.91876027397E+02 0.  0.
         23    2    1    2    0    0 -0.15917368943E+02 -0.53705365755E+01  0.24006081684E+02  0.94035635960E+02  0.89354370768E+02 0.  0.
        -13    1    4    4    0    0  0.25472414328E+02 -0.27927238055E+02  0.27537478335E+02  0.46766304431E+02  0.00000000000E+00 0. -1.
         13    1    4    4    0    0 -0.41389783271E+02  0.22556701480E+02 -0.35313966508E+01  0.47269331529E+02  0.00000000000E+00 0.  1.
        -13    1    3    3    0    0  0.23200682007E+02 -0.29297695895E+02  0.11091559120E+03  0.11704227869E+03  0.00000000000E+00 0. -1.
         13    1    3    3    0    0  0.40248819714E+01  0.57202793555E+02  0.80579993229E+02  0.98901438686E+02  0.00000000000E+00 0.  1.
          1    1    1    2  501    0 -0.11308195035E+02 -0.22534561084E+02 -0.16604893197E+02  0.30189471614E+02  0.00000000000E+00 0. -1.
<scales pt_clust_5="13000.00000" pt_clust_6="13000.00000" pt_clust_7="13000.00000" pt_clust_8="13000.00000" pt_clust_9="25.21273"></scales>
<clustering>
<clus scale="   25.213">  2  9  1 -1</clus>
<clus scale="   89.354">  5  6 -1 -1</clus>
<clus scale="   91.876">  7  8 -1 -1</clus>
<clus scale="   95.194">  2  5  1 -1</clus>
<clus scale="   25.213">  2  5  1 -1</clus>
</clustering>
</event>
<event>
 9    1  0.1426358E-005  0.1501278E+03  0.7546771E-02  0.1200441E+00
         -1   -1    0    0    0  501 -0.00000000000E+00  0.00000000000E+00  0.16147189322E+03  0.16147189322E+03  0.00000000000E+00 0.  1.
         21   -1    0    0  501  502  0.00000000000E+00 -0.00000000000E+00 -0.20001144534E+03  0.20001144534E+03  0.00000000000E+00 0. -1.
         23    2    1    2    0    0  0.10661572651E+03  0.42570288350E+02  0.48894569634E+02  0.15482089863E+03  0.91649817910E+02 0.  0.
         23    2    1    2    0    0 -0.10686753255E+03 -0.71175697189E+02 -0.68386112948E+02  0.17229443939E+03  0.92315025952E+02 0.  0.
        -13    1    3    3    0    0 -0.75551040684E+00  0.30777498152E+02  0.33858183610E+02  0.45762449517E+02  0.00000000000E+00 0.  1.
         13    1    3    3    0    0  0.10737123692E+03  0.11792790198E+02  0.15036386025E+02  0.10905844911E+03  0.00000000000E+00 0. -1.
        -13    1    4    4    0    0 -0.24418559331E+02 -0.59665359634E+02 -0.60941777534E+02  0.88713704854E+02  0.00000000000E+00 0. -1.
         13    1    4    4    0    0 -0.82448973221E+02 -0.11510337556E+02 -0.74443354145E+01  0.83580734536E+02  0.00000000000E+00 0.  1.
         -1    1    1    2    0  502  0.25180603951E+00  0.28605408839E+02 -0.19048008809E+02  0.34368000534E+02  0.00000000000E+00 0.  1.
<scales pt_clust_5="13000.00000" pt_clust_6="13000.00000" pt_clust_7="13000.00000" pt_clust_8="13000.00000" pt_clust_9="28.60652"></scales>
<clustering>
<clus scale="   28.607">  2  9  1 -1</clus>
<clus scale="   91.650">  5  6 -1 -1</clus>
<clus scale="   92.315">  7  8 -1 -1</clus>
<clus scale="  149.720">  1  5  2 -1</clus>
<clus scale="   28.607">  2  5  1 -1</clus>
</clustering>
</event>
<event>
 9    1  0.1426358E-005  0.1172848E+03  0.7546771E-02  0.1255677E+00
         -3   -1    0    0    0  501 -0.00000000000E+00  0.00000000000E+00  0.20994174398E+03  0.20994174398E+03  0.00000000000E+00 0.  1.
         21   -1    0    0  501  502  0.00000000000E+00 -0.00000000000E+00 -0.12555064670E+03  0.12555064670E+03  0.00000000000E+00 0. -1.
         23    2    1    2    0    0 -0.42503583559E+02  0.33466586124E+00  0.15250244113E+03  0.18261100948E+03  0.91011645507E+02 0.  0.
         23    2    1    2    0    0  0.32906174780E+02 -0.18650134236E+02 -0.59694468465E+02  0.13055627361E+03  0.10977644178E+03 0.  0.
        -11    1    4    4    0    0  0.98122690622E+01  0.45403044811E+02 -0.13850752603E+02  0.48472264749E+02  0.00000000000E+00 0.  1.
         11    1    4    4    0    0  0.23093905717E+02 -0.64053179047E+02 -0.45843715862E+02  0.82084008865E+02  0.00000000000E+00 0. -1.
        -11    1    3    3    0    0 -0.28457046517E+01  0.42453544257E+02  0.67431118930E+02  0.79733037413E+02  0.00000000000E+00 0.  1.
         11    1    3    3    0    0 -0.39657878908E+02 -0.42118878396E+02  0.85071322198E+02  0.10287797207E+03  0.00000000000E+00 0. -1.
         -3    1    1    2    0  502  0.95974087799E+01  0.18315468374E+02 -0.84168753888E+01  0.22325107578E+02  0.00000000000E+00 0.  1.
<scales pt_clust_5="13000.00000" pt_clust_6="13000.00000" pt_clust_7="13000.00000" pt_clust_8="13000.00000" pt_clust_9="20.67768"></scales>
<clustering>
<clus scale="   20.678">  2  9  1 -1</clus>
<clus scale="   91.012">  7  8 -1 -1</clus>
<clus scale="   99.940">  1  7  2 -1</clus>
<clus scale="  109.776">  5  6 -1 -1</clus>
<clus scale="   20.678">  2  5  1 -1</clus>
</clustering>
</event>
<event>
 9    1  0.1426358E-005  0.9677793E+02  0.7546771E-02  0.1289271E+00
         21   -1    0    0  501  502  0.00000000000E+00  0.00000000000E+00  0.22747376842E+03  0.22747376842E+03  0.00000000000E+00 0. -1.
         -1   -1    0    0    0  501 -0.00000000000E+00 -0.00000000000E+00 -0.13925912453E+03  0.13925912453E+03  0.00000000000E+00 0.  1.
         23    2    1    2    0    0  0.58514264267E+01  0.54062060174E+02 -0.55696959573E+02  0.11910648379E+03  0.90151304111E+02 0.  0.
         23    2    1    2    0    0  0.12259806809E+02 -0.11340741096E+02 -0.85740915879E+01  0.88236901766E+02  0.86216706705E+02 0.  0.
        -11    1    3    3    0    0 -0.37137950531E+02  0.14929574150E+02 -0.21722371850E+01  0.40085385969E+02  0.00000000000E+00 0. -1.
         11    1    3    3    0    0  0.42989376957E+02  0.39132486023E+02 -0.53524722388E+02  0.79021097818E+02  0.00000000000E+00 0.  1.
        -11    1    4    4    0    0  0.36475502515E+02 -0.13541720104E+02 -0.34994550925E+02  0.52330288186E+02  0.00000000000E+00 0.  1.
         11    1    4    4    0    0 -0.24215695707E+02  0.22009790090E+01  0.26420459338E+02  0.35906613580E+02  0.00000000000E+00 0. -1.
         -1    1    1    2    0  502 -0.18111233236E+02 -0.42721319078E+02  0.15248569505E+03  0.15938950740E+03  0.00000000000E+00 0.  1.
<scales pt_clust_5="13000.00000" pt_clust_6="13000.00000" pt_clust_7="13000.00000" pt_clust_8="13000.00000" pt_clust_9="46.40181"></scales>
<clustering>
<clus scale="   46.402">  1  9  2 -1</clus>
<clus scale="   86.217">  7  8 -1 -1</clus>
<clus scale="   90.151">  5  6 -1 -1</clus>
<clus scale="   93.124">  1  7  2 -1</clus>
<clus scale="   46.402">  1  5  2 -1</clus>
</clustering>
</event>
<event>
 9    1  0.1426358E-005  0.1835150E+03  0.7546771E-02  0.1176706E+00
         -1   -1    0    0    0  501 -0.00000000000E+00  0.00000000000E+00  0.58120205902E+02  0.58120205902E+02  0.00000000000E+00 0.  1.
         21   -1    0    0  501  502  0.00000000000E+00 -0.00000000000E+00 -0.12023433343E+04  0.12023433343E+04  0.00000000000E+00 0.  1.
         23    2    1    2    0    0 -0.50480506320E+02 -0.91793286981E+02 -0.42113862990E+03  0.44338108019E+03  0.90855641668E+02 0.  0.
         23    2    1    2    0    0  0.54285796106E+01 -0.12625180620E+03 -0.34270930997E+03  0.37633466046E+03  0.90604180239E+02 0.  0.
        -13    1    4    4    0    0  0.25727413133E+02 -0.12596871352E+03 -0.24658714297E+03  0.27809213518E+03  0.00000000000E+00 0.  1.
         13    1    4    4    0    0 -0.20298833522E+02 -0.28309268189E+00 -0.96122166999E+02  0.98242525275E+02  0.00000000000E+00 0. -1.
        -13    1    3    3    0    0 -0.39521178441E+02 -0.37150830265E+00 -0.70166681104E+02  0.80532134586E+02  0.00000000000E+00 0.  1.
         13    1    3    3    0    0 -0.10959327879E+02 -0.91421778678E+02 -0.35097194880E+03  0.36284894560E+03  0.00000000000E+00 0. -1.
         -1    1    1    2    0  502  0.45051926710E+02  0.21804509318E+03 -0.38037518851E+03  0.44074779954E+03  0.00000000000E+00 0.  1.
<scales pt_clust_5="13000.00000" pt_clust_6="13000.00000" pt_clust_7="13000.00000" pt_clust_8="13000.00000" pt_clust_9="159.58909"></scales>
<clustering>
<clus scale="   90.604">  5  6 -1 -1</clus>
<clus scale="   90.856">  7  8 -1 -1</clus>
<clus scale="  138.669">  1  7  2 -1</clus>
<clus scale="  159.589">  2  9  1 -1</clus>
<clus scale="  159.589">  2  5  1 -1</clus>
</clustering>
</event>
<event>
 9    1  0.1426358E-005  0.1048240E+03  0.7546771E-02  0.1272408E+00
         21   -1    0    0  501  502  0.00000000000E+00  0.00000000000E+00  0.11135775941E+03  0.11135775941E+03  0.00000000000E+00 0. -1.
          1   -1    0    0  502    0 -0.00000000000E+00 -0.00000000000E+00 -0.22283216716E+03  0.22283216716E+03  0.00000000000E+00 0. -1.
         23    2    1    2    0    0 -0.27649665680E+02  0.14043125476E+02 -0.96622674254E+02  0.13953336388E+03  0.95770063534E+02 0.  0.
         23    2    1    2    0    0  0.40285926387E+02 -0.45433073026E+02 -0.69785255970E+02  0.13013760591E+03  0.91535209251E+02 0.  0.
        -11    1    4    4    0    0  0.57719326438E+02 -0.62746123650E+02 -0.53162242105E+02  0.10047298474E+03  0.00000000000E+00 0. -1.
         11    1    4    4    0    0 -0.17433400051E+02  0.17313050624E+02 -0.16623013865E+02  0.29664621171E+02  0.00000000000E+00 0.  1.
        -13    1    3    3    0    0  0.32094983755E+02  0.70190181331E+01 -0.61892189199E+02  0.70071375623E+02  0.00000000000E+00 0. -1.
         13    1    3    3    0    0 -0.59744649434E+02  0.70241073425E+01 -0.34730485054E+02  0.69461988253E+02  0.00000000000E+00 0.  1.
          1    1    1    2  501    0 -0.12636260707E+02  0.31389947550E+02  0.54933522478E+02  0.64518956778E+02  0.00000000000E+00 0. -1.
<scales pt_clust_5="13000.00000" pt_clust_6="13000.00000" pt_clust_7="13000.00000" pt_clust_8="13000.00000" pt_clust_9="33.83791"></scales>
<clustering>
<clus scale="   33.838">  1  9  2 -1</clus>
<clus scale="   91.535">  5  6 -1 -1</clus>
<clus scale="   95.770">  7  8 -1 -1</clus>
<clus scale="  100.970">  1  5  2 -1</clus>
<clus scale="   33.838">  1  5  2 -1</clus>
</clustering>
</event>
<event>
 9    1  0.1426358E-005  0.1548008E+03  0.7546771E-02  0.1195771E+00
          1   -1    0    0  502    0 -0.00000000000E+00  0.00000000000E+00  0.64480556624E+03  0.64480556624E+03  0.00000000000E+00 0. -1.
         21   -1    0    0  501  502  0.00000000000E+00 -0.00000000000E+00 -0.10776057943E+03  0.10776057943E+03  0.00000000000E+00 0.  1.
         23    2    1    2    0    0  0.96131377749E+02 -0.74488583646E+02  0.43123626984E+03  0.45863136835E+03  0.97919460417E+02 0.  0.
         23    2    1    2    0    0 -0.66269777048E+02  0.10084094339E+03  0.16396372851E+03  0.22344954889E+03  0.92114154267E+02 0.  0.
        -11    1    4    4    0    0 -0.73728675542E+02  0.80623625996E+02  0.76506710866E+02  0.13337677262E+03  0.00000000000E+00 0.  1.
         11    1    4    4    0    0  0.74588984934E+01  0.20217317390E+02  0.87457017648E+02  0.90072776271E+02  0.00000000000E+00 0. -1.
        -13    1    3    3    0    0  0.14028531438E+02 -0.72512428907E+02  0.21427763990E+03  0.22664897750E+03  0.00000000000E+00 0. -1.
         13    1    3    3    0    0  0.82102846311E+02 -0.19761547391E+01  0.21695862994E+03  0.23198239085E+03  0.00000000000E+00 0.  1.
          1    1    1    2  501    0 -0.29861600700E+02 -0.26352359741E+02 -0.58155011541E+02  0.70485228436E+02  0.00000000000E+00 0. -1.
<scales pt_clust_5="13000.00000" pt_clust_6="13000.00000" pt_clust_7="13000.00000" pt_clust_8="13000.00000" pt_clust_9="39.82665"></scales>
<clustering>
<clus scale="   39.827">  2  9  1 -1</clus>
<clus scale="   92.114">  5  6 -1 -1</clus>
<clus scale="   97.919">  7  8 -1 -1</clus>
<clus scale="  151.196">  2  5  1 -1</clus>
<clus scale="   39.827">  2  5  1 -1</clus>
</clustering>
</event>
<event>
 9    1  0.1426358E-005  0.1035053E+03  0.7546771E-02  0.1273200E+00
         -1   -1    0    0    0  501 -0.00000000000E+00  0.00000000000E+00  0.13875682242E+03  0.13875682242E+03  0.00000000000E+00 0.  1.
         21   -1    0    0  501  502  0.00000000000E+00 -0.00000000000E+00 -0.14729188624E+03  0.14729188624E+03  0.00000000000E+00 0.  1.
         23    2    1    2    0    0  0.12684586395E+02  0.25494366802E+02  0.19450532036E+02  0.98934705738E+02  0.92730207227E+02 0.  0.
         23    2    1    2    0    0  0.34250073522E+01 -0.68554509318E+02  0.23671687787E+02  0.11796076846E+03  0.92967428002E+02 0.  0.
        -11    1    3    3    0    0 -0.15316993718E+01 -0.31548973775E+02  0.24436830775E+02  0.39935479808E+02  0.00000000000E+00 0.  1.
         11    1    3    3    0    0  0.14216285767E+02  0.57043340577E+02 -0.49862987390E+01  0.58999225929E+02  0.00000000000E+00 0. -1.
        -13    1    4    4    0    0  0.24602692441E+02  0.13515070787E+02  0.17278505503E+02  0.32962044326E+02  0.00000000000E+00 0. -1.
         13    1    4    4    0    0 -0.21177685088E+02 -0.82069580105E+02  0.63931822841E+01  0.84998724132E+02  0.00000000000E+00 0.  1.
         -1    1    1    2    0  502 -0.16109593747E+02  0.43060142516E+02 -0.51657283638E+02  0.69153234465E+02  0.00000000000E+00 0.  1.
<scales pt_clust_5="13000.00000" pt_clust_6="13000.00000" pt_clust_7="13000.00000" pt_clust_8="13000.00000" pt_clust_9="45.97494"></scales>
<clustering>
<clus scale="   45.975">  2  9  1 -1</clus>
<clus scale="   92.730">  5  6 -1 -1</clus>
<clus scale="   92.967">  7  8 -1 -1</clus>
<clus scale="  103.292">  1  5  2 -1</clus>
<clus scale="   45.975">  2  5  1 -1</clus>
</clustering>
</event>
<event>
 9    1  0.1426358E-005  0.1592385E+03  0.7546771E-02  0.1190194E+00
         -2   -1    0    0    0  501 -0.00000000000E+00  0.00000000000E+00  0.25479426524E+03  0.25479426524E+03  0.00000000000E+00 0.  1.
         21   -1    0    0  501  502  0.00000000000E+00 -0.00000000000E+00 -0.15098487352E+03  0.15098487352E+03  0.00000000000E+00 0.  1.
         23    2    1    2    0    0  0.10596267787E+03  0.84367338474E+02  0.52255624988E+02  0.17216911991E+03  0.92550627261E+02 0.  0.
         23    2    1    2    0    0 -0.68201738686E+02 -0.10501550834E+03 -0.15195726743E+02  0.15418879796E+03  0.88676609956E+02 0.  0.
        -13    1    4    4    0    0 -0.87316627548E+02 -0.74185720514E+02  0.71413531111E+00  0.11457846466E+03  0.00000000000E+00 0.  1.
         13    1    4    4    0    0  0.19114888861E+02 -0.30829787831E+02 -0.15909862054E+02  0.39610333304E+02  0.00000000000E+00 0. -1.
        -13    1    3    3    0    0  0.79710596117E+02  0.21052474905E+02 -0.53751253011E+01  0.82618870756E+02  0.00000000000E+00 0.  1.
         13    1    3    3    0    0  0.26252081749E+02  0.63314863569E+02  0.57630750289E+02  0.89550249155E+02  0.00000000000E+00 0. -1.
         -2    1    1    2    0  502 -0.37760939180E+02  0.20648169871E+02  0.66749493483E+02  0.79421220886E+02  0.00000000000E+00 0.  1.
<scales pt_clust_5="13000.00000" pt_clust_6="13000.00000" pt_clust_7="13000.00000" pt_clust_8="13000.00000" pt_clust_9="43.03763"></scales>
<clustering>
<clus scale="   43.038">  2  9  1 -1</clus>
<clus scale="   88.677">  5  6 -1 -1</clus>
<clus scale="   92.551">  7  8 -1 -1</clus>
<clus scale="  157.019">  2  5  1 -1</clus>
<clus scale="   43.038">  2  5  1 -1</clus>
</clustering>
</event>
<event>
 9    1  0.1426358E-005  0.9221033E+02  0.7546771E-02  0.1298649E+00
         21   -1    0    0  501  502  0.00000000000E+00  0.00000000000E+00  0.10542774569E+03  0.10542774569E+03  0.00000000000E+00 0.  1.
          2   -1    0    0  502    0 -0.00000000000E+00 -0.00000000000E+00 -0.25061876888E+03  0.25061876888E+03  0.00000000000E+00 0. -1.
         23    2    1    2    0    0  0.88947914893E+01 -0.11128427385E+01 -0.17257093272E+03  0.19570833761E+03  0.91873123698E+02 0.  0.
         23    2    1    2    0    0  0.11699402918E+02 -0.33155781038E+02 -0.19592639877E+02  0.98654469085E+02  0.90070255291E+02 0.  0.
        -11    1    4    4    0    0 -0.25690765834E+01 -0.58266369737E+02  0.78080356944E+01  0.58843312435E+02  0.00000000000E+00 0.  1.
         11    1    4    4    0    0  0.14268479501E+02  0.25110588699E+02 -0.27400675571E+02  0.39811156650E+02  0.00000000000E+00 0. -1.
        -11    1    3    3    0    0 -0.27367431065E+02  0.32445757495E+02 -0.89488300363E+02  0.99044734157E+02  0.00000000000E+00 0. -1.
         11    1    3    3    0    0  0.36262222554E+02 -0.33558600234E+02 -0.83082632355E+02  0.96663603457E+02  0.00000000000E+00 0.  1.
          2    1    1    2  501    0 -0.20594194407E+02  0.34268623777E+02  0.46972549400E+02  0.61683707865E+02  0.00000000000E+00 0. -1.
<scales pt_clust_5="13000.00000" pt_clust_6="13000.00000" pt_clust_7="13000.00000" pt_clust_8="13000.00000" pt_clust_9="39.98074"></scales>
<clustering>
<clus scale="   39.981">  1  9  2 -1</clus>
<clus scale="   90.070">  5  6 -1 -1</clus>
<clus scale="   90.414">  1  5  2 -1</clus>
<clus scale="   91.873">  7  8 -1 -1</clus>
<clus scale="   39.981">  1  5  2 -1</clus>
</clustering>
</event>
<event>
 9    1  0.1426358E-005  0.1098634E+03  0.7546771E-02  0.1261792E+00
          2   -1    0    0  502    0 -0.00000000000E+00  0.00000000000E+00  0.19330304121E+03  0.19330304121E+03  0.00000000000E+00 0. -1.
         21   -1    0    0  501  502  0.00000000000E+00 -0.00000000000E+00 -0.23181699310E+03  0.23181699310E+03  0.00000000000E+00 0. -1.
         23    2    1    2    0    0  0.23672689203E+02 -0.55124999417E+02  0.69663781856E+02  0.12803439101E+03  0.89110049962E+02 0.  0.
         23    2    1    2    0    0  0.11913613009E+01  0.64393363829E+02  0.59855741882E+02  0.12696988119E+03  0.91600852864E+02 0.  0.
        -13    1    4    4    0    0  0.22930257945E+02 -0.13937454954E+02  0.30295881553E+02  0.40470851475E+02  0.00000000000E+00 0. -1.
         13    1    4    4    0    0 -0.21738896644E+02  0.78330818783E+02  0.29559860329E+02  0.86499029712E+02  0.00000000000E+00 0.  1.
        -13    1    3    3    0    0  0.10723795224E+02 -0.36240357872E+02  0.89871571131E+02  0.97494936383E+02  0.00000000000E+00 0. -1.
         13    1    3    3    0    0  0.12948893979E+02 -0.18884641544E+02 -0.20207789276E+02  0.30539454627E+02  0.00000000000E+00 0.  1.
          2    1    1    2  501    0 -0.24864050504E+02 -0.92683644123E+01 -0.16803347563E+03  0.17011576211E+03  0.00000000000E+00 0. -1.
<scales pt_clust_5="13000.00000" pt_clust_6="13000.00000" pt_clust_7="13000.00000" pt_clust_8="13000.00000" pt_clust_9="26.53533"></scales>
<clustering>
<clus scale="   26.535">  2  9  1 -1</clus>
<clus scale="   89.110">  7  8 -1 -1</clus>
<clus scale="   91.601">  5  6 -1 -1</clus>
<clus scale="  107.795">  1  7  2 -1</clus>
<clus scale="   26.535">  2  5  1 -1</clus>
</clustering>
</event>
<event>
 9    1  0.1426358E-005  0.2067421E+03  0.7546771E-02  0.1158453E+00
          2   -1    0    0  502    0 -0.00000000000E+00  0.00000000000E+00  0.32909265968E+03  0.32909265968E+03  0.00000000000E+00 0. -1.
         21   -1    0    0  501  502  0.00000000000E+00 -0.00000000000E+00 -0.28870725870E+03  0.28870725870E+03  0.00000000000E+00 0. -1.
         23    2    1    2    0    0  0.71187586615E+02  0.91635326640E+02  0.11321396963E+03  0.18594471132E+03  0.91067706526E+02 0.  0.
         23    2    1    2    0    0 -0.16969472329E+03  0.77640575134E+02  0.30507001946E+02  0.21041395741E+03  0.92298419731E+02 0.  0.
        -11    1    3    3    0    0  0.59446782971E+02  0.98896753565E+01  0.25399489940E+02  0.65397704650E+02  0.00000000000E+00 0.  1.
         11    1    3    3    0    0  0.11740803644E+02  0.81745651283E+02  0.87814479687E+02  0.12054700667E+03  0.00000000000E+00 0. -1.
        -11    1    4    4    0    0 -0.12940085769E+03  0.75713099719E+02  0.58905595641E+02  0.16108049118E+03  0.00000000000E+00 0. -1.
         11    1    4    4    0    0 -0.40293865599E+02  0.19274754147E+01 -0.28398593696E+02  0.49333466230E+02  0.00000000000E+00 0.  1.
          2    1    1    2  501    0  0.98507136674E+02 -0.16927590177E+03 -0.10333557060E+03  0.22144124965E+03  0.00000000000E+00 0. -1.
<scales pt_clust_5="13000.00000" pt_clust_6="13000.00000" pt_clust_7="13000.00000" pt_clust_8="13000.00000" pt_clust_9="184.99537"></scales>
<clustering>
<clus scale="   91.068">  5  6 -1 -1</clus>
<clus scale="   92.298">  7  8 -1 -1</clus>
<clus scale="  147.506">  1  5  2 -1</clus>
<clus scale="  184.995">  2  9  1 -1</clus>
<clus scale="  184.995">  2  5  1 -1</clus>
</clustering>
</event>
<event>
 9    1  0.1426358E-005  0.1002257E+03  0.7546771E-02  0.1281905E+00
          1   -1    0    0  502    0 -0.00000000000E+00  0.00000000000E+00  0.25677484890E+03  0.25677484890E+03  0.00000000000E+00 0. -1.
         21   -1    0    0  501  502  0.00000000000E+00 -0.00000000000E+00 -0.78547231200E+02  0.78547231200E+02  0.00000000000E+00 0. -1.
         23    2    1    2    0    0  0.19145298855E+01 -0.35502858158E+02  0.15660161475E+03  0.18496816117E+03  0.91787997816E+02 0.  0.
         23    2    1    2    0    0 -0.21402625787E+02  0.18556623450E+01 -0.11969982474E+02  0.98967053829E+02  0.95862825901E+02 0.  0.
        -13    1    4    4    0    0 -0.58128664971E+02  0.10741120604E+02 -0.15223763598E+02  0.61041595173E+02  0.00000000000E+00 0. -1.
         13    1    4    4    0    0  0.36726039184E+02 -0.88854582591E+01  0.32537811243E+01  0.37925458655E+02  0.00000000000E+00 0.  1.
        -13    1    3    3    0    0  0.20642787323E+02  0.24695588141E+02  0.76771319954E+02  0.83245614357E+02  0.00000000000E+00 0.  1.
         13    1    3    3    0    0 -0.18728257437E+02 -0.60198446299E+02  0.79830294795E+02  0.10172254682E+03  0.00000000000E+00 0. -1.
          1    1    1    2  501    0  0.19488095902E+02  0.33647195813E+02  0.33595985422E+02  0.51386865096E+02  0.00000000000E+00 0. -1.
<scales pt_clust_5="13000.00000" pt_clust_6="13000.00000" pt_clust_7="13000.00000" pt_clust_8="13000.00000" pt_clust_9="38.88343"></scales>
<clustering>
<clus scale="   38.883">  2  9  1 -1</clus>
<clus scale="   91.788">  7  8 -1 -1</clus>
<clus scale="   95.863">  5  6 -1 -1</clus>
<clus scale="   96.336">  1  7  2 -1</clus>
<clus scale="   38.883">  2  5  1 -1</clus>
</clustering>
</event>
<event>
 9    1  0.1426358E-005  0.1045136E+03  0.7546771E-02  0.1273766E+00
         21   -1    0    0  501  502  0.00000000000E+00  0.00000000000E+00  0.60964146926E+02  0.60964146926E+02  0.00000000000E+00 0.  1.
          2   -1    0    0  502    0 -0.00000000000E+00 -0.00000000000E+00 -0.63697533912E+03  0.63697533912E+03  0.00000000000E+00 0. -1.
         23    2    1    2    0    0  0.10340649373E+02  0.52197934354E+02 -0.47930505910E+03  0.48944961689E+03  0.83642300343E+02 0.  0.
         23    2    1    2    0    0 -0.30084690864E+02 -0.48470968410E+02 -0.13098085575E+03  0.16875985452E+03  0.89829730732E+02 0.  0.
        -11    1    4    4    0    0 -0.26402612032E+02 -0.74927754390E+02 -0.92758123746E+02  0.12212835797E+03  0.00000000000E+00 0.  1.
         11    1    4    4    0    0 -0.36820788321E+01  0.26456785980E+02 -0.38222732000E+02  0.46631496550E+02  0.00000000000E+00 0. -1.
        -13    1    3    3    0    0 -0.17146884019E+02 -0.15717572540E+02 -0.73807074206E+02  0.77385669998E+02  0.00000000000E+00 0.  1.
         13    1    3    3    0    0  0.27487533393E+02  0.67915506894E+02 -0.40549798490E+03  0.41206394689E+03  0.00000000000E+00 0. -1.
          2    1    1    2  501    0  0.19744041491E+02 -0.37269659440E+01  0.34274722660E+02  0.39730014636E+02  0.00000000000E+00 0. -1.
<scales pt_clust_5="13000.00000" pt_clust_6="13000.00000" pt_clust_7="13000.00000" pt_clust_8="13000.00000" pt_clust_9="20.09272"></scales>
<clustering>
<clus scale="   20.093">  1  9  2 -1</clus>
<clus scale="   83.642">  7  8 -1 -1</clus>
<clus scale="   89.830">  5  6 -1 -1</clus>
<clus scale="   99.246">  2  7  1 -1</clus>
<clus scale="   20.093">  1  5  2 -1</clus>
</clustering>
</event>
<event>
 9    1  0.1426358E-005  0.9229684E+02  0.7546771E-02  0.1297650E+00
          2   -1    0    0  502    0 -0.00000000000E+00  0.00000000000E+00  0.49525691292E+03  0.49525691292E+03  0.00000000000E+00 0. -1.
         21   -1    0    0  501  502  0.00000000000E+00 -0.00000000000E+00 -0.30721498921E+02  0.30721498921E+02  0.00000000000E+00 0.  1.
         23    2    1    2    0    0  0.17493050819E+02 -0.27824643011E+00  0.31299505766E+03  0.32643621950E+03  0.91041831253E+02 0.  0.
         23    2    1    2    0    0  0.41588887095E+01 -0.19057657775E+02  0.13982607365E+03  0.16823870857E+03  0.91501046528E+02 0.  0.
        -11    1    4    4    0    0  0.27442088340E+02 -0.35038537270E+02  0.27274337917E+02  0.52198245328E+02  0.00000000000E+00 0.  1.
         11    1    4    4    0    0 -0.23283199630E+02  0.15980879495E+02  0.11255173573E+03  0.11604046325E+03  0.00000000000E+00 0. -1.
        -13    1    3    3    0    0 -0.11201296467E+02 -0.36399903142E+02  0.76175197022E+02  0.85165031747E+02  0.00000000000E+00 0.  1.
         13    1    3    3    0    0  0.28694347286E+02  0.36121656712E+02  0.23681986063E+03  0.24127118775E+03  0.00000000000E+00 0. -1.
          2    1    1    2  501    0 -0.21651939529E+02  0.19335904205E+02  0.11714282698E+02  0.31303483766E+02  0.00000000000E+00 0. -1.
<scales pt_clust_5="13000.00000" pt_clust_6="13000.00000" pt_clust_7="13000.00000" pt_clust_8="13000.00000" pt_clust_9="29.02901"></scales>
<clustering>
<clus scale="   29.029">  2  9  1 -1</clus>
<clus scale="   91.042">  7  8 -1 -1</clus>
<clus scale="   91.501">  5  6 -1 -1</clus>
<clus scale="   91.842">  1  7  2 -1</clus>
<clus scale="   29.029">  2  5  1 -1</clus>
</clustering>
</event>
<event>
 9    1  0.1426358E-005  0.1082669E+03  0.7546771E-02  0.1266905E+00
         21   -1    0    0  501  502  0.00000000000E+00  0.00000000000E+00  0.75947961439E+02  0.75947961439E+02  0.00000000000E+00 0.  1.
          3   -1    0    0  502    0 -0.00000000000E+00 -0.00000000000E+00 -0.20707010056E+03  0.20707010056E+03  0.00000000000E+00 0. -1.
         23    2    1    2    0    0  0.40488652538E+02 -0.12443611687E+02 -0.51270212717E+02  0.11290596465E+03  0.91241151268E+02 0.  0.
         23    2    1    2    0    0 -0.65391479563E+02  0.39584938024E+02 -0.62459050610E+02  0.12937741290E+03  0.83632344506E+02 0.  0.
        -13    1    3    3    0    0 -0.14724301720E+02  0.23960088252E+02  0.16995077522E+01  0.28174087683E+02  0.00000000000E+00 0. -1.
         13    1    3    3    0    0  0.55212954258E+02 -0.36403699939E+02 -0.52969720469E+02  0.84731876964E+02  0.00000000000E+00 0.  1.
        -13    1    4    4    0    0 -0.24225604781E+02  0.22211223551E+02 -0.75905914349E+02  0.82715936867E+02  0.00000000000E+00 0. -1.
         13    1    4    4    0    0 -0.41165874781E+02  0.17373714473E+02  0.13446863739E+02  0.46661476032E+02  0.00000000000E+00 0.  1.
          3    1    1    2  501    0  0.24902827024E+02 -0.27141326337E+02 -0.17392875795E+02  0.40734684454E+02  0.00000000000E+00 0. -1.
<scales pt_clust_5="13000.00000" pt_clust_6="13000.00000" pt_clust_7="13000.00000" pt_clust_8="13000.00000" pt_clust_9="36.83480"></scales>
<clustering>
<clus scale="   36.835">  1  9  2 -1</clus>
<clus scale="   83.632">  7  8 -1 -1</clus>
<clus scale="   91.241">  5  6 -1 -1</clus>
<clus scale="  101.937">  1  7  2 -1</clus>
<clus scale="   36.835">  1  5  2 -1</clus>
</clustering>
</event>
<event>
 9    1  0.1426358E-005  0.9548595E+02  0.7546771E-02  0.1301635E+00
          3   -1    0    0  502    0 -0.00000000000E+00  0.00000000000E+00  0.17984938879E+03  0.17984938879E+03  0.00000000000E+00 0. -1.
         21   -1    0    0  501  502  0.00000000000E+00 -0.00000000000E+00 -0.93028100692E+02  0.93028100692E+02  0.00000000000E+00 0.  1.
         23    2    1    2    0    0 -0.29508738535E+01  0.26834149358E+02  0.11397907509E+03  0.13756182928E+03  0.72133543423E+02 0.  0.
         23    2    1    2    0    0 -0.29363320310E+02 -0.27984623407E+02 -0.18352804579E+02  0.10180359595E+03  0.91552187220E+02 0.  0.
        -11    1    4    4    0    0  0.21909456895E+02  0.10473635296E+02  0.16003250628E+02  0.29083077011E+02  0.00000000000E+00 0. -1.
         11    1    4    4    0    0 -0.51272777205E+02 -0.38458258703E+02 -0.34356055207E+02  0.72720518935E+02  0.00000000000E+00 0.  1.
        -11    1    3    3    0    0  0.29243029458E+02 -0.22243564562E+01  0.69522799540E+02  0.75455431808E+02  0.00000000000E+00 0.  1.
         11    1    3    3    0    0 -0.32193903311E+02  0.29058505814E+02  0.44456275555E+02  0.62106397471E+02  0.00000000000E+00 0. -1.
          3    1    1    2  501    0  0.32314194164E+02  0.11504740495E+01 -0.88049824232E+01  0.33512064252E+02  0.00000000000E+00 0. -1.
<scales pt_clust_5="13000.00000" pt_clust_6="13000.00000" pt_clust_7="13000.00000" pt_clust_8="13000.00000" pt_clust_9="32.33467"></scales>
<clustering>
<clus scale="   32.335">  2  9  1 -1</clus>
<clus scale="   72.134">  7  8 -1 -1</clus>
<clus scale="   77.065">  1  7  2 -1</clus>
<clus scale="   91.552">  5  6 -1 -1</clus>
<clus scale="   32.335">  2  5  1 -1</clus>
</clustering>
</event>
<event>
 9    1  0.1426358E-005  0.1107485E+03  0.7546771E-02  0.1264068E+00
          1   -1    0    0  502    0 -0.00000000000E+00  0.00000000000E+00  0.35166523177E+03  0.35166523177E+03  0.00000000000E+00 0. -1.
         21   -1    0    0  501  502  0.00000000000E+00 -0.00000000000E+00 -0.11708061488E+03  0.11708061488E+03  0.00000000000E+00 0. -1.
         23    2    1    2    0    0 -0.38062392755E+02 -0.49811428512E+02  0.28647856901E+03  0.30467954905E+03  0.82642198387E+02 0.  0.
         23    2    1    2    0    0  0.12578713610E+02  0.27704630137E+02  0.31561940725E+01  0.99501237129E+02  0.94682437981E+02 0.  0.
        -11    1    4    4    0    0  0.40263302752E+02  0.28289953558E+02  0.32642720047E+02  0.59050844133E+02  0.00000000000E+00 0.  1.
         11    1    4    4    0    0 -0.27684589142E+02 -0.58532342067E+00 -0.29486525974E+02  0.40450392995E+02  0.00000000000E+00 0. -1.
        -13    1    3    3    0    0 -0.42704981818E+02 -0.49326160369E+01  0.60361314796E+02  0.74104888482E+02  0.00000000000E+00 0. -1.
         13    1    3    3    0    0  0.46425890629E+01 -0.44878812475E+02  0.22611725422E+03  0.23057466057E+03  0.00000000000E+00 0.  1.
          1    1    1    2  501    0  0.25483679144E+02  0.22106798374E+02 -0.55050146199E+02  0.64565060471E+02  0.00000000000E+00 0. -1.
<scales pt_clust_5="13000.00000" pt_clust_6="13000.00000" pt_clust_7="13000.00000" pt_clust_8="13000.00000" pt_clust_9="33.73616"></scales>
<clustering>
<clus scale="   33.736">  2  9  1 -1</clus>
<clus scale="   82.642">  7  8 -1 -1</clus>
<clus scale="   94.682">  5  6 -1 -1</clus>
<clus scale="  100.649">  1  7  2 -1</clus>
<clus scale="   33.736">  2  5  1 -1</clus>
</clustering>
</event>
<event>
 9    1  0.1426358E-005  0.1020214E+03  0.7546771E-02  0.1276301E+00
         21   -1    0    0  501  502  0.00000000000E+00  0.00000000000E+00  0.23343299220E+03  0.23343299220E+03  0.00000000000E+00 0.  1.
          1   -1    0    0  502    0 -0.00000000000E+00 -0.00000000000E+00 -0.71751665536E+02  0.71751665536E+02  0.00000000000E+00 0. -1.
         23    2    1    2    0    0  0.12912768098E+02  0.37472028838E+02  0.35652834852E+02  0.10555466896E+03  0.91103078876E+02 0.  0.
         23    2    1    2    0    0 -0.39167827500E+02 -0.37334187161E+02  0.46824057108E+02  0.11618725619E+03  0.91537019483E+02 0.  0.
        -11    1    4    4    0    0  0.18977260001E+02 -0.42072026694E+02  0.31472744740E+02  0.55863453964E+02  0.00000000000E+00 0.  1.
         11    1    4    4    0    0 -0.58145087502E+02  0.47378395337E+01  0.15351312368E+02  0.60323802230E+02  0.00000000000E+00 0. -1.
        -13    1    3    3    0    0  0.28675798802E+02  0.53736952569E+02  0.49948454227E+02  0.78770613734E+02  0.00000000000E+00 0.  1.
         13    1    3    3    0    0 -0.15763030704E+02 -0.16264923731E+02 -0.14295619375E+02  0.26784055224E+02  0.00000000000E+00 0. -1.
          1    1    1    2  501    0  0.26255059402E+02 -0.13784167766E+00  0.79204434704E+02  0.83442732585E+02  0.00000000000E+00 0. -1.
<scales pt_clust_5="13000.00000" pt_clust_6="13000.00000" pt_clust_7="13000.00000" pt_clust_8="13000.00000" pt_clust_9="26.25542"></scales>
<clustering>
<clus scale="   26.255">  1  9  2 -1</clus>
<clus scale="   91.103">  7  8 -1 -1</clus>
<clus scale="   91.537">  5  6 -1 -1</clus>
<clus scale="  101.632">  2  7  1 -1</clus>
<clus scale="   26.255">  1  5  2 -1</clus>
</clustering>
</event>
<event>
 9    1  0.1426358E-005  0.9724546E+02  0.7546771E-02  0.1286608E+00
          1   -1    0    0  502    0 -0.00000000000E+00  0.00000000000E+00  0.66242473150E+03  0.66242473150E+03  0.00000000000E+00 0. -1.
         21   -1    0    0  501  502  0.00000000000E+00 -0.00000000000E+00 -0.46011392759E+02  0.46011392759E+02  0.00000000000E+00 0. -1.
         23    2    1    2    0    0  0.42850008902E+02 -0.48834479863E+01  0.44558424337E+03  0.45687885106E+03  0.91285241283E+02 0.  0.
         23    2    1    2    0    0 -0.15808663838E+02  0.26451807384E+01  0.19477725563E+03  0.21536668653E+03  0.90486018389E+02 0.  0.
        -11    1    4    4    0    0 -0.26855231309E+02 -0.38537617291E+02  0.78033016144E+02  0.91079651973E+02  0.00000000000E+00 0. -1.
         11    1    4    4    0    0  0.11046567471E+02  0.41182798029E+02  0.11674423949E+03  0.12428703456E+03  0.00000000000E+00 0.  1.
        -13    1    3    3    0    0 -0.25909382482E+02 -0.16930544351E+02  0.12386048728E+03  0.12766894587E+03  0.00000000000E+00 0.  1.
         13    1    3    3    0    0  0.68759391384E+02  0.12047096365E+02  0.32172375609E+03  0.32920990518E+03  0.00000000000E+00 0. -1.
          1    1    1    2  501    0 -0.27041345064E+02  0.22382672479E+01 -0.23948160264E+02  0.36190586665E+02  0.00000000000E+00 0. -1.
<scales pt_clust_5="13000.00000" pt_clust_6="13000.00000" pt_clust_7="13000.00000" pt_clust_8="13000.00000" pt_clust_9="27.13382"></scales>
<clustering>
<clus scale="   27.134">  2  9  1 -1</clus>
<clus scale="   90.486">  5  6 -1 -1</clus>
<clus scale="   91.285">  7  8 -1 -1</clus>
<clus scale="   96.496">  2  5  1 -1</clus>
<clus scale="   27.134">  2  5  1 -1</clus>
</clustering>
</event>
<event>
 9    1  0.1426358E-005  0.9759551E+02  0.7546771E-02  0.1288137E+00
         21   -1    0    0  501  502  0.00000000000E+00  0.00000000000E+00  0.33837585083E+02  0.33837585083E+02  0.00000000000E+00 0.  1.
         -4   -1    0    0    0  501 -0.00000000000E+00 -0.00000000000E+00 -0.52009977504E+03  0.52009977504E+03  0.00000000000E+00 0.  1.
         23    2    1    2    0    0  0.83756488743E+01  0.55252187879E+02 -0.26986120519E+03  0.29081452938E+03  0.92871226307E+02 0.  0.
         23    2    1    2    0    0  0.25082279140E+01 -0.51814520513E+01 -0.17977063258E+03  0.20013616500E+03  0.87771667119E+02 0.  0.
        -11    1    4    4    0    0 -0.28785539124E+02 -0.25966547682E+02 -0.41233275847E+02  0.56595511291E+02  0.00000000000E+00 0. -1.
         11    1    4    4    0    0  0.31293767038E+02  0.20785095631E+02 -0.13853735673E+03  0.14354065371E+03  0.00000000000E+00 0.  1.
        -13    1    3    3    0    0 -0.20694542967E+02  0.60743039893E+02 -0.24132206832E+03  0.24970847335E+03  0.00000000000E+00 0.  1.
         13    1    3    3    0    0  0.29070191841E+02 -0.54908520143E+01 -0.28539136866E+02  0.41106056033E+02  0.00000000000E+00 0. -1.
         -4    1    1    2    0  502 -0.10883876788E+02 -0.50070735827E+02 -0.36630352195E+02  0.62986665749E+02  0.00000000000E+00 0.  1.
<scales pt_clust_5="13000.00000" pt_clust_6="13000.00000" pt_clust_7="13000.00000" pt_clust_8="13000.00000" pt_clust_9="51.24000"></scales>
<clustering>
<clus scale="   51.240">  1  9  2 -1</clus>
<clus scale="   87.772">  5  6 -1 -1</clus>
<clus scale="   92.756">  1  5  2 -1</clus>
<clus scale="   92.871">  7  8 -1 -1</clus>
<clus scale="   51.240">  1  5  2 -1</clus>
</clustering>
</event>
<event>
 9    1  0.1426358E-005  0.1284527E+03  0.7546771E-02  0.1230802E+00
         21   -1    0    0  501  502  0.00000000000E+00  0.00000000000E+00  0.79487767630E+02  0.79487767630E+02  0.00000000000E+00 0. -1.
          2   -1    0    0  502    0 -0.00000000000E+00 -0.00000000000E+00 -0.42828665359E+03  0.42828665359E+03  0.00000000000E+00 0. -1.
         23    2    1    2    0    0  0.31214001519E+02 -0.74016137239E+02 -0.29164677628E+03  0.31651960408E+03  0.93134930026E+02 0.  0.
         23    2    1    2    0    0 -0.48578011067E+02  0.85328782955E+02 -0.80820128843E+02  0.15979595651E+03  0.96757584358E+02 0.  0.
        -11    1    3    3    0    0  0.34394518355E+02  0.57410173059E+01 -0.42925935939E+02  0.55304413466E+02  0.00000000000E+00 0.  1.
         11    1    3    3    0    0 -0.31805168361E+01 -0.79757154544E+02 -0.24872084034E+03  0.26121519062E+03  0.00000000000E+00 0. -1.
        -11    1    4    4    0    0  0.24651504485E+02  0.33595871966E+02 -0.42430075277E+01  0.41885348267E+02  0.00000000000E+00 0.  1.
         11    1    4    4    0    0 -0.73229515551E+02  0.51732910989E+02 -0.76577121315E+02  0.11791060824E+03  0.00000000000E+00 0. -1.
          2    1    1    2  501    0  0.17364009548E+02 -0.11312645717E+02  0.23668019165E+02  0.31458860626E+02  0.00000000000E+00 0. -1.
<scales pt_clust_5="13000.00000" pt_clust_6="13000.00000" pt_clust_7="13000.00000" pt_clust_8="13000.00000" pt_clust_9="20.72401"></scales>
<clustering>
<clus scale="   20.724">  1  9  2 -1</clus>
<clus scale="   93.135">  5  6 -1 -1</clus>
<clus scale="   96.758">  7  8 -1 -1</clus>
<clus scale="  125.746">  2  5  1 -1</clus>
<clus scale="   20.724">  1  5  2 -1</clus>
</clustering>
</event>
<event>
 9    1  0.1426358E-005  0.1645203E+03  0.7546771E-02  0.1187286E+00
          1   -1    0    0  502    0 -0.00000000000E+00  0.00000000000E+00  0.28869557047E+03  0.28869557047E+03  0.00000000000E+00 0. -1.
         21   -1    0    0  501  502  0.00000000000E+00 -0.00000000000E+00 -0.37639816105E+03  0.37639816105E+03  0.00000000000E+00 0. -1.
         23    2    1    2    0    0  0.58089031186E+02  0.11184517093E+03  0.15958365081E+03  0.22215733296E+03  0.89460947777E+02 0.  0.
         23    2    1    2    0    0 -0.92881724588E+02 -0.78573319048E+02  0.25687973172E+02  0.16574969352E+03  0.10960067384E+03 0.  0.
        -11    1    4    4    0    0 -0.61576655075E+02 -0.96404723884E+02 -0.10265216807E+02  0.11485177366E+03  0.00000000000E+00 0.  1.
         11    1    4    4    0    0 -0.31305069513E+02  0.17831404837E+02  0.35953189979E+02  0.50897919853E+02  0.00000000000E+00 0. -1.
        -13    1    3    3    0    0  0.44734259016E+02  0.69730274804E+02  0.34935731388E+02  0.89910903018E+02  0.00000000000E+00 0.  1.
         13    1    3    3    0    0  0.13354772170E+02  0.42114896122E+02  0.12464791943E+03  0.13224642994E+03  0.00000000000E+00 0. -1.
          1    1    1    2  501    0  0.34792693401E+02 -0.33271851879E+02 -0.27297421456E+03  0.27718670505E+03  0.00000000000E+00 0. -1.
<scales pt_clust_5="13000.00000" pt_clust_6="13000.00000" pt_clust_7="13000.00000" pt_clust_8="13000.00000" pt_clust_9="48.14091"></scales>
<clustering>
<clus scale="   48.141">  2  9  1 -1</clus>
<clus scale="   89.461">  7  8 -1 -1</clus>
<clus scale="  109.601">  5  6 -1 -1</clus>
<clus scale="  151.848">  1  7  2 -1</clus>
<clus scale="   48.141">  2  5  1 -1</clus>
</clustering>
</event>
<event>
 9    1  0.1426358E-005  0.1181539E+03  0.7546771E-02  0.1246697E+00
         -1   -1    0    0    0  501 -0.00000000000E+00  0.00000000000E+00  0.30660750144E+03  0.30660750144E+03  0.00000000000E+00 0.  1.
         21   -1    0    0  501  502  0.00000000000E+00 -0.00000000000E+00 -0.13843071845E+03  0.13843071845E+03  0.00000000000E+00 0. -1.
         23    2    1    2    0    0  0.34249970208E+02 -0.51025699964E+02  0.11548326528E+03  0.15941936896E+03  0.91112392808E+02 0.  0.
         23    2    1    2    0    0 -0.85318843404E+02  0.39445084358E+02  0.13451805862E+03  0.18847259027E+03  0.92690827314E+02 0.  0.
        -11    1    3    3    0    0  0.10378331318E+02 -0.51517096228E+02  0.12924692582E+02  0.54118099034E+02  0.00000000000E+00 0.  1.
         11    1    3    3    0    0  0.23871638890E+02  0.49139626381E+00  0.10255857270E+03  0.10530126993E+03  0.00000000000E+00 0. -1.
        -13    1    4    4    0    0 -0.66055060989E+02  0.68886800576E+01  0.13520709063E+03  0.15063758612E+03  0.00000000000E+00 0. -1.
         13    1    4    4    0    0 -0.19263782415E+02  0.32556404301E+02 -0.68903201083E+00  0.37835004150E+02  0.00000000000E+00 0.  1.
         -1    1    1    2    0  502  0.51068873196E+02  0.11580615606E+02 -0.81824540904E+02  0.97146260666E+02  0.00000000000E+00 0.  1.
<scales pt_clust_5="13000.00000" pt_clust_6="13000.00000" pt_clust_7="13000.00000" pt_clust_8="13000.00000" pt_clust_9="52.36545"></scales>
<clustering>
<clus scale="   52.365">  2  9  1 -1</clus>
<clus scale="   91.112">  5  6 -1 -1</clus>
<clus scale="   92.691">  7  8 -1 -1</clus>
<clus scale="  116.920">  1  5  2 -1</clus>
<clus scale="   52.365">  2  5  1 -1</clus>
</clustering>
</event>
<event>
 9    1  0.1426358E-005  0.1016971E+03  0.7546771E-02  0.1279688E+00
          2   -1    0    0  502    0 -0.00000000000E+00  0.00000000000E+00  0.43976171325E+03  0.43976171325E+03  0.00000000000E+00 0. -1.
         21   -1    0    0  501  502  0.00000000000E+00 -0.00000000000E+00 -0.39719412281E+02  0.39719412281E+02  0.00000000000E+00 0.  1.
         23    2    1    2    0    0 -0.73316224925E+01 -0.40349563628E+02  0.27440421605E+03  0.29196805765E+03  0.90916626271E+02 0.  0.
         23    2    1    2    0    0 -0.99005606916E+01  0.56061216185E+02  0.12841237933E+03  0.16402901217E+03  0.84704761412E+02 0.  0.
        -11    1    4    4    0    0 -0.17293472720E+02 -0.18503314107E+02  0.20144621433E+02  0.32361127983E+02  0.00000000000E+00 0. -1.
         11    1    4    4    0    0  0.73929120287E+01  0.74564530292E+02  0.10826775790E+03  0.13166788419E+03  0.00000000000E+00 0.  1.
        -13    1    3    3    0    0  0.27127130488E+02 -0.48370404619E+02  0.10331050405E+03  0.11725458413E+03  0.00000000000E+00 0.  1.
         13    1    3    3    0    0 -0.34458752981E+02  0.80208409911E+01  0.17109371200E+03  0.17471347353E+03  0.00000000000E+00 0. -1.
          2    1    1    2  501    0  0.17232183184E+02 -0.15711652557E+02 -0.27742944017E+01  0.23484055714E+02  0.00000000000E+00 0. -1.
<scales pt_clust_5="13000.00000" pt_clust_6="13000.00000" pt_clust_7="13000.00000" pt_clust_8="13000.00000" pt_clust_9="23.31961"></scales>
<clustering>
<clus scale="   23.320">  2  9  1 -1</clus>
<clus scale="   84.705">  5  6 -1 -1</clus>
<clus scale="   90.917">  7  8 -1 -1</clus>
<clus scale="   96.184">  2  5  1 -1</clus>
<clus scale="   23.320">  2  5  1 -1</clus>
</clustering>
</event>
<event>
 9    1  0.1426358E-005  0.1276425E+03  0.7546771E-02  0.1231580E+00
         21   -1    0    0  501  502  0.00000000000E+00  0.00000000000E+00  0.45800197830E+02  0.45800197830E+02  0.00000000000E+00 0.  1.
         -1   -1    0    0    0  501 -0.00000000000E+00 -0.00000000000E+00 -0.47170270725E+03  0.47170270725E+03  0.00000000000E+00 0.  1.
         23    2    1    2    0    0 -0.39860408095E+02 -0.74606487223E+02 -0.18381846208E+03  0.22342325356E+03  0.94729843026E+02 0.  0.
         23    2    1    2    0    0  0.61583687193E+01  0.90333045329E+02 -0.18161959035E+03  0.22309301442E+03  0.92665165521E+02 0.  0.
        -11    1    3    3    0    0 -0.22830838221E+02 -0.42159374938E+02 -0.18035109096E+03  0.18661504784E+03  0.00000000000E+00 0. -1.
         11    1    3    3    0    0 -0.17029569874E+02 -0.32447112285E+02 -0.34673711188E+01  0.36808205719E+02  0.00000000000E+00 0.  1.
        -13    1    4    4    0    0  0.25758011668E+02 -0.97715440353E+01 -0.38145190604E+02  0.47053308110E+02  0.00000000000E+00 0.  1.
         13    1    4    4    0    0 -0.19599642949E+02  0.10010458936E+03 -0.14347439975E+03  0.17603970631E+03  0.00000000000E+00 0. -1.
         -1    1    1    2    0  502  0.33702039376E+02 -0.15726558106E+02 -0.60464456984E+02  0.70986637097E+02  0.00000000000E+00 0.  1.
<scales pt_clust_5="13000.00000" pt_clust_6="13000.00000" pt_clust_7="13000.00000" pt_clust_8="13000.00000" pt_clust_9="37.19077"></scales>
<clustering>
<clus scale="   37.191">  1  9  2 -1</clus>
<clus scale="   92.665">  7  8 -1 -1</clus>
<clus scale="   94.730">  5  6 -1 -1</clus>
<clus scale="  126.118">  1  7  2 -1</clus>
<clus scale="   37.191">  1  5  2 -1</clus>
</clustering>
</event>
<event>
 9    1  0.1426358E-005  0.2266235E+03  0.7546771E-02  0.1160324E+00
         21   -1    0    0  501  502  0.00000000000E+00  0.00000000000E+00  0.73004886323E+03  0.73004886323E+03  0.00000000000E+00 0. -1.
         -2   -1    0    0    0  501 -0.00000000000E+00 -0.00000000000E+00 -0.40149085029E+03  0.40149085029E+03  0.00000000000E+00 0. -1.
         23    2    1    2    0    0 -0.27185146094E+02  0.50194558330E+02 -0.28624039055E+03  0.30566067345E+03  0.90754395227E+02 0.  0.
         23    2    1    2    0    0  0.72119041689E+01 -0.24805923701E+03  0.11563120781E+03  0.28855488213E+03  0.91147941043E+02 0.  0.
        -11    1    3    3    0    0  0.68671483139E+01 -0.20924615510E+02 -0.11565187004E+03  0.11772999747E+03  0.00000000000E+00 0.  1.
         11    1    3    3    0    0 -0.34052294408E+02  0.71119173840E+02 -0.17058852051E+03  0.18793067597E+03  0.00000000000E+00 0. -1.
        -13    1    4    4    0    0  0.36176095553E+02 -0.20374921745E+03  0.11246749526E+03  0.23552365272E+03  0.00000000000E+00 0. -1.
         13    1    4    4    0    0 -0.28964191384E+02 -0.44310019552E+02  0.31637125485E+01  0.53031229406E+02  0.00000000000E+00 0.  1.
         -2    1    1    2    0  502  0.19973241926E+02  0.19786467868E+03  0.49916719569E+03  0.53732415795E+03  0.00000000000E+00 0. -1.
<scales pt_clust_5="13000.00000" pt_clust_6="13000.00000" pt_clust_7="13000.00000" pt_clust_8="13000.00000" pt_clust_9="207.48553"></scales>
<clustering>
<clus scale="   90.754">  5  6 -1 -1</clus>
<clus scale="   91.148">  7  8 -1 -1</clus>
<clus scale="  107.214">  2  5  1 -1</clus>
<clus scale="  207.486">  1  9  2 -1</clus>
<clus scale="  207.486">  1  5  2 -1</clus>
</clustering>
</event>
<event>
 9    1  0.1426358E-005  0.1817898E+03  0.7546771E-02  0.1167033E+00
          2   -1    0    0  502    0 -0.00000000000E+00  0.00000000000E+00  0.47877615747E+03  0.47877615747E+03  0.00000000000E+00 0. -1.
         21   -1    0    0  501  502  0.00000000000E+00 -0.00000000000E+00 -0.10713979123E+03  0.10713979123E+03  0.00000000000E+00 0.  1.
         23    2    1    2    0    0 -0.12072341720E+03  0.91513814690E+02  0.25225479612E+03  0.30779893643E+03  0.90325972804E+02 0.  0.
         23    2    1    2    0    0  0.15554266436E+03 -0.48187453605E+02  0.11565716399E+03  0.22240862207E+03  0.97844082450E+02 0.  0.
        -11    1    3    3    0    0 -0.93460077024E+02  0.27529265940E+02  0.96072473401E+02  0.13683043019E+03  0.00000000000E+00 0. -1.
         11    1    3    3    0    0 -0.27263340175E+02  0.63984548751E+02  0.15618232272E+03  0.17096850624E+03  0.00000000000E+00 0.  1.
        -13    1    4    4    0    0  0.43315805357E+02 -0.69713323419E+01 -0.13991177682E+02  0.46050097951E+02  0.00000000000E+00 0.  1.
         13    1    4    4    0    0  0.11222685900E+03 -0.41216121263E+02  0.12964834167E+03  0.17635852412E+03  0.00000000000E+00 0. -1.
          2    1    1    2  501    0 -0.34819247159E+02 -0.43326361086E+02  0.37244061352E+01  0.55708390200E+02  0.00000000000E+00 0. -1.
<scales pt_clust_5="13000.00000" pt_clust_6="13000.00000" pt_clust_7="13000.00000" pt_clust_8="13000.00000" pt_clust_9="55.58375"></scales>
<clustering>
<clus scale="   55.584">  2  9  1 -1</clus>
<clus scale="   90.326">  5  6 -1 -1</clus>
<clus scale="   97.844">  7  8 -1 -1</clus>
<clus scale="  177.856">  1  5  2 -1</clus>
<clus scale="   55.584">  2  5  1 -1</clus>
</clustering>
</event>
<event>
 9    1  0.1426358E-005  0.1108481E+03  0.7546771E-02  0.1259119E+00
         -1   -1    0    0    0  501 -0.00000000000E+00  0.00000000000E+00  0.38265067679E+03  0.38265067679E+03  0.00000000000E+00 0.  1.
         21   -1    0    0  501  502  0.00000000000E+00 -0.00000000000E+00 -0.40931624090E+02  0.40931624090E+02  0.00000000000E+00 0. -1.
         23    2    1    2    0    0  0.25831064223E+02 -0.47958953798E+02  0.18619106725E+03  0.21437911473E+03  0.91235882104E+02 0.  0.
         23    2    1    2    0    0 -0.38334474621E+02  0.65114145758E+02  0.13195375728E+03  0.17747969143E+03  0.91530666385E+02 0.  0.
        -11    1    3    3    0    0  0.49829321490E+02 -0.45518805642E+02  0.17543241176E+03  0.18796663014E+03  0.00000000000E+00 0.  1.
         11    1    3    3    0    0 -0.23998257266E+02 -0.24401481558E+01  0.10758655482E+02  0.26412484598E+02  0.00000000000E+00 0. -1.
        -13    1    4    4    0    0 -0.35759083898E+02  0.16578356232E+02  0.28362475777E+01  0.39517063111E+02  0.00000000000E+00 0. -1.
         13    1    4    4    0    0 -0.25753907224E+01  0.48535789526E+02  0.12911750970E+03  0.13796262832E+03  0.00000000000E+00 0.  1.
         -1    1    1    2    0  502  0.12503410397E+02 -0.17155191960E+02  0.23574228175E+02  0.31723494713E+02  0.00000000000E+00 0.  1.
<scales pt_clust_5="13000.00000" pt_clust_6="13000.00000" pt_clust_7="13000.00000" pt_clust_8="13000.00000" pt_clust_9="21.22819"></scales>
<clustering>
<clus scale="   21.228">  2  9  1 -1</clus>
<clus scale="   91.236">  5  6 -1 -1</clus>
<clus scale="   91.531">  7  8 -1 -1</clus>
<clus scale="  110.605">  1  5  2 -1</clus>
<clus scale="   21.228">  2  5  1 -1</clus>
</clustering>
</event>
<event>
 9    1  0.1426358E-005  0.1076132E+03  0.7546771E-02  0.1266636E+00
         21   -1    0    0  501  502  0.00000000000E+00  0.00000000000E+00  0.73445724919E+02  0.73445724919E+02  0.00000000000E+00 0.  1.
          4   -1    0    0  502    0 -0.00000000000E+00 -0.00000000000E+00 -0.28367177857E+03  0.28367177857E+03  0.00000000000E+00 0. -1.
         23    2    1    2    0    0  0.11476635830E+02  0.52091343995E+02 -0.13926048485E+03  0.17377804193E+03  0.89219414513E+02 0.  0.
         23    2    1    2    0    0 -0.52053269121E+02 -0.41842329635E+02 -0.18126134398E+02  0.11593388840E+03  0.93014979208E+02 0.  0.
        -11    1    4    4    0    0 -0.57790378429E+02 -0.66556303820E+02 -0.20357229387E+02  0.90464834082E+02  0.00000000000E+00 0.  1.
         11    1    4    4    0    0  0.57371093082E+01  0.24713974185E+02  0.22310949895E+01  0.25469054323E+02  0.00000000000E+00 0. -1.
        -13    1    3    3    0    0 -0.21135798166E+02  0.16250184662E+02 -0.35522928377E+00  0.26663020337E+02  0.00000000000E+00 0.  1.
         13    1    3    3    0    0  0.32612433995E+02  0.35841159333E+02 -0.13890525556E+03  0.14711502159E+03  0.00000000000E+00 0. -1.
          4    1    1    2  501    0  0.40576633291E+02 -0.10249014360E+02 -0.52839434406E+02  0.67405573159E+02  0.00000000000E+00 0. -1.
<scales pt_clust_5="13000.00000" pt_clust_6="13000.00000" pt_clust_7="13000.00000" pt_clust_8="13000.00000" pt_clust_9="41.85101"></scales>
<clustering>
<clus scale="   41.851">  1  9  2 -1</clus>
<clus scale="   89.219">  7  8 -1 -1</clus>
<clus scale="   93.015">  5  6 -1 -1</clus>
<clus scale="  104.350">  2  7  1 -1</clus>
<clus scale="   41.851">  1  5  2 -1</clus>
</clustering>
</event>
<event>
 9    1  0.1426358E-005  0.9319147E+02  0.7546771E-02  0.1296239E+00
          2   -1    0    0  502    0 -0.00000000000E+00  0.00000000000E+00  0.13674351244E+03  0.13674351244E+03  0.00000000000E+00 0. -1.
         21   -1    0    0  501  502  0.00000000000E+00 -0.00000000000E+00 -0.36733158236E+03  0.36733158236E+03  0.00000000000E+00 0. -1.
         23    2    1    2    0    0 -0.32434691515E+01 -0.39675125128E+00  0.78216880423E+02  0.12091954057E+03  0.92157351331E+02 0.  0.
         23    2    1    2    0    0  0.46461724347E+02  0.29276532307E+02 -0.46321016806E+02  0.11557439887E+03  0.90531750802E+02 0.  0.
        -11    1    3    3    0    0 -0.13008208108E+02 -0.40000794426E+02  0.13052241903E+02  0.44041322092E+02  0.00000000000E+00 0.  1.
         11    1    3    3    0    0  0.97647389563E+01  0.39604043175E+02  0.65164638520E+02  0.76878218477E+02  0.00000000000E+00 0. -1.
        -13    1    4    4    0    0  0.23894636225E+02 -0.80483215214E+01 -0.63787884165E+02  0.68590256494E+02  0.00000000000E+00 0.  1.
         13    1    4    4    0    0  0.22567088122E+02  0.37324853828E+02  0.17466867358E+02  0.46984142377E+02  0.00000000000E+00 0. -1.
          2    1    1    2  501    0 -0.43218255196E+02 -0.28879781056E+02 -0.26248393354E+03  0.26758115536E+03  0.00000000000E+00 0. -1.
<scales pt_clust_5="13000.00000" pt_clust_6="13000.00000" pt_clust_7="13000.00000" pt_clust_8="13000.00000" pt_clust_9="51.97941"></scales>
<clustering>
<clus scale="   51.979">  2  9  1 -1</clus>
<clus scale="   90.532">  7  8 -1 -1</clus>
<clus scale="   91.584">  2  7  1 -1</clus>
<clus scale="   92.157">  5  6 -1 -1</clus>
<clus scale="   51.979">  2  5  1 -1</clus>
</clustering>
</event>
<event>
 9    1  0.1426358E-005  0.1154890E+03  0.7546771E-02  0.1251281E+00
         21   -1    0    0  501  502  0.00000000000E+00  0.00000000000E+00  0.57198459984E+02  0.57198459984E+02  0.00000000000E+00 0. -1.
          1   -1    0    0  502    0 -0.00000000000E+00 -0.00000000000E+00 -0.51135977715E+03  0.51135977715E+03  0.00000000000E+00 0. -1.
         23    2    1    2    0    0 -0.94257595493E+01  0.46207561600E+02 -0.17955178048E+03  0.20706943718E+03  0.91732907121E+02 0.  0.
         23    2    1    2    0    0 -0.44142068983E+02 -0.10522793953E+03 -0.22403602178E+03  0.26709283777E+03  0.90138800877E+02 0.  0.
        -11    1    3    3    0    0 -0.95478801641E+01  0.66918776339E+02 -0.77061489946E+02  0.10250735522E+03  0.00000000000E+00 0. -1.
         11    1    3    3    0    0  0.12212061487E+00 -0.20711214739E+02 -0.10249029054E+03  0.10456208196E+03  0.00000000000E+00 0.  1.
        -13    1    4    4    0    0 -0.64296173495E+02 -0.10702812516E+03 -0.18620331464E+03  0.22418896468E+03  0.00000000000E+00 0. -1.
         13    1    4    4    0    0  0.20154104512E+02  0.18001856296E+01 -0.37832707136E+02  0.42903873091E+02  0.00000000000E+00 0.  1.
          1    1    1    2  501    0  0.53567828532E+02  0.59020377934E+02 -0.50573514905E+02  0.94395962175E+02  0.00000000000E+00 0. -1.
<scales pt_clust_5="13000.00000" pt_clust_6="13000.00000" pt_clust_7="13000.00000" pt_clust_8="13000.00000" pt_clust_9="79.70519"></scales>
<clustering>
<clus scale="   79.705">  1  9  2 -1</clus>
<clus scale="   90.139">  7  8 -1 -1</clus>
<clus scale="   91.733">  5  6 -1 -1</clus>
<clus scale="  114.227">  1  7  2 -1</clus>
<clus scale="   79.705">  1  5  2 -1</clus>
</clustering>
</event>
<event>
 9    1  0.1426358E-005  0.1255796E+03  0.7546771E-02  0.1234589E+00
         21   -1    0    0  501  502  0.00000000000E+00  0.00000000000E+00  0.16659552870E+03  0.16659552870E+03  0.00000000000E+00 0.  1.
          2   -1    0    0  502    0 -0.00000000000E+00 -0.00000000000E+00 -0.27967185495E+03  0.27967185495E+03  0.00000000000E+00 0. -1.
         23    2    1    2    0    0  0.56621033521E+02  0.59169313673E+02 -0.16463463800E+03  0.20494516301E+03  0.90504180544E+02 0.  0.
         23    2    1    2    0    0 -0.50954612121E+02 -0.10241375210E+03  0.98866056294E+02  0.17697773772E+03  0.91987354814E+02 0.  0.
        -13    1    4    4    0    0 -0.76583903432E+02 -0.82471114335E+02  0.87548610777E+02  0.14258800165E+03  0.00000000000E+00 0.  1.
         13    1    4    4    0    0  0.25629291311E+02 -0.19942637769E+02  0.11317445517E+02  0.34389736075E+02  0.00000000000E+00 0. -1.
        -13    1    3    3    0    0  0.34502084981E+02 -0.19768522952E+02 -0.47019920846E+02  0.61579715200E+02  0.00000000000E+00 0. -1.
         13    1    3    3    0    0  0.22118948540E+02  0.78937836626E+02 -0.11761471715E+03  0.14336544781E+03  0.00000000000E+00 0.  1.
          2    1    1    2  501    0 -0.56664214003E+01  0.43244438430E+02 -0.47307744554E+02  0.64344482914E+02  0.00000000000E+00 0. -1.
<scales pt_clust_5="13000.00000" pt_clust_6="13000.00000" pt_clust_7="13000.00000" pt_clust_8="13000.00000" pt_clust_9="43.61412"></scales>
<clustering>
<clus scale="   43.614">  1  9  2 -1</clus>
<clus scale="   90.504">  7  8 -1 -1</clus>
<clus scale="   91.987">  5  6 -1 -1</clus>
<clus scale="  124.497">  2  7  1 -1</clus>
<clus scale="   43.614">  1  5  2 -1</clus>
</clustering>
</event>
<event>
 9    1  0.1426358E-005  0.1580852E+03  0.7546771E-02  0.1191560E+00
         -4   -1    0    0    0  501 -0.00000000000E+00  0.00000000000E+00  0.60852101318E+03  0.60852101318E+03  0.00000000000E+00 0.  1.
         21   -1    0    0  501  502  0.00000000000E+00 -0.00000000000E+00 -0.12291832704E+03  0.12291832704E+03  0.00000000000E+00 0.  1.
         23    2    1    2    0    0  0.83400987425E+02  0.10408407322E+03  0.48251127476E+03  0.50855644072E+03  0.89572898367E+02 0.  0.
         23    2    1    2    0    0 -0.15517361891E+02 -0.11214464046E+03  0.29053116963E+02  0.14975855666E+03  0.93628696359E+02 0.  0.
        -11    1    4    4    0    0  0.31140193379E+02 -0.89843626683E+02  0.21615424994E+02  0.97513155507E+02  0.00000000000E+00 0.  1.
         11    1    4    4    0    0 -0.46657555271E+02 -0.22301013781E+02  0.74376919694E+01  0.52245401150E+02  0.00000000000E+00 0. -1.
        -13    1    3    3    0    0  0.59908397086E+02  0.98381577383E+02  0.46406800370E+03  0.47814962393E+03  0.00000000000E+00 0.  1.
         13    1    3    3    0    0  0.23492590340E+02  0.57024958414E+01  0.18443271068E+02  0.30406816791E+02  0.00000000000E+00 0. -1.
         -4    1    1    2    0  502 -0.67883625534E+02  0.80605672399E+01 -0.25961705588E+02  0.73124342847E+02  0.00000000000E+00 0.  1.
<scales pt_clust_5="13000.00000" pt_clust_6="13000.00000" pt_clust_7="13000.00000" pt_clust_8="13000.00000" pt_clust_9="68.36051"></scales>
<clustering>
<clus scale="   68.361">  2  9  1 -1</clus>
<clus scale="   89.573">  7  8 -1 -1</clus>
<clus scale="   93.629">  5  6 -1 -1</clus>
<clus scale="  155.717">  1  7  2 -1</clus>
<clus scale="   68.361">  2  5  1 -1</clus>
</clustering>
</event>
<event>
 9    1  0.1426358E-005  0.2510606E+03  0.7546771E-02  0.1113734E+00
          1   -1    0    0  502    0 -0.00000000000E+00  0.00000000000E+00  0.13683347853E+03  0.13683347853E+03  0.00000000000E+00 0. -1.
         21   -1    0    0  501  502  0.00000000000E+00 -0.00000000000E+00 -0.10019076153E+04  0.10019076153E+04  0.00000000000E+00 0.  1.
         23    2    1    2    0    0  0.30027263293E+02 -0.22588447234E+03 -0.39210751653E+02  0.24331013366E+03  0.75742370627E+02 0.  0.
         23    2    1    2    0    0 -0.85080266715E+02  0.24558137840E+03 -0.75103798502E+03  0.80046969548E+03  0.95628516864E+02 0.  0.
        -13    1    4    4    0    0  0.38211324666E+01  0.27361072251E+02 -0.25387577410E+02  0.37520106807E+02  0.00000000000E+00 0. -1.
         13    1    4    4    0    0 -0.88901399181E+02  0.21822030615E+03 -0.72565040761E+03  0.76294958868E+03  0.00000000000E+00 0.  1.
        -13    1    3    3    0    0 -0.76741819798E+01 -0.71180011828E+02 -0.43951831609E+02  0.84007444043E+02  0.00000000000E+00 0.  1.
         13    1    3    3    0    0  0.37701445272E+02 -0.15470446052E+03  0.47410799554E+01  0.15930268961E+03  0.00000000000E+00 0. -1.
          1    1    1    2  501    0  0.55053003422E+02 -0.19696906059E+02 -0.74825400119E+02  0.94961264719E+02  0.00000000000E+00 0. -1.
<scales pt_clust_5="13000.00000" pt_clust_6="13000.00000" pt_clust_7="13000.00000" pt_clust_8="13000.00000" pt_clust_9="58.47052"></scales>
<clustering>
<clus scale="   58.471">  2  9  1 -1</clus>
<clus scale="   75.742">  7  8 -1 -1</clus>
<clus scale="   95.629">  5  6 -1 -1</clus>
<clus scale="  244.179">  1  7  2 -1</clus>
<clus scale="   58.471">  2  5  1 -1</clus>
</clustering>
</event>
<event>
 9    1  0.1426358E-005  0.1219877E+03  0.7546771E-02  0.1241972E+00
         -3   -1    0    0    0  501 -0.00000000000E+00  0.00000000000E+00  0.63274755064E+03  0.63274755064E+03  0.00000000000E+00 0.  1.
         21   -1    0    0  501  502  0.00000000000E+00 -0.00000000000E+00 -0.37408422632E+02  0.37408422632E+02  0.00000000000E+00 0. -1.
         23    2    1    2    0    0 -0.67626838461E+02  0.14175302706E+02  0.38736508394E+03  0.40387866958E+03  0.91060106510E+02 0.  0.
         23    2    1    2    0    0  0.83606478406E+02  0.54000424063E+00  0.20808434856E+03  0.24455401393E+03  0.97556315914E+02 0.  0.
        -11    1    4    4    0    0 -0.83830090820E+01 -0.28735311670E+02  0.32516120335E+02  0.44196052535E+02  0.00000000000E+00 0.  1.
         11    1    4    4    0    0  0.91989487488E+02  0.29275315910E+02  0.17556822823E+03  0.20035796139E+03  0.00000000000E+00 0. -1.
        -13    1    3    3    0    0 -0.87520454898E+02 -0.19699874455E+01  0.32151063004E+03  0.33321584011E+03  0.00000000000E+00 0.  1.
         13    1    3    3    0    0  0.19893616437E+02  0.16145290152E+02  0.65854453902E+02  0.70662829464E+02  0.00000000000E+00 0. -1.
         -3    1    1    2    0  502 -0.15979639945E+02 -0.14715306947E+02 -0.11030449300E+00  0.21723289769E+02  0.00000000000E+00 0.  1.
<scales pt_clust_5="13000.00000" pt_clust_6="13000.00000" pt_clust_7="13000.00000" pt_clust_8="13000.00000" pt_clust_9="21.72301"></scales>
<clustering>
<clus scale="   21.723">  2  9  1 -1</clus>
<clus scale="   91.060">  7  8 -1 -1</clus>
<clus scale="   97.556">  5  6 -1 -1</clus>
<clus scale="  116.858">  1  7  2 -1</clus>
<clus scale="   21.723">  2  5  1 -1</clus>
</clustering>
</event>
<event>
 9    1  0.1426358E-005  0.1233559E+03  0.7546771E-02  0.1240473E+00
         21   -1    0    0  501  502  0.00000000000E+00  0.00000000000E+00  0.37929470498E+02  0.37929470498E+02  0.00000000000E+00 0.  1.
          2   -1    0    0  502    0 -0.00000000000E+00 -0.00000000000E+00 -0.60808585021E+03  0.60808585021E+03  0.00000000000E+00 0. -1.
         23    2    1    2    0    0 -0.22904303522E+02  0.30153378478E+02 -0.32366234386E+03  0.34734865990E+03  0.12024951286E+03 0.  0.
         23    2    1    2    0    0  0.42428756462E+01 -0.17082928094E+02 -0.25057286874E+03  0.27552098214E+03  0.11320433130E+03 0.  0.
        -11    1    3    3    0    0 -0.53102874026E+02 -0.88243967964E+01 -0.66770503407E+02  0.85767624042E+02  0.00000000000E+00 0.  1.
         11    1    3    3    0    0  0.30198570503E+02  0.38977775274E+02 -0.25689184046E+03  0.26158103585E+03  0.00000000000E+00 0. -1.
        -13    1    4    4    0    0  0.35424030814E+02  0.20589320201E+02 -0.33258486252E+02  0.52772236766E+02  0.00000000000E+00 0. -1.
         13    1    4    4    0    0 -0.31181155168E+02 -0.37672248295E+02 -0.21731438249E+03  0.22274874537E+03  0.00000000000E+00 0.  1.
          2    1    1    2  501    0  0.18661427876E+02 -0.13070450383E+02  0.40788328880E+01  0.23145678675E+02  0.00000000000E+00 0. -1.
<scales pt_clust_5="13000.00000" pt_clust_6="13000.00000" pt_clust_7="13000.00000" pt_clust_8="13000.00000" pt_clust_9="22.78345"></scales>
<clustering>
<clus scale="   22.783">  1  9  2 -1</clus>
<clus scale="  113.204">  7  8 -1 -1</clus>
<clus scale="  116.499">  1  7  2 -1</clus>
<clus scale="  120.250">  5  6 -1 -1</clus>
<clus scale="   22.783">  1  5  2 -1</clus>
</clustering>
</event>
<event>
 9    1  0.1426358E-005  0.1177317E+03  0.7546771E-02  0.1248599E+00
         21   -1    0    0  501  502  0.00000000000E+00  0.00000000000E+00  0.55555490973E+03  0.55555490973E+03  0.00000000000E+00 0.  1.
          2   -1    0    0  502    0 -0.00000000000E+00 -0.00000000000E+00 -0.67589144797E+02  0.67589144797E+02  0.00000000000E+00 0. -1.
         23    2    1    2    0    0  0.28353011338E+02 -0.42025625245E+02  0.45012962065E+02  0.11750663321E+03  0.95977058017E+02 0.  0.
         23    2    1    2    0    0 -0.10147343115E+03  0.73119179149E+02  0.22001980739E+03  0.26896776682E+03  0.91058620418E+02 0.  0.
        -11    1    3    3    0    0  0.43180403045E+02  0.84093772458E+01  0.47674325579E+02  0.64869917159E+02  0.00000000000E+00 0.  1.
         11    1    3    3    0    0 -0.14827391707E+02 -0.50435002491E+02 -0.26613635134E+01  0.52636716053E+02  0.00000000000E+00 0. -1.
        -11    1    4    4    0    0 -0.16798517412E+02  0.59765060260E+02  0.13321746929E+03  0.14697260540E+03  0.00000000000E+00 0. -1.
         11    1    4    4    0    0 -0.84674913741E+02  0.13354118889E+02  0.86802338101E+02  0.12199516141E+03  0.00000000000E+00 0.  1.
          2    1    1    2  501    0  0.73120419814E+02 -0.31093553904E+02  0.22293299548E+03  0.23666965450E+03  0.00000000000E+00 0. -1.
<scales pt_clust_5="13000.00000" pt_clust_6="13000.00000" pt_clust_7="13000.00000" pt_clust_8="13000.00000" pt_clust_9="79.45694"></scales>
<clustering>
<clus scale="   79.457">  1  9  2 -1</clus>
<clus scale="   91.059">  7  8 -1 -1</clus>
<clus scale="   95.977">  5  6 -1 -1</clus>
<clus scale="  113.758">  1  7  2 -1</clus>
<clus scale="   79.457">  1  5  2 -1</clus>
</clustering>
</event>
<event>
 9    1  0.1426358E-005  0.1015896E+03  0.7546771E-02  0.1280510E+00
          2   -1    0    0  502    0 -0.00000000000E+00  0.00000000000E+00  0.18629290529E+03  0.18629290529E+03  0.00000000000E+00 0. -1.
         21   -1    0    0  501  502  0.00000000000E+00 -0.00000000000E+00 -0.25529972354E+03  0.25529972354E+03  0.00000000000E+00 0. -1.
         23    2    1    2    0    0  0.65359777652E+01  0.28410077227E+01  0.76678989901E+02  0.12097703224E+03  0.93300506463E+02 0.  0.
         23    2    1    2    0    0  0.51980865618E+02  0.45781161812E+02  0.33300858889E+02  0.12613021590E+03  0.10000979448E+03 0.  0.
        -11    1    3    3    0    0 -0.20149189851E+02  0.37817367609E+02  0.60425599899E+02  0.74076961788E+02  0.00000000000E+00 0. -1.
         11    1    3    3    0    0  0.26685167616E+02 -0.34976359886E+02  0.16253390002E+02  0.46900070449E+02  0.00000000000E+00 0.  1.
        -13    1    4    4    0    0 -0.26089012099E+02  0.51930575950E+01 -0.95464573456E+01  0.28261975291E+02  0.00000000000E+00 0.  1.
         13    1    4    4    0    0  0.78069877717E+02  0.40588104217E+02  0.42847316235E+02  0.97868240605E+02  0.00000000000E+00 0. -1.
          2    1    1    2  501    0 -0.58516843383E+02 -0.48622169535E+02 -0.17898666704E+03  0.19448538070E+03  0.00000000000E+00 0. -1.
<scales pt_clust_5="13000.00000" pt_clust_6="13000.00000" pt_clust_7="13000.00000" pt_clust_8="13000.00000" pt_clust_9="76.08112"></scales>
<clustering>
<clus scale="   76.081">  2  9  1 -1</clus>
<clus scale="   93.301">  5  6 -1 -1</clus>
<clus scale="   94.992">  1  5  2 -1</clus>
<clus scale="  100.010">  7  8 -1 -1</clus>
<clus scale="   76.081">  2  5  1 -1</clus>
</clustering>
</event>
<event>
 9    1  0.1426358E-005  0.2038387E+03  0.7546771E-02  0.1146557E+00
         -1   -1    0    0    0  501 -0.00000000000E+00  0.00000000000E+00  0.42910086084E+03  0.42910086084E+03  0.00000000000E+00 0.  1.
         21   -1    0    0  501  502  0.00000000000E+00 -0.00000000000E+00 -0.54612317863E+03  0.54612317863E+03  0.00000000000E+00 0. -1.
         23    2    1    2    0    0 -0.17954647277E+03 -0.10036751794E+01  0.31800708114E+03  0.37648172029E+03  0.91498845951E+02 0.  0.
         23    2    1    2    0    0  0.21007299293E+03  0.13858309654E+03 -0.31694314705E+03  0.41488278447E+03  0.91317191083E+02 0.  0.
        -11    1    3    3    0    0 -0.15804178288E+03 -0.21447306250E+02  0.30479492041E+03  0.34400165056E+03  0.00000000000E+00 0.  1.
         11    1    3    3    0    0 -0.21504689886E+02  0.20443631071E+02  0.13212160732E+02  0.32480069730E+02  0.00000000000E+00 0. -1.
        -11    1    4    4    0    0  0.11930270165E+03  0.86483871852E+02 -0.11314027455E+03  0.18577759939E+03  0.00000000000E+00 0.  1.
         11    1    4    4    0    0  0.90770291285E+02  0.52099224684E+02 -0.20380287250E+03  0.22910518508E+03  0.00000000000E+00 0. -1.
         -1    1    1    2    0  502 -0.30526520163E+02 -0.13757942136E+03 -0.11808625188E+03  0.18385953469E+03  0.00000000000E+00 0.  1.
<scales pt_clust_5="13000.00000" pt_clust_6="13000.00000" pt_clust_7="13000.00000" pt_clust_8="13000.00000" pt_clust_9="140.92539"></scales>
<clustering>
<clus scale="   91.317">  7  8 -1 -1</clus>
<clus scale="   91.499">  5  6 -1 -1</clus>
<clus scale="  140.925">  2  9  1 -1</clus>
<clus scale="  203.757">  2  7  1 -1</clus>
<clus scale="  140.925">  2  5  1 -1</clus>
</clustering>
</event>
<event>
 9    1  0.1426358E-005  0.2162049E+03  0.7546771E-02  0.1136967E+00
         -1   -1    0    0    0  501 -0.00000000000E+00  0.00000000000E+00  0.40537272725E+03  0.40537272725E+03  0.00000000000E+00 0.  1.
         21   -1    0    0  501  502  0.00000000000E+00 -0.00000000000E+00 -0.21966266837E+03  0.21966266837E+03  0.00000000000E+00 0.  1.
         23    2    1    2    0    0  0.14515028724E+03 -0.11540191941E+03  0.23547691666E+03  0.31223793554E+03  0.87503949731E+02 0.  0.
         23    2    1    2    0    0 -0.17734324461E+03  0.15484555848E+03 -0.18036953583E+02  0.25280601079E+03  0.90320396411E+02 0.  0.
        -11    1    4    4    0    0 -0.10950367254E+03  0.72127058587E+02 -0.51259662238E+02  0.14078678863E+03  0.00000000000E+00 0.  1.
         11    1    4    4    0    0 -0.67839572072E+02  0.82718499890E+02  0.33222708655E+02  0.11201922216E+03  0.00000000000E+00 0. -1.
        -13    1    3    3    0    0  0.13460244909E+03 -0.58923272312E+02  0.18016919140E+03  0.23248808324E+03  0.00000000000E+00 0.  1.
         13    1    3    3    0    0  0.10547838159E+02 -0.56478647098E+02  0.55307725266E+02  0.79749852300E+02  0.00000000000E+00 0. -1.
         -1    1    1    2    0  502  0.32192957369E+02 -0.39443639067E+02 -0.31729904201E+02  0.59991449287E+02  0.00000000000E+00 0.  1.
<scales pt_clust_5="13000.00000" pt_clust_6="13000.00000" pt_clust_7="13000.00000" pt_clust_8="13000.00000" pt_clust_9="50.91353"></scales>
<clustering>
<clus scale="   50.914">  2  9  1 -1</clus>
<clus scale="   87.504">  7  8 -1 -1</clus>
<clus scale="   90.320">  5  6 -1 -1</clus>
<clus scale="  215.044">  1  7  2 -1</clus>
<clus scale="   50.914">  2  5  1 -1</clus>
</clustering>
</event>
<event>
 9    1  0.1426358E-005  0.1017315E+03  0.7546771E-02  0.1279166E+00
          1   -1    0    0  502    0 -0.00000000000E+00  0.00000000000E+00  0.53090354052E+02  0.53090354052E+02  0.00000000000E+00 0. -1.
         21   -1    0    0  501  502  0.00000000000E+00 -0.00000000000E+00 -0.49240022098E+03  0.49240022098E+03  0.00000000000E+00 0.  1.
         23    2    1    2    0    0  0.24656114538E+02  0.25354499076E+02 -0.54622966819E+02  0.10747506089E+03  0.85536223911E+02 0.  0.
         23    2    1    2    0    0  0.26199877477E+01 -0.96884937246E+02 -0.25000441109E+03  0.28309630233E+03  0.90817153821E+02 0.  0.
        -11    1    3    3    0    0  0.29798676274E+02  0.48528429480E+02 -0.60432853455E+02  0.83036734956E+02  0.00000000000E+00 0.  1.
         11    1    3    3    0    0 -0.51425617354E+01 -0.23173930404E+02  0.58098866363E+01  0.24438325930E+02  0.00000000000E+00 0. -1.
        -13    1    4    4    0    0 -0.22735068354E+02 -0.79596585065E+01 -0.12670911120E+03  0.12897844145E+03  0.00000000000E+00 0. -1.
         13    1    4    4    0    0  0.25355056102E+02 -0.88925278739E+02 -0.12329529988E+03  0.15411786088E+03  0.00000000000E+00 0.  1.
          1    1    1    2  501    0 -0.27276102286E+02  0.71530438169E+02 -0.13468248902E+03  0.15491921181E+03  0.00000000000E+00 0. -1.
<scales pt_clust_5="13000.00000" pt_clust_6="13000.00000" pt_clust_7="13000.00000" pt_clust_8="13000.00000" pt_clust_9="76.55449"></scales>
<clustering>
<clus scale="   76.554">  2  9  1 -1</clus>
<clus scale="   85.536">  5  6 -1 -1</clus>
<clus scale="   90.817">  7  8 -1 -1</clus>
<clus scale="   97.046">  1  5  2 -1</clus>
<clus scale="   76.554">  2  5  1 -1</clus>
</clustering>
</event>
<event>
 9    1  0.1426358E-005  0.1130600E+03  0.7546771E-02  0.1257478E+00
         21   -1    0    0  501  502  0.00000000000E+00  0.00000000000E+00  0.56226229514E+02  0.56226229514E+02  0.00000000000E+00 0.  1.
          1   -1    0    0  502    0 -0.00000000000E+00 -0.00000000000E+00 -0.32171076431E+03  0.32171076431E+03  0.00000000000E+00 0. -1.
         23    2    1    2    0    0  0.52646754290E+02 -0.37598968310E+00 -0.86313124099E+02  0.13934694448E+03  0.95894699738E+02 0.  0.
         23    2    1    2    0    0 -0.62734171189E+02 -0.32251570262E+02 -0.97101110644E+02  0.14969771110E+03  0.89470883543E+02 0.  0.
        -11    1    4    4    0    0 -0.34547495691E+02  0.22687483289E+02 -0.72047630512E+02  0.83060895847E+02  0.00000000000E+00 0. -1.
         11    1    4    4    0    0 -0.28186675499E+02 -0.54939053551E+02 -0.25053480132E+02  0.66636815256E+02  0.00000000000E+00 0.  1.
        -13    1    3    3    0    0  0.21086691064E+02 -0.24006727777E+02  0.11442794845E+02  0.33939785981E+02  0.00000000000E+00 0.  1.
         13    1    3    3    0    0  0.31560063225E+02  0.23630738094E+02 -0.97755918943E+02  0.10540715850E+03  0.00000000000E+00 0. -1.
          1    1    1    2  501    0  0.10087416900E+02  0.32627559945E+02 -0.82070300054E+02  0.88892338245E+02  0.00000000000E+00 0. -1.
<scales pt_clust_5="13000.00000" pt_clust_6="13000.00000" pt_clust_7="13000.00000" pt_clust_8="13000.00000" pt_clust_9="34.15135"></scales>
<clustering>
<clus scale="   34.151">  1  9  2 -1</clus>
<clus scale="   89.471">  5  6 -1 -1</clus>
<clus scale="   95.895">  7  8 -1 -1</clus>
<clus scale="  107.665">  1  5  2 -1</clus>
<clus scale="   34.151">  1  5  2 -1</clus>
</clustering>
</event>
<event>
 9    1  0.1426358E-005  0.1842114E+03  0.7546771E-02  0.1168117E+00
         21   -1    0    0  501  502  0.00000000000E+00  0.00000000000E+00  0.78862299967E+02  0.78862299967E+02  0.00000000000E+00 0.  1.
         -3   -1    0    0    0  501 -0.00000000000E+00 -0.00000000000E+00 -0.75873144999E+03  0.75873144999E+03  0.00000000000E+00 0.  1.
         23    2    1    2    0    0  0.10713366483E+03  0.87845711473E+02 -0.44828416213E+03  0.47971698654E+03  0.99875952998E+02 0.  0.
         23    2    1    2    0    0 -0.11542482567E+03 -0.53352055099E+02 -0.25747163336E+03  0.31396009128E+03  0.12692503603E+03 0.  0.
        -13    1    4    4    0    0 -0.70364114582E+02 -0.93182748133E+02 -0.19468995273E+03  0.22702050759E+03  0.00000000000E+00 0. -1.
         13    1    4    4    0    0 -0.45060711086E+02  0.39830693034E+02 -0.62781680624E+02  0.86939583695E+02  0.00000000000E+00 0.  1.
        -13    1    3    3    0    0  0.31320328223E+02  0.77781135598E+02 -0.15063965584E+03  0.17240410067E+03  0.00000000000E+00 0. -1.
         13    1    3    3    0    0  0.75813336612E+02  0.10064575875E+02 -0.29764450629E+03  0.30731288587E+03  0.00000000000E+00 0.  1.
         -3    1    1    2    0  502  0.82911608334E+01 -0.34493656373E+02  0.25886645467E+02  0.43916672136E+02  0.00000000000E+00 0.  1.
<scales pt_clust_5="13000.00000" pt_clust_6="13000.00000" pt_clust_7="13000.00000" pt_clust_8="13000.00000" pt_clust_9="35.47613"></scales>
<clustering>
<clus scale="   35.476">  1  9  2 -1</clus>
<clus scale="   99.876">  7  8 -1 -1</clus>
<clus scale="  126.925">  5  6 -1 -1</clus>
<clus scale="  166.731">  2  7  1 -1</clus>
<clus scale="   35.476">  1  5  2 -1</clus>
</clustering>
</event>
<event>
 9    1  0.1426358E-005  0.9037321E+02  0.7546771E-02  0.1305122E+00
         21   -1    0    0  501  502  0.00000000000E+00  0.00000000000E+00  0.62536295037E+02  0.62536295037E+02  0.00000000000E+00 0. -1.
          3   -1    0    0  502    0 -0.00000000000E+00 -0.00000000000E+00 -0.22852564461E+03  0.22852564461E+03  0.00000000000E+00 0. -1.
         23    2    1    2    0    0 -0.16751796503E+01  0.70484851698E+01 -0.12051589434E+03  0.15043462722E+03  0.89744130216E+02 0.  0.
         23    2    1    2    0    0  0.21985741512E+02  0.11611529468E+01 -0.66825756343E+02  0.11003584559E+03  0.84601917809E+02 0.  0.
        -11    1    4    4    0    0 -0.11372258930E+02  0.20671836788E+02  0.87411979104E+01  0.25160716410E+02  0.00000000000E+00 0.  1.
         11    1    4    4    0    0  0.33358000442E+02 -0.19510683841E+02 -0.75566954254E+02  0.84875129176E+02  0.00000000000E+00 0. -1.
        -13    1    3    3    0    0 -0.11044273897E+01  0.46185066483E+02 -0.88638326854E+02  0.99955155512E+02  0.00000000000E+00 0. -1.
         13    1    3    3    0    0 -0.57075226065E+00 -0.39136581313E+02 -0.31877567482E+02  0.50479471705E+02  0.00000000000E+00 0.  1.
          3    1    1    2  501    0 -0.20310561861E+02 -0.82096381166E+01  0.21352301107E+02  0.30591466844E+02  0.00000000000E+00 0. -1.
<scales pt_clust_5="13000.00000" pt_clust_6="13000.00000" pt_clust_7="13000.00000" pt_clust_8="13000.00000" pt_clust_9="21.90701"></scales>
<clustering>
<clus scale="   21.907">  1  9  2 -1</clus>
<clus scale="   84.602">  5  6 -1 -1</clus>
<clus scale="   85.269">  1  5  2 -1</clus>
<clus scale="   89.744">  7  8 -1 -1</clus>
<clus scale="   21.907">  1  5  2 -1</clus>
</clustering>
</event>
<event>
 9    1  0.1426358E-005  0.1127318E+03  0.7546771E-02  0.1255951E+00
          1   -1    0    0  502    0 -0.00000000000E+00  0.00000000000E+00  0.67752921876E+03  0.67752921876E+03  0.00000000000E+00 0. -1.
         21   -1    0    0  501  502  0.00000000000E+00 -0.00000000000E+00 -0.70090585540E+02  0.70090585540E+02  0.00000000000E+00 0. -1.
         23    2    1    2    0    0  0.48157464344E+02  0.16165330779E+02  0.31933233502E+03  0.33627890508E+03  0.92357471394E+02 0.  0.
         23    2    1    2    0    0 -0.87506066595E+02  0.11933018208E+02  0.32600921966E+03  0.34990425568E+03  0.91385273565E+02 0.  0.
        -13    1    4    4    0    0 -0.19540564367E+02 -0.38011439475E+02  0.11086212668E+03  0.11881546330E+03  0.00000000000E+00 0.  1.
         13    1    4    4    0    0 -0.67965502228E+02  0.49944457683E+02  0.21514709298E+03  0.23108879238E+03  0.00000000000E+00 0. -1.
        -13    1    3    3    0    0  0.76017771890E+02  0.11163034288E+02  0.22237393561E+03  0.23527320760E+03  0.00000000000E+00 0.  1.
         13    1    3    3    0    0 -0.27860307546E+02  0.50022964913E+01  0.96958399415E+02  0.10100569748E+03  0.00000000000E+00 0. -1.
          1    1    1    2  501    0  0.39348602251E+02 -0.28098348987E+02 -0.37902921456E+02  0.61436643543E+02  0.00000000000E+00 0. -1.
<scales pt_clust_5="13000.00000" pt_clust_6="13000.00000" pt_clust_7="13000.00000" pt_clust_8="13000.00000" pt_clust_9="48.35111"></scales>
<clustering>
<clus scale="   48.351">  2  9  1 -1</clus>
<clus scale="   91.385">  5  6 -1 -1</clus>
<clus scale="   92.357">  7  8 -1 -1</clus>
<clus scale="  111.937">  2  5  1 -1</clus>
<clus scale="   48.351">  2  5  1 -1</clus>
</clustering>
</event>
<event>
 9    1  0.1426358E-005  0.1237319E+03  0.7546771E-02  0.1237085E+00
         -2   -1    0    0    0  501 -0.00000000000E+00  0.00000000000E+00  0.55508777067E+02  0.55508777067E+02  0.00000000000E+00 0.  1.
         21   -1    0    0  501  502  0.00000000000E+00 -0.00000000000E+00 -0.56196029778E+03  0.56196029778E+03  0.00000000000E+00 0.  1.
         23    2    1    2    0    0  0.82429766433E+02  0.63280601823E+02 -0.80442437831E+02  0.15958791339E+03  0.90543996680E+02 0.  0.
         23    2    1    2    0    0 -0.28491636287E+02 -0.41262786076E+02 -0.20912423327E+03  0.23330791264E+03  0.90472351058E+02 0.  0.
        -11    1    3    3    0    0  0.63746943921E+02  0.51296958609E+02 -0.61538535809E+01  0.82054376700E+02  0.00000000000E+00 0.  1.
         11    1    3    3    0    0  0.18682822512E+02  0.11983643214E+02 -0.74288584250E+02  0.77533536690E+02  0.00000000000E+00 0. -1.
        -11    1    4    4    0    0  0.21625943316E+02 -0.68849442451E+01 -0.94409969713E+01  0.24580811732E+02  0.00000000000E+00 0.  1.
         11    1    4    4    0    0 -0.50117579603E+02 -0.34377841831E+02 -0.19968323630E+03  0.20872710090E+03  0.00000000000E+00 0. -1.
         -2    1    1    2    0  502 -0.53938130146E+02 -0.22017815747E+02 -0.21688484962E+03  0.22457324882E+03  0.00000000000E+00 0.  1.
<scales pt_clust_5="13000.00000" pt_clust_6="13000.00000" pt_clust_7="13000.00000" pt_clust_8="13000.00000" pt_clust_9="58.25896"></scales>
<clustering>
<clus scale="   58.259">  2  9  1 -1</clus>
<clus scale="   90.472">  7  8 -1 -1</clus>
<clus scale="   90.544">  5  6 -1 -1</clus>
<clus scale="  123.680">  2  7  1 -1</clus>
<clus scale="   58.259">  2  5  1 -1</clus>
</clustering>
</event>
<event>
 9    1  0.1426358E-005  0.1322101E+03  0.7546771E-02  0.1226445E+00
         21   -1    0    0  501  502  0.00000000000E+00  0.00000000000E+00  0.15051687132E+03  0.15051687132E+03  0.00000000000E+00 0. -1.
          2   -1    0    0  502    0 -0.00000000000E+00 -0.00000000000E+00 -0.31953424366E+03  0.31953424366E+03  0.00000000000E+00 0. -1.
         23    2    1    2    0    0  0.71608327093E+02 -0.57965861159E+02 -0.21770546001E+03  0.25372659203E+03  0.92161394384E+02 0.  0.
         23    2    1    2    0    0 -0.50691444391E+02  0.50338640599E+02 -0.36419012102E+02  0.12835345436E+03  0.10022306887E+03 0.  0.
        -13    1    4    4    0    0 -0.62131234818E+02  0.73317280511E+00  0.55410139959E+01  0.62382134610E+02  0.00000000000E+00 0.  1.
         13    1    4    4    0    0  0.11439790427E+02  0.49605467793E+02 -0.41960026098E+02  0.65971319754E+02  0.00000000000E+00 0. -1.
        -13    1    3    3    0    0  0.36620205664E+02 -0.54278381518E+01 -0.12565319196E+02  0.39094604952E+02  0.00000000000E+00 0.  1.
         13    1    3    3    0    0  0.34988121429E+02 -0.52538023007E+02 -0.20514014082E+03  0.21463198708E+03  0.00000000000E+00 0. -1.
          2    1    1    2  501    0 -0.20916882702E+02  0.76272205604E+01  0.85107099775E+02  0.87971068583E+02  0.00000000000E+00 0. -1.
<scales pt_clust_5="13000.00000" pt_clust_6="13000.00000" pt_clust_7="13000.00000" pt_clust_8="13000.00000" pt_clust_9="22.26411"></scales>
<clustering>
<clus scale="   22.264">  1  9  2 -1</clus>
<clus scale="   92.161">  7  8 -1 -1</clus>
<clus scale="  100.223">  5  6 -1 -1</clus>
<clus scale="  126.208">  2  7  1 -1</clus>
<clus scale="   22.264">  1  5  2 -1</clus>
</clustering>
</event>
<event>
 9    1  0.1426358E-005  0.1014891E+03  0.7546771E-02  0.1279736E+00
          2   -1    0    0  502    0 -0.00000000000E+00  0.00000000000E+00  0.49476985843E+03  0.49476985843E+03  0.00000000000E+00 0. -1.
         21   -1    0    0  501  502  0.00000000000E+00 -0.00000000000E+00 -0.37904883156E+02  0.37904883156E+02  0.00000000000E+00 0. -1.
         23    2    1    2    0    0 -0.12139362820E+02  0.25687136485E+02  0.33338952253E+03  0.34662980074E+03  0.90534258264E+02 0.  0.
         23    2    1    2    0    0  0.24163503539E+02 -0.45192070803E+02  0.12171981842E+03  0.16306441268E+03  0.95645649760E+02 0.  0.
        -13    1    3    3    0    0  0.19073105873E+02  0.51098401995E+02  0.19952152086E+03  0.20684213144E+03  0.00000000000E+00 0. -1.
         13    1    3    3    0    0 -0.31212468693E+02 -0.25411265510E+02  0.13386800167E+03  0.13978766930E+03  0.00000000000E+00 0.  1.
        -13    1    4    4    0    0  0.21675620347E+02  0.24643695835E+02  0.65924049380E+02  0.73641866819E+02  0.00000000000E+00 0. -1.
         13    1    4    4    0    0  0.24878831920E+01 -0.69835766639E+02  0.55795769045E+02  0.89422545860E+02  0.00000000000E+00 0.  1.
          2    1    1    2  501    0 -0.12024140719E+02  0.19504934318E+02  0.17556343161E+01  0.22980528163E+02  0.00000000000E+00 0. -1.
<scales pt_clust_5="13000.00000" pt_clust_6="13000.00000" pt_clust_7="13000.00000" pt_clust_8="13000.00000" pt_clust_9="22.91337"></scales>
<clustering>
<clus scale="   22.913">  2  9  1 -1</clus>
<clus scale="   90.534">  5  6 -1 -1</clus>
<clus scale="   95.646">  7  8 -1 -1</clus>
<clus scale="   96.687">  1  5  2 -1</clus>
<clus scale="   22.913">  2  5  1 -1</clus>
</clustering>
</event>
<event>
 9    1  0.1426358E-005  0.1316023E+03  0.7546771E-02  0.1225699E+00
          2   -1    0    0  502    0 -0.00000000000E+00  0.00000000000E+00  0.96907586381E+02  0.96907586381E+02  0.00000000000E+00 0. -1.
         21   -1    0    0  501  502  0.00000000000E+00 -0.00000000000E+00 -0.40227963025E+03  0.40227963025E+03  0.00000000000E+00 0. -1.
         23    2    1    2    0    0  0.10272106249E+03  0.22071429114E+02 -0.18074912104E+02  0.14098782426E+03  0.92261039888E+02 0.  0.
         23    2    1    2    0    0 -0.62405846388E+02 -0.57269161268E+02 -0.87539230988E+02  0.15139654925E+03  0.89908573939E+02 0.  0.
        -11    1    4    4    0    0 -0.59108976554E+02 -0.79925119899E+02 -0.78946087682E+02  0.12694243050E+03  0.00000000000E+00 0. -1.
         11    1    4    4    0    0 -0.32968698341E+01  0.22655958632E+02 -0.85931433060E+01  0.24454118755E+02  0.00000000000E+00 0.  1.
        -11    1    3    3    0    0  0.64434284259E+02  0.39171367865E+01  0.34715000262E+02  0.73295649201E+02  0.00000000000E+00 0. -1.
         11    1    3    3    0    0  0.38286778229E+02  0.18154292328E+02 -0.52789912366E+02  0.67692175062E+02  0.00000000000E+00 0.  1.
          2    1    1    2  501    0 -0.40315216099E+02  0.35197732153E+02 -0.19975790077E+03  0.20680284311E+03  0.00000000000E+00 0. -1.
<scales pt_clust_5="13000.00000" pt_clust_6="13000.00000" pt_clust_7="13000.00000" pt_clust_8="13000.00000" pt_clust_9="53.51819"></scales>
<clustering>
<clus scale="   53.518">  2  9  1 -1</clus>
<clus scale="   89.909">  5  6 -1 -1</clus>
<clus scale="   92.261">  7  8 -1 -1</clus>
<clus scale="  129.964">  2  5  1 -1</clus>
<clus scale="   53.518">  2  5  1 -1</clus>
</clustering>
</event>
<event>
 9    1  0.1426358E-005  0.9143828E+02  0.7546771E-02  0.1300221E+00
          1   -1    0    0  502    0 -0.00000000000E+00  0.00000000000E+00  0.19203815577E+03  0.19203815577E+03  0.00000000000E+00 0. -1.
         21   -1    0    0  501  502  0.00000000000E+00 -0.00000000000E+00 -0.61728750509E+02  0.61728750509E+02  0.00000000000E+00 0.  1.
         23    2    1    2    0    0  0.32317073567E+01 -0.92151216891E+01  0.85448470522E+02  0.12546192030E+03  0.91344895476E+02 0.  0.
         23    2    1    2    0    0 -0.48674562222E+01 -0.16032630032E+02  0.47047598477E+02  0.10290998373E+03  0.89979169104E+02 0.  0.
        -11    1    4    4    0    0 -0.17990623775E+02 -0.37499372323E+02  0.61235843801E+02  0.74024955485E+02  0.00000000000E+00 0.  1.
         11    1    4    4    0    0  0.13123167553E+02  0.21466742291E+02 -0.14188245325E+02  0.28885028243E+02  0.00000000000E+00 0. -1.
        -13    1    3    3    0    0  0.21339886618E+02 -0.44619068895E+02  0.32256456776E+02  0.59048548447E+02  0.00000000000E+00 0.  1.
         13    1    3    3    0    0 -0.18108179261E+02  0.35403947206E+02  0.53192013746E+02  0.66413371849E+02  0.00000000000E+00 0. -1.
          1    1    1    2  501    0  0.16357488655E+01  0.25247751721E+02 -0.21866637357E+01  0.25395002257E+02  0.00000000000E+00 0. -1.
<scales pt_clust_5="13000.00000" pt_clust_6="13000.00000" pt_clust_7="13000.00000" pt_clust_8="13000.00000" pt_clust_9="25.30068"></scales>
<clustering>
<clus scale="   25.301">  2  9  1 -1</clus>
<clus scale="   89.979">  5  6 -1 -1</clus>
<clus scale="   90.074">  2  5  1 -1</clus>
<clus scale="   91.345">  7  8 -1 -1</clus>
<clus scale="   25.301">  2  5  1 -1</clus>
</clustering>
</event>
<event>
 9    1  0.1426358E-005  0.9883681E+02  0.7546771E-02  0.1284569E+00
          1   -1    0    0  502    0 -0.00000000000E+00  0.00000000000E+00  0.20448583973E+03  0.20448583973E+03  0.00000000000E+00 0. -1.
         21   -1    0    0  501  502  0.00000000000E+00 -0.00000000000E+00 -0.26086646814E+03  0.26086646814E+03  0.00000000000E+00 0. -1.
         23    2    1    2    0    0  0.33714040154E+01 -0.38737847008E+02  0.16106763689E+03  0.18925966992E+03  0.91457377222E+02 0.  0.
         23    2    1    2    0    0  0.16015191030E+02  0.30494270249E+02 -0.48993948707E+02  0.10632617071E+03  0.87854770533E+02 0.  0.
        -11    1    3    3    0    0 -0.35935976194E+02 -0.40159451375E+02  0.59163660596E+02  0.80028211618E+02  0.00000000000E+00 0. -1.
         11    1    3    3    0    0  0.39307380209E+02  0.14216043668E+01  0.10190397629E+03  0.10923145830E+03  0.00000000000E+00 0.  1.
        -13    1    4    4    0    0  0.27102429944E+02 -0.91269232609E+01 -0.57585316205E+02  0.64295498128E+02  0.00000000000E+00 0.  1.
         13    1    4    4    0    0 -0.11087238915E+02  0.39621193510E+02  0.85913674980E+01  0.42030672578E+02  0.00000000000E+00 0. -1.
          1    1    1    2  501    0 -0.19386595045E+02  0.82435767587E+01 -0.16845431659E+03  0.16976646725E+03  0.00000000000E+00 0. -1.
<scales pt_clust_5="13000.00000" pt_clust_6="13000.00000" pt_clust_7="13000.00000" pt_clust_8="13000.00000" pt_clust_9="21.06648"></scales>
<clustering>
<clus scale="   21.066">  2  9  1 -1</clus>
<clus scale="   87.855">  7  8 -1 -1</clus>
<clus scale="   91.457">  5  6 -1 -1</clus>
<clus scale="   95.513">  2  7  1 -1</clus>
<clus scale="   21.066">  2  5  1 -1</clus>
</clustering>
</event>
<event>
 9    1  0.1426358E-005  0.1003082E+03  0.7546771E-02  0.1282941E+00
         -3   -1    0    0    0  501 -0.00000000000E+00  0.00000000000E+00  0.39079406771E+03  0.39079406771E+03  0.00000000000E+00 0.  1.
         21   -1    0    0  501  502  0.00000000000E+00 -0.00000000000E+00 -0.83212000770E+02  0.83212000770E+02  0.00000000000E+00 0.  1.
         23    2    1    2    0    0  0.30554488417E+02 -0.31936841374E+02  0.24140601730E+03  0.26393842876E+03  0.97124097881E+02 0.  0.
         23    2    1    2    0    0 -0.10517586017E+02 -0.35553072653E+02  0.92564771622E+02  0.13488299634E+03  0.90832511615E+02 0.  0.
        -11    1    3    3    0    0  0.42371012543E+02  0.13201749945E+02  0.18732784460E+03  0.19251314310E+03  0.00000000000E+00 0. -1.
         11    1    3    3    0    0 -0.11816524125E+02 -0.45138591319E+02  0.54078172699E+02  0.71425285656E+02  0.00000000000E+00 0.  1.
        -13    1    4    4    0    0 -0.40333370417E+02  0.39403243687E+01  0.15686222695E+02  0.43455316219E+02  0.00000000000E+00 0. -1.
         13    1    4    4    0    0  0.29815784399E+02 -0.39493397021E+02  0.76878548927E+02  0.91427680123E+02  0.00000000000E+00 0.  1.
         -3    1    1    2    0  502 -0.20036902400E+02  0.67489914027E+02 -0.26388721974E+02  0.75184643382E+02  0.00000000000E+00 0.  1.
<scales pt_clust_5="13000.00000" pt_clust_6="13000.00000" pt_clust_7="13000.00000" pt_clust_8="13000.00000" pt_clust_9="70.40146"></scales>
<clustering>
<clus scale="   70.401">  2  9  1 -1</clus>
<clus scale="   90.833">  7  8 -1 -1</clus>
<clus scale="   94.229">  2  7  1 -1</clus>
<clus scale="   97.124">  5  6 -1 -1</clus>
<clus scale="   70.401">  2  5  1 -1</clus>
</clustering>
</event>
<event>
 9    1  0.1426358E-005  0.1304490E+03  0.7546771E-02  0.1227233E+00
          2   -1    0    0  502    0 -0.00000000000E+00  0.00000000000E+00  0.74954556619E+03  0.74954556619E+03  0.00000000000E+00 0. -1.
         21   -1    0    0  501  502  0.00000000000E+00 -0.00000000000E+00 -0.45787985293E+02  0.45787985293E+02  0.00000000000E+00 0. -1.
         23    2    1    2    0    0 -0.84859290596E+02  0.91258850888E+01  0.52104285612E+03  0.53587295969E+03  0.91595797038E+02 0.  0.
         23    2    1    2    0    0  0.10975848384E+03 -0.26534043912E+02  0.17483840285E+03  0.22807508137E+03  0.93267332803E+02 0.  0.
        -11    1    4    4    0    0  0.19519927095E+02  0.24681866461E+02  0.94910015059E+01  0.32867935673E+02  0.00000000000E+00 0.  1.
         11    1    4    4    0    0  0.90238556743E+02 -0.51215910373E+02  0.16534740135E+03  0.19520714570E+03  0.00000000000E+00 0. -1.
        -13    1    3    3    0    0 -0.12042858540E+02 -0.36423814502E+02  0.19275129549E+03  0.19653189720E+03  0.00000000000E+00 0. -1.
         13    1    3    3    0    0 -0.72816432055E+02  0.45549699591E+02  0.32829156062E+03  0.33934106248E+03  0.00000000000E+00 0.  1.
          2    1    1    2  501    0 -0.24899193242E+02  0.17408158823E+02  0.78763219283E+01  0.31385510428E+02  0.00000000000E+00 0. -1.
<scales pt_clust_5="13000.00000" pt_clust_6="13000.00000" pt_clust_7="13000.00000" pt_clust_8="13000.00000" pt_clust_9="30.38114"></scales>
<clustering>
<clus scale="   30.381">  2  9  1 -1</clus>
<clus scale="   91.596">  7  8 -1 -1</clus>
<clus scale="   93.267">  5  6 -1 -1</clus>
<clus scale="  129.259">  1  7  2 -1</clus>
<clus scale="   30.381">  2  5  1 -1</clus>
</clustering>
</event>
<event>
 9    1  0.1426358E-005  0.1016866E+03  0.7546771E-02  0.1277561E+00
         21   -1    0    0  501  502  0.00000000000E+00  0.00000000000E+00  0.85504545108E+02  0.85504545108E+02  0.00000000000E+00 0.  1.
          1   -1    0    0  502    0 -0.00000000000E+00 -0.00000000000E+00 -0.57595907032E+03  0.57595907032E+03  0.00000000000E+00 0. -1.
         23    2    1    2    0    0  0.38421505568E+02 -0.53195452407E+02 -0.37442355603E+03  0.39076235893E+03  0.90533162963E+02 0.  0.
         23    2    1    2    0    0  0.44382350797E+02  0.17051025222E+02 -0.14277959355E+03  0.17647606267E+03  0.92180571921E+02 0.  0.
        -11    1    4    4    0    0  0.40359132085E+02  0.53383299542E+02 -0.86473609441E+02  0.10934496487E+03  0.00000000000E+00 0. -1.
         11    1    4    4    0    0  0.40232187125E+01 -0.36332274320E+02 -0.56305984104E+02  0.67131097801E+02  0.00000000000E+00 0.  1.
        -13    1    3    3    0    0 -0.27914840515E+01 -0.61047648054E+02 -0.29141556127E+03  0.29775432334E+03  0.00000000000E+00 0. -1.
         13    1    3    3    0    0  0.41212989619E+02  0.78521956470E+01 -0.83007994764E+02  0.93008035591E+02  0.00000000000E+00 0.  1.
          1    1    1    2  501    0 -0.82803856365E+02  0.36144427184E+02  0.26748624371E+02  0.94225193824E+02  0.00000000000E+00 0. -1.
<scales pt_clust_5="13000.00000" pt_clust_6="13000.00000" pt_clust_7="13000.00000" pt_clust_8="13000.00000" pt_clust_9="90.34876"></scales>
<clustering>
<clus scale="   90.349">  1  9  2 -1</clus>
<clus scale="   90.533">  7  8 -1 -1</clus>
<clus scale="   92.181">  5  6 -1 -1</clus>
<clus scale="  100.196">  2  7  1 -1</clus>
<clus scale="   90.349">  1  5  2 -1</clus>
</clustering>
</event>
<event>
 9    1  0.1426358E-005  0.9547736E+02  0.7546771E-02  0.1290956E+00
          3   -1    0    0  502    0 -0.00000000000E+00  0.00000000000E+00  0.15030721825E+03  0.15030721825E+03  0.00000000000E+00 0. -1.
         21   -1    0    0  501  502  0.00000000000E+00 -0.00000000000E+00 -0.90049916603E+02  0.90049916603E+02  0.00000000000E+00 0.  1.
         23    2    1    2    0    0  0.17782768729E+02  0.16831745220E+02  0.44304437419E+02  0.10362805931E+03  0.90423210458E+02 0.  0.
         23    2    1    2    0    0  0.62599606923E+01 -0.36349030464E+02 -0.51689768350E+01  0.99244286218E+02  0.91990602247E+02 0.  0.
        -11    1    4    4    0    0 -0.21623475226E+02 -0.15358642705E+02  0.36354650963E+02  0.45001369238E+02  0.00000000000E+00 0. -1.
         11    1    4    4    0    0  0.27883435919E+02 -0.20990387759E+02 -0.41523627798E+02  0.54242916980E+02  0.00000000000E+00 0.  1.
        -11    1    3    3    0    0  0.35292156559E+02 -0.27041118716E+02  0.32104535812E+02  0.54840310317E+02  0.00000000000E+00 0.  1.
         11    1    3    3    0    0 -0.17509387830E+02  0.43872863935E+02  0.12199901606E+02  0.48787748988E+02  0.00000000000E+00 0. -1.
          3    1    1    2  501    0 -0.24042729422E+02  0.19517285245E+02  0.21121841066E+02  0.37484789333E+02  0.00000000000E+00 0. -1.
<scales pt_clust_5="13000.00000" pt_clust_6="13000.00000" pt_clust_7="13000.00000" pt_clust_8="13000.00000" pt_clust_9="30.96737"></scales>
<clustering>
<clus scale="   30.967">  2  9  1 -1</clus>
<clus scale="   90.423">  7  8 -1 -1</clus>
<clus scale="   91.991">  5  6 -1 -1</clus>
<clus scale="   93.968">  1  7  2 -1</clus>
<clus scale="   30.967">  2  5  1 -1</clus>
</clustering>
</event>
<event>
 9    1  0.1426358E-005  0.1506402E+03  0.7546771E-02  0.1216293E+00
          2   -1    0    0  502    0 -0.00000000000E+00  0.00000000000E+00  0.38703865296E+03  0.38703865296E+03  0.00000000000E+00 0. -1.
         21   -1    0    0  501  502  0.00000000000E+00 -0.00000000000E+00 -0.27305957339E+03  0.27305957339E+03  0.00000000000E+00 0. -1.
         23    2    1    2    0    0 -0.54507955378E+02 -0.10547354996E+02  0.20772351451E+03  0.23299805341E+03  0.89758957850E+02 0.  0.
         23    2    1    2    0    0 -0.30395007001E+02 -0.81671645377E+02  0.12378065615E+03  0.17604236624E+03  0.89861837080E+02 0.  0.
        -11    1    4    4    0    0  0.30187593279E+02 -0.41770937187E+02  0.40129896879E+02  0.65318531865E+02  0.00000000000E+00 0.  1.
         11    1    4    4    0    0 -0.60582600281E+02 -0.39900708190E+02  0.83650759275E+02  0.11072383437E+03  0.00000000000E+00 0. -1.
        -13    1    3    3    0    0 -0.40590401622E+02  0.11345336598E+02  0.20210741589E+03  0.20645509179E+03  0.00000000000E+00 0. -1.
         13    1    3    3    0    0 -0.13917553756E+02 -0.21892691594E+02  0.56160986163E+01  0.26542961618E+02  0.00000000000E+00 0.  1.
          2    1    1    2  501    0  0.84902962380E+02  0.92219000373E+02 -0.21752509110E+03  0.25105780670E+03  0.00000000000E+00 0. -1.
<scales pt_clust_5="13000.00000" pt_clust_6="13000.00000" pt_clust_7="13000.00000" pt_clust_8="13000.00000" pt_clust_9="120.90207"></scales>
<clustering>
<clus scale="   89.759">  7  8 -1 -1</clus>
<clus scale="   89.862">  5  6 -1 -1</clus>
<clus scale="  105.542">  1  7  2 -1</clus>
<clus scale="  120.902">  2  9  1 -1</clus>
<clus scale="  120.902">  2  5  1 -1</clus>
</clustering>
</event>
<event>
 9    1  0.1426358E-005  0.9477495E+02  0.7546771E-02  0.1293861E+00
         21   -1    0    0  501  502  0.00000000000E+00  0.00000000000E+00  0.16456159061E+03  0.16456159061E+03  0.00000000000E+00 0. -1.
          3   -1    0    0  502    0 -0.00000000000E+00 -0.00000000000E+00 -0.13846485311E+03  0.13846485311E+03  0.00000000000E+00 0. -1.
         23    2    1    2    0    0  0.28386932890E+02  0.42228933631E+02 -0.66961379303E+02  0.12089561346E+03  0.86849422797E+02 0.  0.
         23    2    1    2    0    0 -0.98836449231E+01 -0.14224341110E+02  0.14048658709E+01  0.84524748113E+02  0.82719049066E+02 0.  0.
        -13    1    3    3    0    0 -0.29728232376E+02  0.17673483149E+02 -0.10272434508E+02  0.36078285956E+02  0.00000000000E+00 0.  1.
         13    1    3    3    0    0  0.58115165266E+02  0.24555450482E+02 -0.56688944795E+02  0.84817327500E+02  0.00000000000E+00 0. -1.
        -13    1    4    4    0    0  0.26401246771E+02  0.19796519134E+02 -0.78785574698E+01  0.33926386025E+02  0.00000000000E+00 0.  1.
         13    1    4    4    0    0 -0.36284891694E+02 -0.34020860244E+02  0.92834233407E+01  0.50598362088E+02  0.00000000000E+00 0. -1.
          3    1    1    2  501    0 -0.18503287967E+02 -0.28004592521E+02  0.91653250929E+02  0.97606082155E+02  0.00000000000E+00 0. -1.
<scales pt_clust_5="13000.00000" pt_clust_6="13000.00000" pt_clust_7="13000.00000" pt_clust_8="13000.00000" pt_clust_9="33.56529"></scales>
<clustering>
<clus scale="   33.565">  1  9  2 -1</clus>
<clus scale="   82.719">  7  8 -1 -1</clus>
<clus scale="   86.849">  5  6 -1 -1</clus>
<clus scale="   91.005">  1  7  2 -1</clus>
<clus scale="   33.565">  1  5  2 -1</clus>
</clustering>
</event>
<event>
 9    1  0.1426358E-005  0.1009955E+03  0.7546771E-02  0.1279019E+00
         21   -1    0    0  501  502  0.00000000000E+00  0.00000000000E+00  0.92286765353E+02  0.92286765353E+02  0.00000000000E+00 0.  1.
          1   -1    0    0  502    0 -0.00000000000E+00 -0.00000000000E+00 -0.31925883663E+03  0.31925883663E+03  0.00000000000E+00 0. -1.
         23    2    1    2    0    0  0.49982186582E+02 -0.11071155802E+01 -0.16335011984E+03  0.19351914639E+03  0.90922789708E+02 0.  0.
         23    2    1    2    0    0 -0.29431253794E+02 -0.19760369385E+01 -0.12204823393E+03  0.15601454420E+03  0.92599477181E+02 0.  0.
        -11    1    3    3    0    0  0.51657096106E+02  0.21146968854E+02 -0.41275362339E+02  0.69421217261E+02  0.00000000000E+00 0.  1.
         11    1    3    3    0    0 -0.16749095239E+01 -0.22254084434E+02 -0.12207475750E+03  0.12409792913E+03  0.00000000000E+00 0. -1.
        -11    1    4    4    0    0 -0.12139354578E+02 -0.22891117707E+02 -0.12595915543E+03  0.12859656308E+03  0.00000000000E+00 0. -1.
         11    1    4    4    0    0 -0.17291899216E+02  0.20915080769E+02  0.39109214925E+01  0.27417981125E+02  0.00000000000E+00 0.  1.
          1    1    1    2  501    0 -0.20550932787E+02  0.30831525187E+01  0.58426282496E+02  0.62011911389E+02  0.00000000000E+00 0. -1.
<scales pt_clust_5="13000.00000" pt_clust_6="13000.00000" pt_clust_7="13000.00000" pt_clust_8="13000.00000" pt_clust_9="20.78092"></scales>
<clustering>
<clus scale="   20.781">  1  9  2 -1</clus>
<clus scale="   90.923">  5  6 -1 -1</clus>
<clus scale="   92.599">  7  8 -1 -1</clus>
<clus scale="   99.460">  2  5  1 -1</clus>
<clus scale="   20.781">  1  5  2 -1</clus>
</clustering>
</event>
<event>
 9    1  0.1426358E-005  0.1001284E+03  0.7546771E-02  0.1281010E+00
          1   -1    0    0  502    0 -0.00000000000E+00  0.00000000000E+00  0.31662207940E+02  0.31662207940E+02  0.00000000000E+00 0. -1.
         21   -1    0    0  501  502  0.00000000000E+00 -0.00000000000E+00 -0.47239911047E+03  0.47239911047E+03  0.00000000000E+00 0.  1.
         23    2    1    2    0    0 -0.25772467772E+02 -0.10356273207E+02 -0.16724843466E+03  0.19434080274E+03  0.94999138017E+02 0.  0.
         23    2    1    2    0    0  0.40074584182E+02 -0.63118738408E+01 -0.26871319940E+03  0.28724428714E+03  0.93041307563E+02 0.  0.
        -11    1    3    3    0    0 -0.39256791275E+02 -0.44189969948E+02 -0.12686449700E+03  0.13995874287E+03  0.00000000000E+00 0. -1.
         11    1    3    3    0    0  0.13484323502E+02  0.33833696741E+02 -0.40383937660E+02  0.54382059876E+02  0.00000000000E+00 0.  1.
        -13    1    4    4    0    0 -0.16144880725E+02  0.20837736413E+02 -0.27544447508E+02  0.38125647810E+02  0.00000000000E+00 0. -1.
         13    1    4    4    0    0  0.56219464907E+02 -0.27149610254E+02 -0.24116875189E+03  0.24911863933E+03  0.00000000000E+00 0.  1.
          1    1    1    2  501    0 -0.14302116410E+02  0.16668147048E+02 -0.47752684643E+01  0.22476228525E+02  0.00000000000E+00 0. -1.
<scales pt_clust_5="13000.00000" pt_clust_6="13000.00000" pt_clust_7="13000.00000" pt_clust_8="13000.00000" pt_clust_9="21.96311"></scales>
<clustering>
<clus scale="   21.963">  2  9  1 -1</clus>
<clus scale="   93.041">  7  8 -1 -1</clus>
<clus scale="   94.999">  5  6 -1 -1</clus>
<clus scale="   98.273">  2  7  1 -1</clus>
<clus scale="   21.963">  2  5  1 -1</clus>
</clustering>
</event>
<event>
 9    1  0.1426358E-005  0.1770004E+03  0.7546771E-02  0.1170830E+00
         21   -1    0    0  501  502  0.00000000000E+00  0.00000000000E+00  0.15118093155E+03  0.15118093155E+03  0.00000000000E+00 0.  1.
          3   -1    0    0  502    0 -0.00000000000E+00 -0.00000000000E+00 -0.32108933870E+03  0.32108933870E+03  0.00000000000E+00 0. -1.
         23    2    1    2    0    0 -0.14786410237E+03 -0.55204712611E+02 -0.15146332543E+03  0.23636475938E+03  0.89531041893E+02 0.  0.
         23    2    1    2    0    0  0.13212488795E+03  0.41073088055E+02  0.43180346144E+02  0.17075093281E+03  0.90262695430E+02 0.  0.
        -11    1    3    3    0    0 -0.13580435695E+03 -0.12682868033E+02 -0.12394919423E+03  0.18430160406E+03  0.00000000000E+00 0. -1.
         11    1    3    3    0    0 -0.12059745411E+02 -0.42521844577E+02 -0.27514131192E+02  0.52063155311E+02  0.00000000000E+00 0.  1.
        -13    1    4    4    0    0  0.68562939631E+02  0.63197482187E+02  0.44754837344E+02  0.10343014025E+03  0.00000000000E+00 0.  1.
         13    1    4    4    0    0  0.63561948316E+02 -0.22124394132E+02 -0.15744911998E+01  0.67320792568E+02  0.00000000000E+00 0. -1.
          3    1    1    2  501    0  0.15739214418E+02  0.14131624556E+02 -0.61625427868E+02  0.65154578067E+02  0.00000000000E+00 0. -1.
<scales pt_clust_5="13000.00000" pt_clust_6="13000.00000" pt_clust_7="13000.00000" pt_clust_8="13000.00000" pt_clust_9="21.15245"></scales>
<clustering>
<clus scale="   21.152">  1  9  2 -1</clus>
<clus scale="   89.531">  5  6 -1 -1</clus>
<clus scale="   90.263">  7  8 -1 -1</clus>
<clus scale="  176.628">  2  5  1 -1</clus>
<clus scale="   21.152">  1  5  2 -1</clus>
</clustering>
</event>
<event>
 9    1  0.1426358E-005  0.1236047E+03  0.7546771E-02  0.1242299E+00
         21   -1    0    0  501  502  0.00000000000E+00  0.00000000000E+00  0.25241518733E+03  0.25241518733E+03  0.00000000000E+00 0. -1.
          1   -1    0    0  502    0 -0.00000000000E+00 -0.00000000000E+00 -0.24414833000E+03  0.24414833000E+03  0.00000000000E+00 0. -1.
         23    2    1    2    0    0  0.56862306037E+02 -0.47083436607E+02 -0.17702823573E+03  0.20828589450E+03  0.81202498423E+02 0.  0.
         23    2    1    2    0    0 -0.65038975583E+02  0.65382391983E+02  0.37368108242E+02  0.13899901575E+03  0.97053723989E+02 0.  0.
        -13    1    4    4    0    0 -0.24614254579E+02 -0.17680010353E+02 -0.13908261601E+02  0.33344925181E+02  0.00000000000E+00 0. -1.
         13    1    4    4    0    0 -0.40424721004E+02  0.83062402336E+02  0.51276369843E+02  0.10565409057E+03  0.00000000000E+00 0.  1.
        -13    1    3    3    0    0  0.27149701654E+02 -0.23404372046E+02 -0.16437869472E+03  0.16824157099E+03  0.00000000000E+00 0. -1.
         13    1    3    3    0    0  0.29712604382E+02 -0.23679064561E+02 -0.12649541014E+02  0.40044323512E+02  0.00000000000E+00 0.  1.
          1    1    1    2  501    0  0.81766695466E+01 -0.18298955376E+02  0.14792698482E+03  0.14927860708E+03  0.00000000000E+00 0. -1.
<scales pt_clust_5="13000.00000" pt_clust_6="13000.00000" pt_clust_7="13000.00000" pt_clust_8="13000.00000" pt_clust_9="20.04270"></scales>
<clustering>
<clus scale="   20.043">  1  9  2 -1</clus>
<clus scale="   81.202">  7  8 -1 -1</clus>
<clus scale="   97.054">  5  6 -1 -1</clus>
<clus scale="  111.591">  2  7  1 -1</clus>
<clus scale="   20.043">  1  5  2 -1</clus>
</clustering>
</event>
<event>
 9    1  0.1426358E-005  0.1109352E+03  0.7546771E-02  0.1259675E+00
          2   -1    0    0  502    0 -0.00000000000E+00  0.00000000000E+00  0.56628643793E+02  0.56628643793E+02  0.00000000000E+00 0. -1.
         21   -1    0    0  501  502  0.00000000000E+00 -0.00000000000E+00 -0.55448394381E+03  0.55448394381E+03  0.00000000000E+00 0.  1.
         23    2    1    2    0    0  0.56581874668E+02  0.32548649813E+01 -0.29962697208E+02  0.11663347020E+03  0.97434595805E+02 0.  0.
         23    2    1    2    0    0 -0.86935500256E+01 -0.22734098617E+02 -0.36835825003E+03  0.38231932263E+03  0.99437654038E+02 0.  0.
        -11    1    4    4    0    0  0.35064689557E+00 -0.61938898840E+02 -0.21151723738E+03  0.22039984539E+03  0.00000000000E+00 0.  1.
         11    1    4    4    0    0 -0.90441969212E+01  0.39204800223E+02 -0.15684101265E+03  0.16191947724E+03  0.00000000000E+00 0. -1.
        -11    1    3    3    0    0  0.35859236204E+02 -0.10608171969E+02 -0.64189863700E+02  0.74288335124E+02  0.00000000000E+00 0.  1.
         11    1    3    3    0    0  0.20722638464E+02  0.13863036950E+02  0.34227166493E+02  0.42345135075E+02  0.00000000000E+00 0. -1.
          2    1    1    2  501    0 -0.47888324643E+02  0.19479233636E+02 -0.99534352783E+02  0.11215979477E+03  0.00000000000E+00 0. -1.
<scales pt_clust_5="13000.00000" pt_clust_6="13000.00000" pt_clust_7="13000.00000" pt_clust_8="13000.00000" pt_clust_9="51.69847"></scales>
<clustering>
<clus scale="   51.698">  2  9  1 -1</clus>
<clus scale="   97.435">  7  8 -1 -1</clus>
<clus scale="   99.438">  5  6 -1 -1</clus>
<clus scale="  109.143">  1  7  2 -1</clus>
<clus scale="   51.698">  2  5  1 -1</clus>
</clustering>
</event>
<event>
 9    1  0.1426358E-005  0.9610977E+02  0.7546771E-02  0.1289095E+00
          2   -1    0    0  502    0 -0.00000000000E+00  0.00000000000E+00  0.23122701846E+03  0.23122701846E+03  0.00000000000E+00 0. -1.
         21   -1    0    0  501  502  0.00000000000E+00 -0.00000000000E+00 -0.64496285196E+02  0.64496285196E+02  0.00000000000E+00 0. -1.
         23    2    1    2    0    0  0.16723539846E+02 -0.49565626816E+02  0.14071029063E+03  0.17207435750E+03  0.84105710121E+02 0.  0.
         23    2    1    2    0    0  0.18732567144E+01  0.32102626268E+02  0.33939318380E+02  0.96937416368E+02  0.84917004516E+02 0.  0.
        -13    1    4    4    0    0 -0.38114841115E+02  0.19598269882E+02 -0.25226492673E+00  0.42859035608E+02  0.00000000000E+00 0. -1.
         13    1    4    4    0    0  0.39988097830E+02  0.12504356386E+02  0.34191583306E+02  0.54078380760E+02  0.00000000000E+00 0.  1.
        -13    1    3    3    0    0 -0.94749809548E+00 -0.60054603332E+02  0.13903865115E+03  0.15145692340E+03  0.00000000000E+00 0. -1.
         13    1    3    3    0    0  0.17671037942E+02  0.10488976516E+02  0.16716394798E+01  0.20617434099E+02  0.00000000000E+00 0.  1.
          2    1    1    2  501    0 -0.18596796561E+02  0.17463000548E+02 -0.79188757420E+01  0.26711529785E+02  0.00000000000E+00 0. -1.
<scales pt_clust_5="13000.00000" pt_clust_6="13000.00000" pt_clust_7="13000.00000" pt_clust_8="13000.00000" pt_clust_9="25.51073"></scales>
<clustering>
<clus scale="   25.511">  2  9  1 -1</clus>
<clus scale="   84.106">  7  8 -1 -1</clus>
<clus scale="   84.917">  5  6 -1 -1</clus>
<clus scale="   95.394">  1  7  2 -1</clus>
<clus scale="   25.511">  2  5  1 -1</clus>
</clustering>
</event>
<event>
 9    1  0.1426358E-005  0.1098887E+03  0.7546771E-02  0.1261067E+00
         21   -1    0    0  501  502  0.00000000000E+00  0.00000000000E+00  0.67069997785E+02  0.67069997785E+02  0.00000000000E+00 0. -1.
          1   -1    0    0  502    0 -0.00000000000E+00 -0.00000000000E+00 -0.45741926680E+03  0.45741926680E+03  0.00000000000E+00 0. -1.
         23    2    1    2    0    0  0.58866312652E+02 -0.23008572902E+02 -0.24766387758E+03  0.27162282517E+03  0.91907158065E+02 0.  0.
         23    2    1    2    0    0 -0.39657700510E+02  0.45569936956E+02 -0.17667081603E+03  0.20777769344E+03  0.91157228400E+02 0.  0.
        -11    1    3    3    0    0 -0.16140236174E+02 -0.29422206205E+02 -0.51075525672E+02  0.61113687210E+02  0.00000000000E+00 0.  1.
         11    1    3    3    0    0  0.75006548827E+02  0.64136333033E+01 -0.19658835191E+03  0.21050913796E+03  0.00000000000E+00 0. -1.
        -13    1    4    4    0    0  0.17305089710E+02  0.21759538509E+02 -0.12258655592E+03  0.12569967119E+03  0.00000000000E+00 0. -1.
         13    1    4    4    0    0 -0.56962790220E+02  0.23810398447E+02 -0.54084260114E+02  0.82078022247E+02  0.00000000000E+00 0.  1.
          1    1    1    2  501    0 -0.19208612142E+02 -0.22561364054E+02  0.33985424598E+02  0.45088745974E+02  0.00000000000E+00 0. -1.
<scales pt_clust_5="13000.00000" pt_clust_6="13000.00000" pt_clust_7="13000.00000" pt_clust_8="13000.00000" pt_clust_9="29.63083"></scales>
<clustering>
<clus scale="   29.631">  1  9  2 -1</clus>
<clus scale="   91.157">  7  8 -1 -1</clus>
<clus scale="   91.907">  5  6 -1 -1</clus>
<clus scale="  109.262">  1  7  2 -1</clus>
<clus scale="   29.631">  1  5  2 -1</clus>
</clustering>
</event>
<event>
 9    1  0.1426358E-005  0.9780693E+02  0.7546771E-02  0.1285859E+00
          1   -1    0    0  502    0 -0.00000000000E+00  0.00000000000E+00  0.45385594027E+03  0.45385594027E+03  0.00000000000E+00 0. -1.
         21   -1    0    0  501  502  0.00000000000E+00 -0.00000000000E+00 -0.61395141892E+02  0.61395141892E+02  0.00000000000E+00 0. -1.
         23    2    1    2    0    0 -0.21185849650E+02  0.28295596247E+02  0.28572116371E+03  0.30211255542E+03  0.91574733164E+02 0.  0.
         23    2    1    2    0    0 -0.87534961627E+01 -0.25744454449E+02  0.13865464127E+03  0.16930428900E+03  0.93270746214E+02 0.  0.
        -11    1    3    3    0    0 -0.46042934821E+02  0.42038281431E+02  0.13450957351E+03  0.14825651527E+03  0.00000000000E+00 0.  1.
         11    1    3    3    0    0  0.24857085171E+02 -0.13742685184E+02  0.15121159020E+03  0.15385604015E+03  0.00000000000E+00 0. -1.
        -13    1    4    4    0    0 -0.19952518315E+02  0.26276740182E+02  0.18342020201E+02  0.37749169087E+02  0.00000000000E+00 0.  1.
         13    1    4    4    0    0  0.11199022152E+02 -0.52021194631E+02  0.12031262106E+03  0.13155511991E+03  0.00000000000E+00 0. -1.
          1    1    1    2  501    0  0.29939345812E+02 -0.25511417974E+01 -0.31915006603E+02  0.43834237744E+02  0.00000000000E+00 0. -1.
<scales pt_clust_5="13000.00000" pt_clust_6="13000.00000" pt_clust_7="13000.00000" pt_clust_8="13000.00000" pt_clust_9="30.04784"></scales>
<clustering>
<clus scale="   30.048">  2  9  1 -1</clus>
<clus scale="   91.575">  5  6 -1 -1</clus>
<clus scale="   93.271">  7  8 -1 -1</clus>
<clus scale="   96.191">  1  5  2 -1</clus>
<clus scale="   30.048">  2  5  1 -1</clus>
</clustering>
</event>
<event>
 9    1  0.1426358E-005  0.1077691E+03  0.7546771E-02  0.1264813E+00
         -1   -1    0    0    0  501 -0.00000000000E+00  0.00000000000E+00  0.28700642108E+03  0.28700642108E+03  0.00000000000E+00 0.  1.
         21   -1    0    0  501  502  0.00000000000E+00 -0.00000000000E+00 -0.11151476924E+03  0.11151476924E+03  0.00000000000E+00 0. -1.
         23    2    1    2    0    0  0.59266745203E+02  0.12886742046E+02  0.22166492580E+03  0.24769049195E+03  0.92393859454E+02 0.  0.
         23    2    1    2    0    0 -0.33158972633E+02 -0.97681198358E+01 -0.12553023178E+01  0.98782972490E+02  0.92528731964E+02 0.  0.
        -11    1    3    3    0    0  0.32508271101E+02 -0.38449656779E+02  0.78455962397E+02  0.93222861102E+02  0.00000000000E+00 0.  1.
         11    1    3    3    0    0  0.26758474102E+02  0.51336398826E+02  0.14320896340E+03  0.15446763085E+03  0.00000000000E+00 0. -1.
        -13    1    4    4    0    0 -0.23569984464E+02  0.17775202261E+02  0.39099436571E+02  0.48992529260E+02  0.00000000000E+00 0.  1.
         13    1    4    4    0    0 -0.95889881687E+01 -0.27543322097E+02 -0.40354738889E+02  0.49790443230E+02  0.00000000000E+00 0. -1.
         -1    1    1    2    0  502 -0.26107772570E+02 -0.31186222106E+01 -0.44917971645E+02  0.52047725884E+02  0.00000000000E+00 0.  1.
<scales pt_clust_5="13000.00000" pt_clust_6="13000.00000" pt_clust_7="13000.00000" pt_clust_8="13000.00000" pt_clust_9="26.29338"></scales>
<clustering>
<clus scale="   26.293">  2  9  1 -1</clus>
<clus scale="   92.394">  5  6 -1 -1</clus>
<clus scale="   92.529">  7  8 -1 -1</clus>
<clus scale="  107.653">  1  5  2 -1</clus>
<clus scale="   26.293">  2  5  1 -1</clus>
</clustering>
</event>
<event>
 9    1  0.1426358E-005  0.1284475E+03  0.7546771E-02  0.1230374E+00
         -1   -1    0    0    0  501 -0.00000000000E+00  0.00000000000E+00  0.76448825303E+02  0.76448825303E+02  0.00000000000E+00 0.  1.
         21   -1    0    0  501  502  0.00000000000E+00 -0.00000000000E+00 -0.46867810637E+03  0.46867810637E+03  0.00000000000E+00 0. -1.
         23    2    1    2    0    0 -0.72661140838E+02 -0.57787842443E+02 -0.23884359137E+02  0.13140994875E+03  0.89883457305E+02 0.  0.
         23    2    1    2    0    0  0.84522849352E+02  0.11286379871E+02 -0.32740658441E+03  0.35063740121E+03  0.92087030461E+02 0.  0.
        -11    1    4    4    0    0 -0.25634322777E+01  0.35044106429E+02 -0.85609319186E+02  0.92539808255E+02  0.00000000000E+00 0.  1.
         11    1    4    4    0    0  0.87086281630E+02 -0.23757726558E+02 -0.24179726523E+03  0.25809759296E+03  0.00000000000E+00 0. -1.
        -13    1    3    3    0    0 -0.16310390855E+02 -0.36933913921E+02 -0.51368637108E+02  0.65336664483E+02  0.00000000000E+00 0. -1.
         13    1    3    3    0    0 -0.56350749982E+02 -0.20853928521E+02  0.27484277970E+02  0.66073284268E+02  0.00000000000E+00 0.  1.
         -1    1    1    2    0  502 -0.11861708514E+02  0.46501462572E+02 -0.40938337519E+02  0.63079581712E+02  0.00000000000E+00 0.  1.
<scales pt_clust_5="13000.00000" pt_clust_6="13000.00000" pt_clust_7="13000.00000" pt_clust_8="13000.00000" pt_clust_9="47.99050"></scales>
<clustering>
<clus scale="   47.991">  2  9  1 -1</clus>
<clus scale="   89.883">  7  8 -1 -1</clus>
<clus scale="   92.087">  5  6 -1 -1</clus>
<clus scale="  126.877">  1  7  2 -1</clus>
<clus scale="   47.991">  2  5  1 -1</clus>
</clustering>
</event>
<event>
 9    1  0.1426358E-005  0.3883764E+03  0.7546771E-02  0.1047928E+00
         21   -1    0    0  501  502  0.00000000000E+00  0.00000000000E+00  0.81243133123E+03  0.81243133123E+03  0.00000000000E+00 0.  1.
         -2   -1    0    0    0  501 -0.00000000000E+00 -0.00000000000E+00 -0.28218387742E+03  0.28218387742E+03  0.00000000000E+00 0.  1.
         23    2    1    2    0    0 -0.31816229927E+03 -0.18955506495E+03 -0.15747127016E+02  0.38144611490E+03  0.89971080015E+02 0.  0.
         23    2    1    2    0    0  0.32158508491E+03  0.23674162949E+03  0.46939675306E+03  0.62313846255E+03  0.92220744745E+02 0.  0.
        -11    1    4    4    0    0  0.16492606751E+03  0.17645154531E+03  0.29122017013E+03  0.37834500536E+03  0.00000000000E+00 0.  1.
         11    1    4    4    0    0  0.15665901740E+03  0.60290084184E+02  0.17817658292E+03  0.24479345720E+03  0.00000000000E+00 0. -1.
        -11    1    3    3    0    0 -0.10515358348E+03 -0.17933904274E+02  0.73727554814E+01  0.10692641659E+03  0.00000000000E+00 0.  1.
         11    1    3    3    0    0 -0.21300871578E+03 -0.17162116067E+03 -0.23119882497E+02  0.27451969830E+03  0.00000000000E+00 0. -1.
         -2    1    1    2    0  502 -0.34227856428E+01 -0.47186564544E+02  0.76597827770E+02  0.90030631199E+02  0.00000000000E+00 0.  1.
<scales pt_clust_5="13000.00000" pt_clust_6="13000.00000" pt_clust_7="13000.00000" pt_clust_8="13000.00000" pt_clust_9="47.31054"></scales>
<clustering>
<clus scale="   47.311">  1  9  2 -1</clus>
<clus scale="   89.971">  7  8 -1 -1</clus>
<clus scale="   92.221">  5  6 -1 -1</clus>
<clus scale="  387.848">  2  7  1 -1</clus>
<clus scale="   47.311">  1  5  2 -1</clus>
</clustering>
</event>
<event>
 9    1  0.2417695E-005  0.8945541E+02  0.7546771E-02  0.1304823E+00
         -3   -1    0    0    0  501 -0.00000000000E+00  0.00000000000E+00  0.74730059805E+02  0.74730059805E+02  0.00000000000E+00 0.  1.
         21   -1    0    0  501  502  0.00000000000E+00 -0.00000000000E+00 -0.59606610685E+03  0.59606610685E+03  0.00000000000E+00 0.  1.
         23    2    1    2    0    0  0.26344586898E+01 -0.59016522447E+01  0.33784765685E+02  0.95276267992E+02  0.88850362849E+02 0.  0.
         23    2    1    2    0    0 -0.25836964043E+02  0.45754755565E+02 -0.32136378336E+03  0.33725749105E+03  0.87788881125E+02 0.  0.
        -13    1    4    4    0    0  0.24795555161E+02 -0.65421447401E+01 -0.48634125375E+02  0.54980881809E+02  0.00000000000E+00 0. -1.
         13    1    4    4    0    0 -0.50632519204E+02  0.52296900305E+02 -0.27272965798E+03  0.28227660924E+03  0.00000000000E+00 0.  1.
        -13    1    3    3    0    0 -0.28874447026E+02  0.29693786290E+02  0.18292504177E+02  0.45277702508E+02  0.00000000000E+00 0.  1.
         13    1    3    3    0    0  0.31508905716E+02 -0.35595438535E+02  0.15492261508E+02  0.49998565485E+02  0.00000000000E+00 0. -1.
         -3    1    1    2    0  502  0.23202505353E+02 -0.39853103320E+02 -0.23375702937E+03  0.23826240761E+03  0.00000000000E+00 0.  1.
<scales pt_clust_5="13000.00000" pt_clust_6="13000.00000" pt_clust_7="13000.00000" pt_clust_8="13000.00000" pt_clust_9="46.11536"></scales>
<clustering>
<clus scale="   46.115">  2  9  1 -1</clus>
<clus scale="   87.789">  5  6 -1 -1</clus>
<clus scale="   88.401">  2  5  1 -1</clus>
<clus scale="   88.850">  7  8 -1 -1</clus>
<clus scale="   46.115">  2  5  1 -1</clus>
</clustering>
</event>
<event>
 9    1  0.1426358E-005  0.1105495E+03  0.7546771E-02  0.1259925E+00
         21   -1    0    0  501  502  0.00000000000E+00  0.00000000000E+00  0.14524026147E+03  0.14524026147E+03  0.00000000000E+00 0. -1.
         -2   -1    0    0    0  501 -0.00000000000E+00 -0.00000000000E+00 -0.17363540135E+03  0.17363540135E+03  0.00000000000E+00 0.  1.
         23    2    1    2    0    0  0.29277703763E+02 -0.51120848277E+02 -0.89741209631E+02  0.14007112821E+03  0.89977281498E+02 0.  0.
         23    2    1    2    0    0 -0.59681664586E+01  0.78633789379E+02  0.16882536025E+02  0.12155680724E+03  0.90951335998E+02 0.  0.
        -11    1    4    4    0    0  0.34960900510E+02  0.18684247355E+02 -0.14855762441E+02  0.42332721875E+02  0.00000000000E+00 0.  1.
         11    1    4    4    0    0 -0.40929066968E+02  0.59949542024E+02  0.31738298466E+02  0.79224085361E+02  0.00000000000E+00 0. -1.
        -11    1    3    3    0    0  0.26456328666E+02 -0.74738527003E+02 -0.84192870482E+02  0.11564698087E+03  0.00000000000E+00 0.  1.
         11    1    3    3    0    0  0.28213750974E+01  0.23617678726E+02 -0.55483391494E+01  0.24424147337E+02  0.00000000000E+00 0. -1.
         -2    1    1    2    0  502 -0.23309537305E+02 -0.27512941102E+02  0.44463533726E+02  0.57247727368E+02  0.00000000000E+00 0.  1.
<scales pt_clust_5="13000.00000" pt_clust_6="13000.00000" pt_clust_7="13000.00000" pt_clust_8="13000.00000" pt_clust_9="36.05962"></scales>
<clustering>
<clus scale="   36.060">  1  9  2 -1</clus>
<clus scale="   89.977">  7  8 -1 -1</clus>
<clus scale="   90.951">  5  6 -1 -1</clus>
<clus scale="  109.750">  2  7  1 -1</clus>
<clus scale="   36.060">  1  5  2 -1</clus>
</clustering>
</event>
<event>
 9    1  0.1426358E-005  0.1756585E+03  0.7546771E-02  0.1202507E+00
         21   -1    0    0  501  502  0.00000000000E+00  0.00000000000E+00  0.11031882977E+03  0.11031882977E+03  0.00000000000E+00 0.  1.
         -1   -1    0    0    0  501 -0.00000000000E+00 -0.00000000000E+00 -0.57443650699E+03  0.57443650699E+03  0.00000000000E+00 0.  1.
         23    2    1    2    0    0  0.62947868156E+01 -0.12313487201E+02 -0.22067601342E+03  0.23808790674E+03  0.88298936192E+02 0.  0.
         23    2    1    2    0    0  0.29505633339E+02 -0.13609637462E+03 -0.24204123890E+03  0.29399418953E+03  0.91955514042E+02 0.  0.
        -11    1    4    4    0    0  0.51835941985E+02 -0.85651485911E+02 -0.20320410273E+03  0.22652825274E+03  0.00000000000E+00 0.  1.
         11    1    4    4    0    0 -0.22330308646E+02 -0.50444888711E+02 -0.38837136170E+02  0.67465936791E+02  0.00000000000E+00 0. -1.
        -13    1    3    3    0    0 -0.26859702811E+02 -0.12141123507E+01 -0.17855573656E+02  0.32275985105E+02  0.00000000000E+00 0.  1.
         13    1    3    3    0    0  0.33154489627E+02 -0.11099374851E+02 -0.20282043976E+03  0.20581192164E+03  0.00000000000E+00 0. -1.
         -1    1    1    2    0  502 -0.35800420154E+02  0.14840986182E+03 -0.14004248966E+01  0.15267324048E+03  0.00000000000E+00 0.  1.
<scales pt_clust_5="13000.00000" pt_clust_6="13000.00000" pt_clust_7="13000.00000" pt_clust_8="13000.00000" pt_clust_9="149.66654"></scales>
<clustering>
<clus scale="   88.299">  7  8 -1 -1</clus>
<clus scale="   89.375">  2  7  1 -1</clus>
<clus scale="   91.956">  5  6 -1 -1</clus>
<clus scale="  149.667">  1  9  2 -1</clus>
<clus scale="  149.667">  1  5  2 -1</clus>
</clustering>
</event>
<event>
 9    1  0.1426358E-005  0.1104207E+03  0.7546771E-02  0.1262681E+00
         21   -1    0    0  501  502  0.00000000000E+00  0.00000000000E+00  0.39078679375E+03  0.39078679375E+03  0.00000000000E+00 0. -1.
          4   -1    0    0  502    0 -0.00000000000E+00 -0.00000000000E+00 -0.78463764291E+02  0.78463764291E+02  0.00000000000E+00 0. -1.
         23    2    1    2    0    0 -0.72393181370E+00 -0.58984803528E+02  0.56066261317E+00  0.11410591417E+03  0.97673508079E+02 0.  0.
         23    2    1    2    0    0  0.17315674999E+02  0.35000199174E+02  0.97129224831E+02  0.13853916648E+03  0.90742315315E+02 0.  0.
        -13    1    3    3    0    0  0.42949445981E+02 -0.16944718633E+02  0.20182717385E+02  0.50389686253E+02  0.00000000000E+00 0.  1.
         13    1    3    3    0    0 -0.43673377795E+02 -0.42040084895E+02 -0.19622054772E+02  0.63716227913E+02  0.00000000000E+00 0. -1.
        -13    1    4    4    0    0  0.10443820600E+02  0.66088883258E+02  0.67632146190E+02  0.95136328904E+02  0.00000000000E+00 0.  1.
         13    1    4    4    0    0  0.68718543999E+01 -0.31088684084E+02  0.29497078641E+02  0.43402837573E+02  0.00000000000E+00 0. -1.
          4    1    1    2  501    0 -0.16591743186E+02  0.23984604354E+02  0.21463314201E+03  0.21660547740E+03  0.00000000000E+00 0. -1.
<scales pt_clust_5="13000.00000" pt_clust_6="13000.00000" pt_clust_7="13000.00000" pt_clust_8="13000.00000" pt_clust_9="29.16414"></scales>
<clustering>
<clus scale="   29.164">  1  9  2 -1</clus>
<clus scale="   90.742">  7  8 -1 -1</clus>
<clus scale="   97.674">  5  6 -1 -1</clus>
<clus scale="  104.340">  1  7  2 -1</clus>
<clus scale="   29.164">  1  5  2 -1</clus>
</clustering>
</event>
<event>
 9    1  0.1426358E-005  0.9154806E+02  0.7546771E-02  0.1299409E+00
         21   -1    0    0  501  502  0.00000000000E+00  0.00000000000E+00  0.45743383171E+03  0.45743383171E+03  0.00000000000E+00 0. -1.
          1   -1    0    0  502    0 -0.00000000000E+00 -0.00000000000E+00 -0.13396150413E+03  0.13396150413E+03  0.00000000000E+00 0. -1.
         23    2    1    2    0    0 -0.25182968437E+02  0.22342371217E+01 -0.56759892628E+02  0.10954422143E+03  0.90216835035E+02 0.  0.
         23    2    1    2    0    0 -0.53657296088E+02 -0.38358096117E+02  0.23272567732E+02  0.11450806765E+03  0.90664415216E+02 0.  0.
        -11    1    3    3    0    0 -0.51240281969E+02 -0.19086404187E+02 -0.52151276313E+02  0.75561980798E+02  0.00000000000E+00 0. -1.
         11    1    3    3    0    0  0.26057313532E+02  0.21320641309E+02 -0.46086163155E+01  0.33982240636E+02  0.00000000000E+00 0.  1.
        -11    1    4    4    0    0 -0.39203941227E+02  0.46316387917E+01  0.48559024687E+02  0.62580987242E+02  0.00000000000E+00 0.  1.
         11    1    4    4    0    0 -0.14453354861E+02 -0.42989734909E+02 -0.25286456954E+02  0.51927080407E+02  0.00000000000E+00 0. -1.
          1    1    1    2  501    0  0.78840264525E+02  0.36123858996E+02  0.35695965248E+03  0.36734304675E+03  0.00000000000E+00 0. -1.
<scales pt_clust_5="13000.00000" pt_clust_6="13000.00000" pt_clust_7="13000.00000" pt_clust_8="13000.00000" pt_clust_9="86.72209"></scales>
<clustering>
<clus scale="   86.722">  1  9  2 -1</clus>
<clus scale="   90.217">  5  6 -1 -1</clus>
<clus scale="   90.664">  7  8 -1 -1</clus>
<clus scale="   91.105">  2  5  1 -1</clus>
<clus scale="   86.722">  1  5  2 -1</clus>
</clustering>
</event>
<event>
 9    1  0.1426358E-005  0.9405332E+02  0.7546771E-02  0.1294476E+00
          1   -1    0    0  502    0 -0.00000000000E+00  0.00000000000E+00  0.46954946516E+03  0.46954946516E+03  0.00000000000E+00 0. -1.
         21   -1    0    0  501  502  0.00000000000E+00 -0.00000000000E+00 -0.30995679138E+02  0.30995679138E+02  0.00000000000E+00 0.  1.
         23    2    1    2    0    0  0.16267577626E+02 -0.11430518690E+02  0.26417101444E+03  0.27976210629E+03  0.89917853670E+02 0.  0.
         23    2    1    2    0    0  0.33394081113E+01  0.29797119322E+02  0.89613903554E+02  0.13185876182E+03  0.91962282439E+02 0.  0.
        -11    1    3    3    0    0  0.27583838437E+02 -0.43400164394E+02  0.10374401770E+03  0.11578973884E+03  0.00000000000E+00 0. -1.
         11    1    3    3    0    0 -0.11316260811E+02  0.31969645704E+02  0.16042699674E+03  0.16397236745E+03  0.00000000000E+00 0.  1.
        -13    1    4    4    0    0 -0.17547832045E+02 -0.17895814144E+02  0.73036250107E+02  0.77217099162E+02  0.00000000000E+00 0. -1.
         13    1    4    4    0    0  0.20887240156E+02  0.47692933465E+02  0.16577653447E+02  0.54641662655E+02  0.00000000000E+00 0.  1.
          1    1    1    2  501    0 -0.19606985737E+02 -0.18366600632E+02  0.84768868032E+02  0.88924276190E+02  0.00000000000E+00 0. -1.
<scales pt_clust_5="13000.00000" pt_clust_6="13000.00000" pt_clust_7="13000.00000" pt_clust_8="13000.00000" pt_clust_9="26.86571"></scales>
<clustering>
<clus scale="   26.866">  2  9  1 -1</clus>
<clus scale="   89.918">  5  6 -1 -1</clus>
<clus scale="   91.962">  7  8 -1 -1</clus>
<clus scale="   92.055">  1  5  2 -1</clus>
<clus scale="   26.866">  2  5  1 -1</clus>
</clustering>
</event>
<event>
 9    1  0.1426358E-005  0.1899278E+03  0.7546771E-02  0.1158586E+00
          2   -1    0    0  502    0 -0.00000000000E+00  0.00000000000E+00  0.13854471530E+03  0.13854471530E+03  0.00000000000E+00 0. -1.
         21   -1    0    0  501  502  0.00000000000E+00 -0.00000000000E+00 -0.51344040722E+03  0.51344040722E+03  0.00000000000E+00 0. -1.
         23    2    1    2    0    0 -0.29922688704E+02  0.16765592940E+03  0.29622260588E+02  0.19527128633E+03  0.90826862674E+02 0.  0.
         23    2    1    2    0    0  0.74437973488E+01 -0.15385798911E+03 -0.30173706211E+03  0.35060259671E+03  0.90273114691E+02 0.  0.
        -11    1    4    4    0    0  0.48075629525E+02 -0.10101480399E+03 -0.18718455735E+03  0.21806722653E+03  0.00000000000E+00 0.  1.
         11    1    4    4    0    0 -0.40631832176E+02 -0.52843185122E+02 -0.11455250476E+03  0.13253537018E+03  0.00000000000E+00 0. -1.
        -13    1    3    3    0    0 -0.51772784132E+01  0.11361219277E+03  0.59926515091E+02  0.12855240864E+03  0.00000000000E+00 0. -1.
         13    1    3    3    0    0 -0.24745410291E+02  0.54043736628E+02 -0.30304254503E+02  0.66718877690E+02  0.00000000000E+00 0.  1.
          2    1    1    2  501    0  0.22478891355E+02 -0.13797940288E+02 -0.10278089040E+03  0.10611123948E+03  0.00000000000E+00 0. -1.
<scales pt_clust_5="13000.00000" pt_clust_6="13000.00000" pt_clust_7="13000.00000" pt_clust_8="13000.00000" pt_clust_9="26.37582"></scales>
<clustering>
<clus scale="   26.376">  2  9  1 -1</clus>
<clus scale="   90.273">  5  6 -1 -1</clus>
<clus scale="   90.827">  7  8 -1 -1</clus>
<clus scale="  189.664">  2  5  1 -1</clus>
<clus scale="   26.376">  2  5  1 -1</clus>
</clustering>
</event>
<event>
 9    1  0.1426358E-005  0.1053899E+03  0.7546771E-02  0.1271347E+00
          1   -1    0    0  502    0 -0.00000000000E+00  0.00000000000E+00  0.11730354131E+04  0.11730354131E+04  0.00000000000E+00 0. -1.
         21   -1    0    0  501  502  0.00000000000E+00 -0.00000000000E+00 -0.38839737423E+02  0.38839737423E+02  0.00000000000E+00 0. -1.
         23    2    1    2    0    0 -0.41351202040E+02  0.37961258631E+02  0.38948262757E+03  0.40443437669E+03  0.93378095948E+02 0.  0.
         23    2    1    2    0    0  0.62482811379E+02  0.60669865063E+02  0.11412035330E+03  0.16883151128E+03  0.88857694769E+02 0.  0.
        -13    1    3    3    0    0 -0.35803794594E+02 -0.24826786552E+02  0.11960420111E+03  0.12729275690E+03  0.00000000000E+00 0.  1.
         13    1    3    3    0    0 -0.55474074459E+01  0.62788045184E+02  0.26987842646E+03  0.27714161979E+03  0.00000000000E+00 0. -1.
        -13    1    4    4    0    0  0.53704053802E+02  0.88682981677E+01  0.14698913918E+02  0.56381115433E+02  0.00000000000E+00 0.  1.
         13    1    4    4    0    0  0.87787575776E+01  0.51801566895E+02  0.99421439385E+02  0.11245039585E+03  0.00000000000E+00 0. -1.
          1    1    1    2  501    0 -0.21131609340E+02 -0.98631123694E+02  0.63059269479E+03  0.63860926254E+03  0.00000000000E+00 0. -1.
<scales pt_clust_5="13000.00000" pt_clust_6="13000.00000" pt_clust_7="13000.00000" pt_clust_8="13000.00000" pt_clust_9="100.86949"></scales>
<clustering>
<clus scale="   88.858">  7  8 -1 -1</clus>
<clus scale="   93.378">  5  6 -1 -1</clus>
<clus scale="  100.869">  2  9  1 -1</clus>
<clus scale="  101.406">  2  7  1 -1</clus>
<clus scale="  100.869">  2  5  1 -1</clus>
</clustering>
</event>
<event>
 9    1  0.1426358E-005  0.9814000E+02  0.7546771E-02  0.1284647E+00
          4   -1    0    0  502    0 -0.00000000000E+00  0.00000000000E+00  0.59827768841E+03  0.59827768841E+03  0.00000000000E+00 0. -1.
         21   -1    0    0  501  502  0.00000000000E+00 -0.00000000000E+00 -0.82777553239E+02  0.82777553239E+02  0.00000000000E+00 0.  1.
         23    2    1    2    0    0  0.18054022120E+02  0.34155749435E+02  0.49085258536E+03  0.50036234588E+03  0.89071059776E+02 0.  0.
         23    2    1    2    0    0 -0.46461838035E+02 -0.38829965404E+02  0.69331536226E+02  0.12753736039E+03  0.88274842237E+02 0.  0.
        -11    1    3    3    0    0  0.53102115477E+02  0.31803949174E+02  0.32179085236E+03  0.32768991213E+03  0.00000000000E+00 0. -1.
         11    1    3    3    0    0 -0.35048093357E+02  0.23518002606E+01  0.16906173300E+03  0.17267243375E+03  0.00000000000E+00 0.  1.
        -13    1    4    4    0    0 -0.41526465962E+02 -0.58793602475E+02  0.77170566296E+02  0.10552929152E+03  0.00000000000E+00 0.  1.
         13    1    4    4    0    0 -0.49353720727E+01  0.19963637071E+02 -0.78390300702E+01  0.22008068862E+02  0.00000000000E+00 0. -1.
          4    1    1    2  501    0  0.28407815915E+02  0.46742159691E+01 -0.44683986413E+02  0.53155535382E+02  0.00000000000E+00 0. -1.
<scales pt_clust_5="13000.00000" pt_clust_6="13000.00000" pt_clust_7="13000.00000" pt_clust_8="13000.00000" pt_clust_9="28.78980"></scales>
<clustering>
<clus scale="   28.790">  2  9  1 -1</clus>
<clus scale="   88.275">  7  8 -1 -1</clus>
<clus scale="   89.071">  5  6 -1 -1</clus>
<clus scale="   97.418">  2  7  1 -1</clus>
<clus scale="   28.790">  2  5  1 -1</clus>
</clustering>
</event>
<event>
 9    1  0.1426358E-005  0.9194244E+02  0.7546771E-02  0.1299800E+00
         21   -1    0    0  501  502  0.00000000000E+00  0.00000000000E+00  0.51033641382E+02  0.51033641382E+02  0.00000000000E+00 0. -1.
         -3   -1    0    0    0  501 -0.00000000000E+00 -0.00000000000E+00 -0.27630778372E+03  0.27630778372E+03  0.00000000000E+00 0.  1.
         23    2    1    2    0    0 -0.32265881243E+02 -0.98992701574E+01 -0.11792450903E+03  0.15058478111E+03  0.87352755142E+02 0.  0.
         23    2    1    2    0    0 -0.11318499335E+02  0.79691748557E+01 -0.47685638484E+02  0.10284375082E+03  0.90062760284E+02 0.  0.
        -11    1    3    3    0    0  0.16320007735E+02 -0.34185612517E+02 -0.61753292802E+02  0.72446310655E+02  0.00000000000E+00 0. -1.
         11    1    3    3    0    0 -0.48585888977E+02  0.24286342360E+02 -0.56171216230E+02  0.78138470459E+02  0.00000000000E+00 0.  1.
        -11    1    4    4    0    0 -0.40890329435E+02 -0.31578459660E+01 -0.56708607640E+02  0.69984692704E+02  0.00000000000E+00 0.  1.
         11    1    4    4    0    0  0.29571830101E+02  0.11127020822E+02  0.90229691556E+01  0.32859058116E+02  0.00000000000E+00 0. -1.
         -3    1    1    2    0  502  0.43584380577E+02  0.19300953017E+01 -0.59663994821E+02  0.73912893166E+02  0.00000000000E+00 0.  1.
<scales pt_clust_5="13000.00000" pt_clust_6="13000.00000" pt_clust_7="13000.00000" pt_clust_8="13000.00000" pt_clust_9="43.62712"></scales>
<clustering>
<clus scale="   43.627">  1  9  2 -1</clus>
<clus scale="   87.353">  5  6 -1 -1</clus>
<clus scale="   89.290">  2  5  1 -1</clus>
<clus scale="   90.063">  7  8 -1 -1</clus>
<clus scale="   43.627">  1  5  2 -1</clus>
</clustering>
</event>
<event>
 9    1  0.1426358E-005  0.1239939E+03  0.7546771E-02  0.1236868E+00
          2   -1    0    0  502    0 -0.00000000000E+00  0.00000000000E+00  0.46414066396E+03  0.46414066396E+03  0.00000000000E+00 0. -1.
         21   -1    0    0  501  502  0.00000000000E+00 -0.00000000000E+00 -0.58812712228E+02  0.58812712228E+02  0.00000000000E+00 0.  1.
         23    2    1    2    0    0  0.34964855319E+02  0.75122744374E+02  0.29423981244E+03  0.31960812426E+03  0.93307652628E+02 0.  0.
         23    2    1    2    0    0  0.68992040995E+01 -0.86379915156E+02  0.86622675460E+02  0.15356692044E+03  0.92575495626E+02 0.  0.
        -11    1    4    4    0    0 -0.25584027717E+02 -0.27070181991E+02  0.76639836512E+02  0.85211511944E+02  0.00000000000E+00 0. -1.
         11    1    4    4    0    0  0.32483231817E+02 -0.59309733165E+02  0.99828389488E+01  0.68355408497E+02  0.00000000000E+00 0.  1.
        -11    1    3    3    0    0 -0.83104227129E+01  0.77567004137E+02  0.15110092598E+03  0.17005056039E+03  0.00000000000E+00 0. -1.
         11    1    3    3    0    0  0.43275278032E+02 -0.24442597629E+01  0.14313888645E+03  0.14955756387E+03  0.00000000000E+00 0.  1.
          2    1    1    2  501    0 -0.41864059419E+02  0.11257170782E+02  0.24465463833E+02  0.49778331487E+02  0.00000000000E+00 0. -1.
<scales pt_clust_5="13000.00000" pt_clust_6="13000.00000" pt_clust_7="13000.00000" pt_clust_8="13000.00000" pt_clust_9="43.35116"></scales>
<clustering>
<clus scale="   43.351">  2  9  1 -1</clus>
<clus scale="   92.575">  5  6 -1 -1</clus>
<clus scale="   93.308">  7  8 -1 -1</clus>
<clus scale="  123.444">  2  5  1 -1</clus>
<clus scale="   43.351">  2  5  1 -1</clus>
</clustering>
</event>
<event>
 9    1  0.1426358E-005  0.1547441E+03  0.7546771E-02  0.1195006E+00
          2   -1    0    0  502    0 -0.00000000000E+00  0.00000000000E+00  0.26349500533E+03  0.26349500533E+03  0.00000000000E+00 0. -1.
         21   -1    0    0  501  502  0.00000000000E+00 -0.00000000000E+00 -0.41252329669E+03  0.41252329669E+03  0.00000000000E+00 0. -1.
         23    2    1    2    0    0 -0.12952668384E+03  0.33068552333E+02  0.16789201365E+03  0.23334126702E+03  0.91595456589E+02 0.  0.
         23    2    1    2    0    0  0.10726356209E+03  0.56963605628E+02 -0.48774772772E+02  0.15894571400E+03  0.90191116082E+02 0.  0.
        -11    1    4    4    0    0  0.81121462845E+02  0.16551107295E+02  0.95321826373E+01  0.83339626785E+02  0.00000000000E+00 0. -1.
         11    1    4    4    0    0  0.26142099250E+02  0.40412498332E+02 -0.58306955409E+02  0.75606087214E+02  0.00000000000E+00 0.  1.
        -11    1    3    3    0    0 -0.23031117931E+02  0.44183871671E+02  0.27933733109E+02  0.57122152922E+02  0.00000000000E+00 0.  1.
         11    1    3    3    0    0 -0.10649556591E+03 -0.11115319338E+02  0.13995828054E+03  0.17621911410E+03  0.00000000000E+00 0. -1.
          2    1    1    2  501    0  0.22263121749E+02 -0.90032157961E+02 -0.26814553223E+03  0.28373132100E+03  0.00000000000E+00 0. -1.
<scales pt_clust_5="13000.00000" pt_clust_6="13000.00000" pt_clust_7="13000.00000" pt_clust_8="13000.00000" pt_clust_9="92.74393"></scales>
<clustering>
<clus scale="   90.191">  5  6 -1 -1</clus>
<clus scale="   91.595">  7  8 -1 -1</clus>
<clus scale="   92.744">  2  9  1 -1</clus>
<clus scale="  153.917">  2  5  1 -1</clus>
<clus scale="   92.744">  2  5  1 -1</clus>
</clustering>
</event>
<event>
 9    1  0.1426358E-005  0.3059539E+03  0.7546771E-02  0.1123319E+00
          3   -1    0    0  502    0 -0.00000000000E+00  0.00000000000E+00  0.26663196743E+03  0.26663196743E+03  0.00000000000E+00 0. -1.
         21   -1    0    0  501  502  0.00000000000E+00 -0.00000000000E+00 -0.65309626686E+03  0.65309626686E+03  0.00000000000E+00 0. -1.
         23    2    1    2    0    0  0.21735762731E+01 -0.54590941027E+02  0.78393248299E+02  0.13191286388E+03  0.90942877689E+02 0.  0.
         23    2    1    2    0    0 -0.23136531704E+03  0.21654087416E+03 -0.13992081085E+03  0.35846642392E+03  0.92198067539E+02 0.  0.
        -11    1    4    4    0    0 -0.14247695372E+02  0.60980176559E+02 -0.32796492725E+02  0.70690796371E+02  0.00000000000E+00 0.  1.
         11    1    4    4    0    0 -0.21711762167E+03  0.15556069760E+03 -0.10712431813E+03  0.28777562755E+03  0.00000000000E+00 0. -1.
        -11    1    3    3    0    0  0.13631021028E+02 -0.72735694944E+02  0.81663955583E+02  0.11020566090E+03  0.00000000000E+00 0.  1.
         11    1    3    3    0    0 -0.11457444755E+02  0.18144753917E+02 -0.32707072842E+01  0.21707202979E+02  0.00000000000E+00 0. -1.
          3    1    1    2  501    0  0.22919174077E+03 -0.16194993313E+03 -0.32493673688E+03  0.42934894649E+03  0.00000000000E+00 0. -1.
<scales pt_clust_5="13000.00000" pt_clust_6="13000.00000" pt_clust_7="13000.00000" pt_clust_8="13000.00000" pt_clust_9="291.73160"></scales>
<clustering>
<clus scale="   90.943">  7  8 -1 -1</clus>
<clus scale="   92.198">  5  6 -1 -1</clus>
<clus scale="  106.092">  1  7  2 -1</clus>
<clus scale="  291.732">  2  9  1 -1</clus>
<clus scale="  291.732">  2  5  1 -1</clus>
</clustering>
</event>
<event>
 9    1  0.1436757E-005  0.1050853E+03  0.7546771E-02  0.1270966E+00
         21   -1    0    0  501  502  0.00000000000E+00  0.00000000000E+00  0.21563991951E+03  0.21563991951E+03  0.00000000000E+00 0. -1.
          1   -1    0    0  502    0 -0.00000000000E+00 -0.00000000000E+00 -0.48086626465E+03  0.48086626465E+03  0.00000000000E+00 0. -1.
         23    2    1    2    0    0 -0.30282397165E+02 -0.58418880241E+02 -0.25372517256E+03  0.27809860231E+03  0.92911679916E+02 0.  0.
         23    2    1    2    0    0  0.62102767178E+02 -0.26251170681E+02 -0.18844002527E+03  0.21968941191E+03  0.90597554759E+02 0.  0.
        -13    1    4    4    0    0  0.33359056070E+02 -0.12809743948E+02 -0.81805368679E+01  0.36658387108E+02  0.00000000000E+00 0.  1.
         13    1    4    4    0    0  0.28743711108E+02 -0.13441426732E+02 -0.18025948841E+03  0.18303102481E+03  0.00000000000E+00 0. -1.
        -13    1    3    3    0    0 -0.65491377580E+00  0.24137825345E+02 -0.35779911039E+02  0.43165559865E+02  0.00000000000E+00 0.  1.
         13    1    3    3    0    0 -0.29627483389E+02 -0.82556705586E+02 -0.21794526153E+03  0.23493304244E+03  0.00000000000E+00 0. -1.
          1    1    1    2  501    0 -0.31820370014E+02  0.84670050922E+02  0.17693885270E+03  0.19871816995E+03  0.00000000000E+00 0. -1.
<scales pt_clust_5="13000.00000" pt_clust_6="13000.00000" pt_clust_7="13000.00000" pt_clust_8="13000.00000" pt_clust_9="90.45194"></scales>
<clustering>
<clus scale="   90.452">  1  9  2 -1</clus>
<clus scale="   90.598">  5  6 -1 -1</clus>
<clus scale="   92.912">  7  8 -1 -1</clus>
<clus scale="  103.045">  1  5  2 -1</clus>
<clus scale="   90.452">  1  5  2 -1</clus>
</clustering>
</event>
<event>
 9    1  0.1426358E-005  0.1151431E+03  0.7546771E-02  0.1252711E+00
         -2   -1    0    0    0  501 -0.00000000000E+00  0.00000000000E+00  0.69256267329E+02  0.69256267329E+02  0.00000000000E+00 0.  1.
         21   -1    0    0  501  502  0.00000000000E+00 -0.00000000000E+00 -0.39722122427E+03  0.39722122427E+03  0.00000000000E+00 0.  1.
         23    2    1    2    0    0 -0.79384170076E+02 -0.77160127414E+01 -0.44925992184E+02  0.12965607055E+03  0.91820305734E+02 0.  0.
         23    2    1    2    0    0  0.39290019402E+02  0.26324873215E+02 -0.92374476882E+02  0.14110024810E+03  0.95600896750E+02 0.  0.
        -13    1    4    4    0    0 -0.15352761840E+02  0.22272501788E+02  0.67134081265E+01  0.27871876160E+02  0.00000000000E+00 0. -1.
         13    1    4    4    0    0  0.54642781241E+02  0.40523714274E+01 -0.99087885009E+02  0.11322837194E+03  0.00000000000E+00 0.  1.
        -13    1    3    3    0    0 -0.19242023834E+02  0.34917089281E+02 -0.38881270639E+02  0.55688524955E+02  0.00000000000E+00 0. -1.
         13    1    3    3    0    0 -0.60142146241E+02 -0.42633102022E+02 -0.60447215451E+01  0.73967545593E+02  0.00000000000E+00 0.  1.
         -2    1    1    2    0  502  0.40094150674E+02 -0.18608860474E+02 -0.19066448788E+03  0.19572117296E+03  0.00000000000E+00 0.  1.
<scales pt_clust_5="13000.00000" pt_clust_6="13000.00000" pt_clust_7="13000.00000" pt_clust_8="13000.00000" pt_clust_9="44.20216"></scales>
<clustering>
<clus scale="   44.202">  2  9  1 -1</clus>
<clus scale="   91.820">  7  8 -1 -1</clus>
<clus scale="   95.601">  5  6 -1 -1</clus>
<clus scale="  112.024">  1  7  2 -1</clus>
<clus scale="   44.202">  2  5  1 -1</clus>
</clustering>
</event>
<event>
 9    1  0.1426358E-005  0.1069810E+03  0.7546771E-02  0.1269996E+00
         21   -1    0    0  501  502  0.00000000000E+00  0.00000000000E+00  0.17314334384E+03  0.17314334384E+03  0.00000000000E+00 0.  1.
         -1   -1    0    0    0  501 -0.00000000000E+00 -0.00000000000E+00 -0.87105600493E+02  0.87105600493E+02  0.00000000000E+00 0.  1.
         23    2    1    2    0    0 -0.18170718241E+02 -0.32720094592E+02  0.12340154031E+02  0.10654989885E+03  0.98994050082E+02 0.  0.
         23    2    1    2    0    0 -0.63887291438E+01  0.49422197101E+02  0.47138167140E+02  0.11385523053E+03  0.90871542799E+02 0.  0.
        -11    1    3    3    0    0  0.32388443405E+02 -0.88817487537E+01  0.32878559970E+02  0.46998898208E+02  0.00000000000E+00 0. -1.
         11    1    3    3    0    0 -0.50559161646E+02 -0.23838345838E+02 -0.20538405939E+02  0.59551000640E+02  0.00000000000E+00 0.  1.
        -13    1    4    4    0    0  0.87531298152E+01 -0.25385346649E+02  0.76495573637E+01  0.27920401751E+02  0.00000000000E+00 0. -1.
         13    1    4    4    0    0 -0.15141858959E+02  0.74807543751E+02  0.39488609776E+02  0.85934828776E+02  0.00000000000E+00 0.  1.
         -1    1    1    2    0  502  0.24559447385E+02 -0.16702102510E+02  0.26559422178E+02  0.39843814959E+02  0.00000000000E+00 0.  1.
<scales pt_clust_5="13000.00000" pt_clust_6="13000.00000" pt_clust_7="13000.00000" pt_clust_8="13000.00000" pt_clust_9="29.70062"></scales>
<clustering>
<clus scale="   29.701">  1  9  2 -1</clus>
<clus scale="   90.872">  7  8 -1 -1</clus>
<clus scale="   98.994">  5  6 -1 -1</clus>
<clus scale="   99.513">  1  7  2 -1</clus>
<clus scale="   29.701">  1  5  2 -1</clus>
</clustering>
</event>
<event>
 9    1  0.1426358E-005  0.1469051E+03  0.7546771E-02  0.1205336E+00
         -3   -1    0    0    0  501 -0.00000000000E+00  0.00000000000E+00  0.10500416370E+04  0.10500416370E+04  0.00000000000E+00 0.  1.
         21   -1    0    0  501  502  0.00000000000E+00 -0.00000000000E+00 -0.25095958676E+02  0.25095958676E+02  0.00000000000E+00 0. -1.
         23    2    1    2    0    0 -0.85546313712E+02 -0.71260516305E+02  0.62431414005E+03  0.64126757699E+03  0.95182597424E+02 0.  0.
         23    2    1    2    0    0  0.73073945741E+02  0.87590651482E+02  0.33838041281E+03  0.36831518745E+03  0.90237740205E+02 0.  0.
        -11    1    4    4    0    0  0.35895545645E+02  0.81707751422E+02  0.30572079424E+03  0.31848053453E+03  0.00000000000E+00 0.  1.
         11    1    4    4    0    0  0.37178400096E+02  0.58829000603E+01  0.32659618568E+02  0.49834652921E+02  0.00000000000E+00 0. -1.
        -13    1    3    3    0    0 -0.16882845023E+01 -0.61791917470E+02  0.28345629220E+03  0.29011818447E+03  0.00000000000E+00 0. -1.
         13    1    3    3    0    0 -0.83858029210E+02 -0.94685988354E+01  0.34085784785E+03  0.35114939252E+03  0.00000000000E+00 0.  1.
         -3    1    1    2    0  502  0.12472367971E+02 -0.16330135177E+02  0.62251125441E+02  0.65554831221E+02  0.00000000000E+00 0.  1.
<scales pt_clust_5="13000.00000" pt_clust_6="13000.00000" pt_clust_7="13000.00000" pt_clust_8="13000.00000" pt_clust_9="20.54832"></scales>
<clustering>
<clus scale="   20.548">  2  9  1 -1</clus>
<clus scale="   90.238">  5  6 -1 -1</clus>
<clus scale="   95.183">  7  8 -1 -1</clus>
<clus scale="  143.751">  2  5  1 -1</clus>
<clus scale="   20.548">  2  5  1 -1</clus>
</clustering>
</event>
<event>
 9    1  0.1426358E-005  0.9572568E+02  0.7546771E-02  0.1289791E+00
          1   -1    0    0  502    0 -0.00000000000E+00  0.00000000000E+00  0.26169420183E+03  0.26169420183E+03  0.00000000000E+00 0. -1.
         21   -1    0    0  501  502  0.00000000000E+00 -0.00000000000E+00 -0.77706974054E+02  0.77706974054E+02  0.00000000000E+00 0.  1.
         23    2    1    2    0    0  0.58885594654E+02 -0.23286492613E+02  0.88523322071E+02  0.14160663663E+03  0.90588558835E+02 0.  0.
         23    2    1    2    0    0  0.10247232931E+02 -0.10003245252E+02  0.29963982868E+02  0.96909483925E+02  0.91041403257E+02 0.  0.
        -11    1    3    3    0    0  0.47465969229E+02 -0.56136430377E+02  0.72725550470E+02  0.10340852354E+03  0.00000000000E+00 0. -1.
         11    1    3    3    0    0  0.11419625425E+02  0.32849937764E+02  0.15797771601E+02  0.38198113088E+02  0.00000000000E+00 0.  1.
        -13    1    4    4    0    0  0.46463034423E+02 -0.25114780933E+02  0.14928399295E+02  0.54885543585E+02  0.00000000000E+00 0. -1.
         13    1    4    4    0    0 -0.36215801492E+02  0.15111535681E+02  0.15035583574E+02  0.42023940341E+02  0.00000000000E+00 0.  1.
          1    1    1    2  501    0 -0.69132827585E+02  0.33289737865E+02  0.65499922840E+02  0.10088505533E+03  0.00000000000E+00 0. -1.
<scales pt_clust_5="13000.00000" pt_clust_6="13000.00000" pt_clust_7="13000.00000" pt_clust_8="13000.00000" pt_clust_9="76.73044"></scales>
<clustering>
<clus scale="   76.730">  2  9  1 -1</clus>
<clus scale="   90.589">  5  6 -1 -1</clus>
<clus scale="   91.041">  7  8 -1 -1</clus>
<clus scale="   95.295">  1  5  2 -1</clus>
<clus scale="   76.730">  2  5  1 -1</clus>
</clustering>
</event>
<event>
 9    1  0.1426358E-005  0.2275740E+03  0.7546771E-02  0.1128436E+00
          1   -1    0    0  502    0 -0.00000000000E+00  0.00000000000E+00  0.13489996968E+03  0.13489996968E+03  0.00000000000E+00 0. -1.
         21   -1    0    0  501  502  0.00000000000E+00 -0.00000000000E+00 -0.63965957593E+03  0.63965957593E+03  0.00000000000E+00 0. -1.
         23    2    1    2    0    0 -0.11710157055E+03  0.18157314168E+03 -0.92141574290E+02  0.25229977056E+03  0.92106030794E+02 0.  0.
         23    2    1    2    0    0  0.50277924169E+02 -0.18877991783E+03 -0.39927871861E+03  0.45373770110E+03  0.91042183802E+02 0.  0.
        -11    1    3    3    0    0 -0.71788540482E+02  0.35003557230E+02 -0.17822449040E+02  0.81832042948E+02  0.00000000000E+00 0.  1.
         11    1    3    3    0    0 -0.45313030063E+02  0.14656958445E+03 -0.74319125250E+02  0.17046772761E+03  0.00000000000E+00 0. -1.
        -13    1    4    4    0    0  0.41733205159E+02 -0.32649231438E+02 -0.59297560567E+02  0.79522534011E+02  0.00000000000E+00 0.  1.
         13    1    4    4    0    0  0.85447190099E+01 -0.15613068639E+03 -0.33998115804E+03  0.37421516709E+03  0.00000000000E+00 0. -1.
          1    1    1    2  501    0  0.66823646376E+02  0.72067761468E+01 -0.13339313357E+02  0.68522073949E+02  0.00000000000E+00 0. -1.
<scales pt_clust_5="13000.00000" pt_clust_6="13000.00000" pt_clust_7="13000.00000" pt_clust_8="13000.00000" pt_clust_9="67.21117"></scales>
<clustering>
<clus scale="   67.211">  2  9  1 -1</clus>
<clus scale="   91.042">  7  8 -1 -1</clus>
<clus scale="   92.106">  5  6 -1 -1</clus>
<clus scale="  227.146">  2  7  1 -1</clus>
<clus scale="   67.211">  2  5  1 -1</clus>
</clustering>
</event>
<event>
 9    1  0.1426358E-005  0.1006989E+03  0.7546771E-02  0.1279247E+00
         21   -1    0    0  501  502  0.00000000000E+00  0.00000000000E+00  0.56450346665E+02  0.56450346665E+02  0.00000000000E+00 0. -1.
          3   -1    0    0  502    0 -0.00000000000E+00 -0.00000000000E+00 -0.33436912339E+03  0.33436912339E+03  0.00000000000E+00 0. -1.
         23    2    1    2    0    0  0.28886977361E+02  0.11552150473E+02 -0.11739670640E+03  0.15204239248E+03  0.91471267595E+02 0.  0.
         23    2    1    2    0    0 -0.13171699183E+02 -0.68389887253E+02 -0.88133823515E+02  0.14540922140E+03  0.92334178306E+02 0.  0.
        -11    1    4    4    0    0 -0.20127796628E+02  0.10755375741E+02 -0.54589651242E+02  0.59167865664E+02  0.00000000000E+00 0.  1.
         11    1    4    4    0    0  0.69560974456E+01 -0.79145262994E+02 -0.33544172272E+02  0.86241355738E+02  0.00000000000E+00 0. -1.
        -13    1    3    3    0    0 -0.20776239597E+02  0.32103939481E+02 -0.72676852178E+02  0.82123321319E+02  0.00000000000E+00 0. -1.
         13    1    3    3    0    0  0.49663216958E+02 -0.20551789008E+02 -0.44719854218E+02  0.69919071156E+02  0.00000000000E+00 0.  1.
          3    1    1    2  501    0 -0.15715278178E+02  0.56837736780E+02 -0.72388246815E+02  0.93367856179E+02  0.00000000000E+00 0. -1.
<scales pt_clust_5="13000.00000" pt_clust_6="13000.00000" pt_clust_7="13000.00000" pt_clust_8="13000.00000" pt_clust_9="58.97035"></scales>
<clustering>
<clus scale="   58.970">  1  9  2 -1</clus>
<clus scale="   91.471">  7  8 -1 -1</clus>
<clus scale="   92.334">  5  6 -1 -1</clus>
<clus scale="   99.908">  2  7  1 -1</clus>
<clus scale="   58.970">  1  5  2 -1</clus>
</clustering>
</event>
<event>
 9    1  0.1426358E-005  0.1160445E+03  0.7546771E-02  0.1258609E+00
         21   -1    0    0  501  502  0.00000000000E+00  0.00000000000E+00  0.14309372699E+03  0.14309372699E+03  0.00000000000E+00 0.  1.
          1   -1    0    0  502    0 -0.00000000000E+00 -0.00000000000E+00 -0.21073528970E+03  0.21073528970E+03  0.00000000000E+00 0. -1.
         23    2    1    2    0    0 -0.26936226478E+02 -0.15717415291E+02 -0.13501429957E+03  0.17726547378E+03  0.11055129881E+03 0.  0.
         23    2    1    2    0    0  0.46021273908E+02  0.76331607582E+01 -0.41185879519E+01  0.10212831113E+03  0.90757954875E+02 0.  0.
        -13    1    4    4    0    0  0.56302056088E+02 -0.27308267033E+02 -0.14543823661E+02  0.64243176873E+02  0.00000000000E+00 0.  1.
         13    1    4    4    0    0 -0.10280782180E+02  0.34941427791E+02  0.10425235709E+02  0.37885134261E+02  0.00000000000E+00 0. -1.
        -13    1    3    3    0    0  0.82730032497E+01  0.40717323965E+02 -0.24378797134E+02  0.48173320452E+02  0.00000000000E+00 0.  1.
         13    1    3    3    0    0 -0.35209229727E+02 -0.56434739256E+02 -0.11063550244E+03  0.12909215333E+03  0.00000000000E+00 0. -1.
          1    1    1    2  501    0 -0.19085047430E+02  0.80842545324E+01  0.71491324803E+02  0.74435231771E+02  0.00000000000E+00 0. -1.
<scales pt_clust_5="13000.00000" pt_clust_6="13000.00000" pt_clust_7="13000.00000" pt_clust_8="13000.00000" pt_clust_9="20.72665"></scales>
<clustering>
<clus scale="   20.727">  1  9  2 -1</clus>
<clus scale="   90.758">  5  6 -1 -1</clus>
<clus scale="   97.374">  1  5  2 -1</clus>
<clus scale="  110.551">  7  8 -1 -1</clus>
<clus scale="   20.727">  1  5  2 -1</clus>
</clustering>
</event>
<event>
 9    1  0.1426358E-005  0.9111423E+02  0.7546771E-02  0.1300358E+00
         -2   -1    0    0    0  501 -0.00000000000E+00  0.00000000000E+00  0.38712291616E+02  0.38712291616E+02  0.00000000000E+00 0.  1.
         21   -1    0    0  501  502  0.00000000000E+00 -0.00000000000E+00 -0.51408632091E+03  0.51408632091E+03  0.00000000000E+00 0. -1.
         23    2    1    2    0    0  0.59532177241E+01  0.37900893183E+01 -0.33949882370E+02  0.96711420377E+02  0.90281220306E+02 0.  0.
         23    2    1    2    0    0 -0.16022517772E+02 -0.21173449633E+02 -0.37435911355E+03  0.38607797333E+03  0.90589290436E+02 0.  0.
        -11    1    3    3    0    0  0.39565095443E+02  0.21961531852E+01 -0.46232123271E+02  0.60890303731E+02  0.00000000000E+00 0. -1.
         11    1    3    3    0    0 -0.33611877719E+02  0.15939361331E+01  0.12282240901E+02  0.35821116646E+02  0.00000000000E+00 0.  1.
        -11    1    4    4    0    0 -0.47464464866E+02  0.10735781851E+02 -0.22191720452E+03  0.22719018046E+03  0.00000000000E+00 0.  1.
         11    1    4    4    0    0  0.31441947094E+02 -0.31909231484E+02 -0.15244190904E+03  0.15888779287E+03  0.00000000000E+00 0. -1.
         -2    1    1    2    0  502  0.10069300048E+02  0.17383360314E+02 -0.67065033368E+02  0.70009218821E+02  0.00000000000E+00 0.  1.
<scales pt_clust_5="13000.00000" pt_clust_6="13000.00000" pt_clust_7="13000.00000" pt_clust_8="13000.00000" pt_clust_9="20.08910"></scales>
<clustering>
<clus scale="   20.089">  2  9  1 -1</clus>
<clus scale="   90.281">  5  6 -1 -1</clus>
<clus scale="   90.589">  7  8 -1 -1</clus>
<clus scale="   90.808">  1  5  2 -1</clus>
<clus scale="   20.089">  2  5  1 -1</clus>
</clustering>
</event>
<event>
 9    1  0.1426358E-005  0.1782368E+03  0.7546771E-02  0.1170525E+00
          1   -1    0    0  502    0 -0.00000000000E+00  0.00000000000E+00  0.34610594091E+03  0.34610594091E+03  0.00000000000E+00 0. -1.
         21   -1    0    0  501  502  0.00000000000E+00 -0.00000000000E+00 -0.21401269978E+03  0.21401269978E+03  0.00000000000E+00 0. -1.
         23    2    1    2    0    0 -0.15299425733E+03  0.58686980810E+02  0.17216518593E+03  0.25226319594E+03  0.84524932945E+02 0.  0.
         23    2    1    2    0    0  0.13210336455E+03 -0.38445754124E+02  0.80135205124E+02  0.18417886834E+03  0.92578774607E+02 0.  0.
        -13    1    3    3    0    0 -0.11465237689E+02 -0.16452793711E+02  0.49286762034E+01  0.20650373975E+02  0.00000000000E+00 0.  1.
         13    1    3    3    0    0 -0.14152901964E+03  0.75139774521E+02  0.16723650973E+03  0.23161282197E+03  0.00000000000E+00 0. -1.
        -13    1    4    4    0    0  0.11219463461E+03 -0.46592923047E+02  0.98103809535E+02  0.15615022882E+03  0.00000000000E+00 0.  1.
         13    1    4    4    0    0  0.19908729934E+02  0.81471689230E+01 -0.17968604411E+02  0.28028639523E+02  0.00000000000E+00 0. -1.
          1    1    1    2  501    0  0.20890892778E+02 -0.20241226686E+02 -0.12020714992E+03  0.12367657641E+03  0.00000000000E+00 0. -1.
<scales pt_clust_5="13000.00000" pt_clust_6="13000.00000" pt_clust_7="13000.00000" pt_clust_8="13000.00000" pt_clust_9="29.08843"></scales>
<clustering>
<clus scale="   29.088">  2  9  1 -1</clus>
<clus scale="   84.525">  5  6 -1 -1</clus>
<clus scale="   92.579">  7  8 -1 -1</clus>
<clus scale="  174.190">  1  5  2 -1</clus>
<clus scale="   29.088">  2  5  1 -1</clus>
</clustering>
</event>
<event>
 9    1  0.1426358E-005  0.9366399E+02  0.7546771E-02  0.1295342E+00
          2   -1    0    0  502    0 -0.00000000000E+00  0.00000000000E+00  0.48056956573E+03  0.48056956573E+03  0.00000000000E+00 0. -1.
         21   -1    0    0  501  502  0.00000000000E+00 -0.00000000000E+00 -0.67568672093E+02  0.67568672093E+02  0.00000000000E+00 0. -1.
         23    2    1    2    0    0 -0.18672997587E+00 -0.24292995846E+02  0.30715006647E+03  0.32180913828E+03  0.92896574932E+02 0.  0.
         23    2    1    2    0    0 -0.20685063777E+02 -0.19148619397E+02  0.13853619460E+03  0.16809561301E+03  0.90935781796E+02 0.  0.
        -11    1    3    3    0    0 -0.73344717613E+01  0.32275686610E+02  0.17146789713E+03  0.17463319893E+03  0.00000000000E+00 0.  1.
         11    1    3    3    0    0  0.71477417854E+01 -0.56568682456E+02  0.13568216933E+03  0.14717593935E+03  0.00000000000E+00 0. -1.
        -13    1    4    4    0    0 -0.29900903168E+02 -0.52600818502E+02  0.88280881976E+02  0.10702534391E+03  0.00000000000E+00 0.  1.
         13    1    4    4    0    0  0.92158393910E+01  0.33452199105E+02  0.50255312621E+02  0.61070269094E+02  0.00000000000E+00 0. -1.
          2    1    1    2  501    0  0.20871793753E+02  0.43441615244E+02 -0.32685367431E+02  0.58233486531E+02  0.00000000000E+00 0. -1.
<scales pt_clust_5="13000.00000" pt_clust_6="13000.00000" pt_clust_7="13000.00000" pt_clust_8="13000.00000" pt_clust_9="48.19549"></scales>
<clustering>
<clus scale="   48.195">  2  9  1 -1</clus>
<clus scale="   90.936">  7  8 -1 -1</clus>
<clus scale="   91.720">  2  7  1 -1</clus>
<clus scale="   92.897">  5  6 -1 -1</clus>
<clus scale="   48.195">  2  5  1 -1</clus>
</clustering>
</event>
<event>
 9    1  0.1426358E-005  0.1069098E+03  0.7546771E-02  0.1267274E+00
         21   -1    0    0  501  502  0.00000000000E+00  0.00000000000E+00  0.23807282369E+03  0.23807282369E+03  0.00000000000E+00 0.  1.
         -3   -1    0    0    0  501 -0.00000000000E+00 -0.00000000000E+00 -0.14132885189E+03  0.14132885189E+03  0.00000000000E+00 0.  1.
         23    2    1    2    0    0 -0.32721066884E+01  0.48416363495E+02 -0.35341525418E+02  0.11068887528E+03  0.92995444813E+02 0.  0.
         23    2    1    2    0    0 -0.24140800673E+02 -0.56085175320E+02 -0.22261545483E+02  0.11176284727E+03  0.90923222964E+02 0.  0.
        -13    1    4    4    0    0 -0.57043626455E+01 -0.63892206173E+02 -0.47303047448E+02  0.79701518559E+02  0.00000000000E+00 0.  1.
         13    1    4    4    0    0 -0.18436438028E+02  0.78070308530E+01  0.25041501964E+02  0.32061328708E+02  0.00000000000E+00 0. -1.
        -13    1    3    3    0    0  0.82968958692E+01 -0.22770721028E+02  0.91994721488E+01  0.25922471044E+02  0.00000000000E+00 0.  1.
         13    1    3    3    0    0 -0.11569002558E+02  0.71187084523E+02 -0.44540997567E+02  0.84766404237E+02  0.00000000000E+00 0. -1.
         -3    1    1    2    0  502  0.27412907362E+02  0.76688118252E+01  0.15434704270E+03  0.15694995303E+03  0.00000000000E+00 0.  1.
<scales pt_clust_5="13000.00000" pt_clust_6="13000.00000" pt_clust_7="13000.00000" pt_clust_8="13000.00000" pt_clust_9="28.46539"></scales>
<clustering>
<clus scale="   28.465">  1  9  2 -1</clus>
<clus scale="   90.923">  5  6 -1 -1</clus>
<clus scale="   92.995">  7  8 -1 -1</clus>
<clus scale="  105.112">  1  5  2 -1</clus>
<clus scale="   28.465">  1  5  2 -1</clus>
</clustering>
</event>
<event>
 9    1  0.1426358E-005  0.1036955E+03  0.7546771E-02  0.1272815E+00
         21   -1    0    0  501  502  0.00000000000E+00  0.00000000000E+00  0.14231607427E+03  0.14231607427E+03  0.00000000000E+00 0. -1.
         -1   -1    0    0    0  501 -0.00000000000E+00 -0.00000000000E+00 -0.15091089400E+03  0.15091089400E+03  0.00000000000E+00 0.  1.
         23    2    1    2    0    0  0.84740254836E+00  0.60226278147E+02 -0.52591741504E+02  0.12128513140E+03  0.91193580655E+02 0.  0.
         23    2    1    2    0    0  0.45762402423E+02 -0.22955014692E+02  0.14526025339E+02  0.10538242930E+03  0.90957796909E+02 0.  0.
        -13    1    4    4    0    0  0.39376051485E+02  0.21241354940E+02 -0.19930905716E+02  0.48978664670E+02  0.00000000000E+00 0.  1.
         13    1    4    4    0    0  0.63863509380E+01 -0.44196369632E+02  0.34456931055E+02  0.56403764632E+02  0.00000000000E+00 0. -1.
        -13    1    3    3    0    0 -0.27391657837E+02 -0.12204246036E+02 -0.57829817511E+01  0.30539964282E+02  0.00000000000E+00 0.  1.
         13    1    3    3    0    0  0.28239060386E+02  0.72430524183E+02 -0.46808759753E+02  0.90745167114E+02  0.00000000000E+00 0. -1.
         -1    1    1    2    0  502 -0.46609804971E+02 -0.37271263455E+02  0.29470896442E+02  0.66559407570E+02  0.00000000000E+00 0.  1.
<scales pt_clust_5="13000.00000" pt_clust_6="13000.00000" pt_clust_7="13000.00000" pt_clust_8="13000.00000" pt_clust_9="59.67932"></scales>
<clustering>
<clus scale="   59.679">  1  9  2 -1</clus>
<clus scale="   90.958">  5  6 -1 -1</clus>
<clus scale="   91.194">  7  8 -1 -1</clus>
<clus scale="  103.488">  1  5  2 -1</clus>
<clus scale="   59.679">  1  5  2 -1</clus>
</clustering>
</event>
<event>
 9    1  0.1426358E-005  0.1282473E+03  0.7546771E-02  0.1230412E+00
          2   -1    0    0  502    0 -0.00000000000E+00  0.00000000000E+00  0.30551325649E+03  0.30551325649E+03  0.00000000000E+00 0. -1.
         21   -1    0    0  501  502  0.00000000000E+00 -0.00000000000E+00 -0.23931268249E+03  0.23931268249E+03  0.00000000000E+00 0. -1.
         23    2    1    2    0    0  0.86828622429E+02 -0.36282837411E+01  0.14851110140E+03  0.19495905439E+03  0.91657577604E+02 0.  0.
         23    2    1    2    0    0 -0.85417416000E+02 -0.75494676718E+02  0.82337109924E+02  0.16718881022E+03  0.90427415221E+02 0.  0.
        -11    1    4    4    0    0 -0.85648326505E+02 -0.21367240283E+02  0.33920042004E+02  0.94566188672E+02  0.00000000000E+00 0. -1.
         11    1    4    4    0    0  0.23091050470E+00 -0.54127436435E+02  0.48417067920E+02  0.72622621549E+02  0.00000000000E+00 0.  1.
        -13    1    3    3    0    0  0.69873314869E+02  0.32612534540E+02  0.59592547863E+02  0.97453215959E+02  0.00000000000E+00 0.  1.
         13    1    3    3    0    0  0.16955307560E+02 -0.36240818282E+02  0.88918553540E+02  0.97505838429E+02  0.00000000000E+00 0. -1.
          2    1    1    2  501    0 -0.14112064288E+01  0.79122960459E+02 -0.16464763733E+03  0.18267807437E+03  0.00000000000E+00 0. -1.
<scales pt_clust_5="13000.00000" pt_clust_6="13000.00000" pt_clust_7="13000.00000" pt_clust_8="13000.00000" pt_clust_9="79.13554"></scales>
<clustering>
<clus scale="   79.136">  2  9  1 -1</clus>
<clus scale="   90.427">  5  6 -1 -1</clus>
<clus scale="   91.658">  7  8 -1 -1</clus>
<clus scale="  127.371">  2  5  1 -1</clus>
<clus scale="   79.136">  2  5  1 -1</clus>
</clustering>
</event>
<event>
 9    1  0.1426358E-005  0.1285626E+03  0.7546771E-02  0.1230605E+00
         21   -1    0    0  501  502  0.00000000000E+00  0.00000000000E+00  0.31319665302E+03  0.31319665302E+03  0.00000000000E+00 0.  1.
         -2   -1    0    0    0  501 -0.00000000000E+00 -0.00000000000E+00 -0.98661916117E+02  0.98661916117E+02  0.00000000000E+00 0.  1.
         23    2    1    2    0    0  0.44437356790E+02  0.84522587833E+02 -0.16589754543E+02  0.13349503928E+03  0.91798469611E+02 0.  0.
         23    2    1    2    0    0 -0.10722426408E+02 -0.59055927528E+02  0.16171134769E+03  0.19710202702E+03  0.95373350995E+02 0.  0.
        -11    1    3    3    0    0 -0.29828920387E+01  0.38806389622E+02  0.33014842785E+02  0.51037372234E+02  0.00000000000E+00 0.  1.
         11    1    3    3    0    0  0.47420248829E+02  0.45716198211E+02 -0.49604597328E+02  0.82457667041E+02  0.00000000000E+00 0. -1.
        -13    1    4    4    0    0 -0.52558968603E+02 -0.32000501454E+02  0.74137604461E+02  0.96347608528E+02  0.00000000000E+00 0. -1.
         13    1    4    4    0    0  0.41836542194E+02 -0.27055426074E+02  0.87573743228E+02  0.10075441849E+03  0.00000000000E+00 0.  1.
         -2    1    1    2    0  502 -0.33714930381E+02 -0.25466660305E+02  0.69413143759E+02  0.81261502843E+02  0.00000000000E+00 0.  1.
<scales pt_clust_5="13000.00000" pt_clust_6="13000.00000" pt_clust_7="13000.00000" pt_clust_8="13000.00000" pt_clust_9="42.25219"></scales>
<clustering>
<clus scale="   42.252">  1  9  2 -1</clus>
<clus scale="   91.798">  5  6 -1 -1</clus>
<clus scale="   95.373">  7  8 -1 -1</clus>
<clus scale="  125.933">  2  5  1 -1</clus>
<clus scale="   42.252">  1  5  2 -1</clus>
</clustering>
</event>
<event>
 9    1  0.1426358E-005  0.1288888E+03  0.7546771E-02  0.1230904E+00
         21   -1    0    0  501  502  0.00000000000E+00  0.00000000000E+00  0.14992418172E+03  0.14992418172E+03  0.00000000000E+00 0. -1.
          1   -1    0    0  502    0 -0.00000000000E+00 -0.00000000000E+00 -0.38945470526E+03  0.38945470526E+03  0.00000000000E+00 0. -1.
         23    2    1    2    0    0  0.39747444214E+02 -0.69910713789E+02 -0.17005444095E+03  0.20866142849E+03  0.90297904890E+02 0.  0.
         23    2    1    2    0    0 -0.57626210472E+01  0.11312613050E+03 -0.16723558239E+03  0.21855926552E+03  0.83484629270E+02 0.  0.
        -11    1    4    4    0    0  0.36229377851E+02  0.77432350353E+02 -0.97383499446E+02  0.12958349689E+03  0.00000000000E+00 0. -1.
         11    1    4    4    0    0 -0.41991998898E+02  0.35693780146E+02 -0.69852082942E+02  0.88975768633E+02  0.00000000000E+00 0.  1.
        -11    1    3    3    0    0  0.65720985614E+01 -0.83697808469E+02 -0.13101841541E+03  0.15560957811E+03  0.00000000000E+00 0. -1.
         11    1    3    3    0    0  0.33175345653E+02  0.13787094680E+02 -0.39036025544E+02  0.53051850384E+02  0.00000000000E+00 0.  1.
          1    1    1    2  501    0 -0.33984823167E+02 -0.43215416710E+02  0.97759499803E+02  0.11215819296E+03  0.00000000000E+00 0. -1.
<scales pt_clust_5="13000.00000" pt_clust_6="13000.00000" pt_clust_7="13000.00000" pt_clust_8="13000.00000" pt_clust_9="54.97764"></scales>
<clustering>
<clus scale="   54.978">  1  9  2 -1</clus>
<clus scale="   83.485">  5  6 -1 -1</clus>
<clus scale="   90.298">  7  8 -1 -1</clus>
<clus scale="  124.211">  1  5  2 -1</clus>
<clus scale="   54.978">  1  5  2 -1</clus>
</clustering>
</event>
<event>
 9    1  0.1426358E-005  0.9245942E+02  0.7546771E-02  0.1297714E+00
         21   -1    0    0  501  502  0.00000000000E+00  0.00000000000E+00  0.26135691871E+03  0.26135691871E+03  0.00000000000E+00 0.  1.
          1   -1    0    0  502    0 -0.00000000000E+00 -0.00000000000E+00 -0.20575080408E+03  0.20575080408E+03  0.00000000000E+00 0. -1.
         23    2    1    2    0    0  0.23967617586E+02 -0.85941320413E+01 -0.18266862150E+03  0.20430970714E+03  0.87899518487E+02 0.  0.
         23    2    1    2    0    0 -0.89662276183E+01 -0.61521447330E+01  0.19342736915E+03  0.21326236481E+03  0.89154063199E+02 0.  0.
        -11    1    4    4    0    0  0.13408528273E+02  0.36750407264E+02  0.63101566548E+02  0.74244116031E+02  0.00000000000E+00 0. -1.
         11    1    4    4    0    0 -0.22374755891E+02 -0.42902551997E+02  0.13032580261E+03  0.13901824878E+03  0.00000000000E+00 0.  1.
        -11    1    3    3    0    0  0.10384196809E+02  0.39583009501E+02 -0.93248753131E+02  0.10183307982E+03  0.00000000000E+00 0. -1.
         11    1    3    3    0    0  0.13583420777E+02 -0.48177141542E+02 -0.89419868371E+02  0.10247662732E+03  0.00000000000E+00 0.  1.
          1    1    1    2  501    0 -0.15001389968E+02  0.14746276774E+02  0.44847366983E+02  0.49535650848E+02  0.00000000000E+00 0. -1.
<scales pt_clust_5="13000.00000" pt_clust_6="13000.00000" pt_clust_7="13000.00000" pt_clust_8="13000.00000" pt_clust_9="21.03555"></scales>
<clustering>
<clus scale="   21.036">  1  9  2 -1</clus>
<clus scale="   87.900">  7  8 -1 -1</clus>
<clus scale="   89.154">  5  6 -1 -1</clus>
<clus scale="   91.250">  2  7  1 -1</clus>
<clus scale="   21.036">  1  5  2 -1</clus>
</clustering>
</event>
<event>
 9    1  0.1426358E-005  0.1524320E+03  0.7546771E-02  0.1198785E+00
         21   -1    0    0  501  502  0.00000000000E+00  0.00000000000E+00  0.27785145707E+03  0.27785145707E+03  0.00000000000E+00 0. -1.
          1   -1    0    0  502    0 -0.00000000000E+00 -0.00000000000E+00 -0.23963861649E+03  0.23963861649E+03  0.00000000000E+00 0. -1.
         23    2    1    2    0    0 -0.11837441366E+03 -0.21966735609E+02 -0.18499567503E+03  0.23803916224E+03  0.89130262530E+02 0.  0.
         23    2    1    2    0    0  0.98293356718E+02  0.26475491221E+02  0.21662337376E+03  0.25784207474E+03  0.95886984716E+02 0.  0.
        -13    1    4    4    0    0 -0.38724620167E+01 -0.24995432591E+02  0.34723848592E+02  0.42959437537E+02  0.00000000000E+00 0.  1.
         13    1    4    4    0    0  0.10216581874E+03  0.51470923812E+02  0.18189952517E+03  0.21488263721E+03  0.00000000000E+00 0. -1.
        -13    1    3    3    0    0 -0.10234627510E+03 -0.42689523741E+02 -0.17992770398E+03  0.21135546864E+03  0.00000000000E+00 0. -1.
         13    1    3    3    0    0 -0.16028138559E+02  0.20722788132E+02 -0.50679710468E+01  0.26683693600E+02  0.00000000000E+00 0.  1.
          1    1    1    2  501    0  0.20081056939E+02 -0.45087556122E+01  0.65851418493E+01  0.21608836575E+02  0.00000000000E+00 0. -1.
<scales pt_clust_5="13000.00000" pt_clust_6="13000.00000" pt_clust_7="13000.00000" pt_clust_8="13000.00000" pt_clust_9="20.58100"></scales>
<clustering>
<clus scale="   20.581">  1  9  2 -1</clus>
<clus scale="   89.130">  7  8 -1 -1</clus>
<clus scale="   95.887">  5  6 -1 -1</clus>
<clus scale="  148.275">  2  7  1 -1</clus>
<clus scale="   20.581">  1  5  2 -1</clus>
</clustering>
</event>
<event>
 9    1  0.1426358E-005  0.1021922E+03  0.7546771E-02  0.1276171E+00
         21   -1    0    0  501  502  0.00000000000E+00  0.00000000000E+00  0.13582647991E+03  0.13582647991E+03  0.00000000000E+00 0. -1.
          2   -1    0    0  502    0 -0.00000000000E+00 -0.00000000000E+00 -0.26522062136E+03  0.26522062136E+03  0.00000000000E+00 0. -1.
         23    2    1    2    0    0  0.32311032622E+02 -0.32034105597E+02 -0.18752085325E+03  0.21355643097E+03  0.91499136909E+02 0.  0.
         23    2    1    2    0    0 -0.14664753110E+02  0.47844480777E+02 -0.20388021647E+02  0.10547894850E+03  0.90586907582E+02 0.  0.
        -13    1    3    3    0    0  0.24327389535E+02 -0.61624538160E+02 -0.15651317485E+03  0.16995816981E+03  0.00000000000E+00 0.  1.
         13    1    3    3    0    0  0.79836430868E+01  0.29590432562E+02 -0.31007678398E+02  0.43598261156E+02  0.00000000000E+00 0. -1.
        -13    1    4    4    0    0 -0.46218251924E+02  0.22853857183E+02  0.13010186956E+02  0.53176033734E+02  0.00000000000E+00 0.  1.
         13    1    4    4    0    0  0.31553498814E+02  0.24990623594E+02 -0.33398208604E+02  0.52302914766E+02  0.00000000000E+00 0. -1.
          2    1    1    2  501    0 -0.17646279512E+02 -0.15810375180E+02  0.78514733444E+02  0.82011721795E+02  0.00000000000E+00 0. -1.
<scales pt_clust_5="13000.00000" pt_clust_6="13000.00000" pt_clust_7="13000.00000" pt_clust_8="13000.00000" pt_clust_9="23.69302"></scales>
<clustering>
<clus scale="   23.693">  1  9  2 -1</clus>
<clus scale="   90.587">  7  8 -1 -1</clus>
<clus scale="   91.499">  5  6 -1 -1</clus>
<clus scale="  101.376">  1  7  2 -1</clus>
<clus scale="   23.693">  1  5  2 -1</clus>
</clustering>
</event>
<event>
 9    1  0.1426358E-005  0.1168682E+03  0.7546771E-02  0.1248783E+00
         21   -1    0    0  501  502  0.00000000000E+00  0.00000000000E+00  0.11793426453E+03  0.11793426453E+03  0.00000000000E+00 0.  1.
          2   -1    0    0  502    0 -0.00000000000E+00 -0.00000000000E+00 -0.44329874194E+03  0.44329874194E+03  0.00000000000E+00 0. -1.
         23    2    1    2    0    0 -0.56719714241E+02  0.17973507627E+02 -0.18178255343E+03  0.21203926850E+03  0.91518204185E+02 0.  0.
         23    2    1    2    0    0  0.71260220834E+02 -0.45847014784E+02 -0.22732796438E+03  0.25974119182E+03  0.92776696972E+02 0.  0.
        -11    1    3    3    0    0 -0.68933689708E+02 -0.17791135571E+02 -0.11295996915E+03  0.13352277975E+03  0.00000000000E+00 0. -1.
         11    1    3    3    0    0  0.12213975467E+02  0.35764643198E+02 -0.68822584280E+02  0.78516488757E+02  0.00000000000E+00 0.  1.
        -13    1    4    4    0    0  0.44717086256E+02 -0.26990470821E+02 -0.31013205586E+02  0.60744730134E+02  0.00000000000E+00 0.  1.
         13    1    4    4    0    0  0.26543134578E+02 -0.18856543963E+02 -0.19631475879E+03  0.19899646168E+03  0.00000000000E+00 0. -1.
          2    1    1    2  501    0 -0.14540506593E+02  0.27873507157E+02  0.83746040385E+02  0.89452546154E+02  0.00000000000E+00 0. -1.
<scales pt_clust_5="13000.00000" pt_clust_6="13000.00000" pt_clust_7="13000.00000" pt_clust_8="13000.00000" pt_clust_9="31.43817"></scales>
<clustering>
<clus scale="   31.438">  1  9  2 -1</clus>
<clus scale="   91.518">  5  6 -1 -1</clus>
<clus scale="   92.777">  7  8 -1 -1</clus>
<clus scale="  115.872">  2  5  1 -1</clus>
<clus scale="   31.438">  1  5  2 -1</clus>
</clustering>
</event>
<event>
 9    1  0.1426358E-005  0.9115911E+02  0.7546771E-02  0.1310058E+00
          1   -1    0    0  502    0 -0.00000000000E+00  0.00000000000E+00  0.40067168204E+03  0.40067168204E+03  0.00000000000E+00 0. -1.
         21   -1    0    0  501  502  0.00000000000E+00 -0.00000000000E+00 -0.28269014481E+02  0.28269014481E+02  0.00000000000E+00 0.  1.
         23    2    1    2    0    0  0.13153000808E+02 -0.40861275406E+01  0.22024523276E+03  0.23874261283E+03  0.91106392515E+02 0.  0.
         23    2    1    2    0    0  0.68214894794E+01 -0.34834443503E+01  0.15056771976E+03  0.16877832939E+03  0.75873705156E+02 0.  0.
        -11    1    3    3    0    0  0.51900683485E+02  0.39378953501E+01  0.11238283161E+03  0.12385107512E+03  0.00000000000E+00 0.  1.
         11    1    3    3    0    0 -0.38747682678E+02 -0.80240228907E+01  0.10786240115E+03  0.11489153771E+03  0.00000000000E+00 0. -1.
        -13    1    4    4    0    0  0.23750082418E+02  0.29073733172E+02  0.95403062877E+02  0.10252362060E+03  0.00000000000E+00 0.  1.
         13    1    4    4    0    0 -0.16928592938E+02 -0.32557177522E+02  0.55164656881E+02  0.66254708782E+02  0.00000000000E+00 0. -1.
          1    1    1    2  501    0 -0.19974490287E+02  0.75695718909E+01  0.15897150445E+01  0.21419754311E+02  0.00000000000E+00 0. -1.
<scales pt_clust_5="13000.00000" pt_clust_6="13000.00000" pt_clust_7="13000.00000" pt_clust_8="13000.00000" pt_clust_9="21.36068"></scales>
<clustering>
<clus scale="   21.361">  2  9  1 -1</clus>
<clus scale="   75.874">  7  8 -1 -1</clus>
<clus scale="   75.937">  2  7  1 -1</clus>
<clus scale="   91.106">  5  6 -1 -1</clus>
<clus scale="   21.361">  2  5  1 -1</clus>
</clustering>
</event>
<event>
 9    1  0.1426358E-005  0.1787405E+03  0.7546771E-02  0.1173313E+00
         -3   -1    0    0    0  501 -0.00000000000E+00  0.00000000000E+00  0.66128271713E+03  0.66128271713E+03  0.00000000000E+00 0.  1.
         21   -1    0    0  501  502  0.00000000000E+00 -0.00000000000E+00 -0.76396687504E+02  0.76396687504E+02  0.00000000000E+00 0. -1.
         23    2    1    2    0    0  0.99908026812E+02 -0.53994236088E+02  0.26911724074E+03  0.31547482759E+03  0.11917754079E+03 0.  0.
         23    2    1    2    0    0 -0.15836939744E+03  0.21474841613E+02  0.30194841156E+03  0.35389465315E+03  0.92339305909E+02 0.  0.
        -13    1    3    3    0    0  0.11274461530E+03 -0.76882408335E+02  0.24142705353E+03  0.27732521553E+03  0.00000000000E+00 0.  1.
         13    1    3    3    0    0 -0.12836588493E+02  0.22888172247E+02  0.27690187207E+02  0.38149612062E+02  0.00000000000E+00 0. -1.
        -13    1    4    4    0    0 -0.27122724935E+02  0.40405959148E+02  0.11324234137E+03  0.12325628431E+03  0.00000000000E+00 0.  1.
         13    1    4    4    0    0 -0.13124667251E+03 -0.18931117535E+02  0.18870607019E+03  0.23063836884E+03  0.00000000000E+00 0. -1.
         -3    1    1    2    0  502  0.58461370629E+02  0.32519394475E+02  0.13820377326E+02  0.68309923893E+02  0.00000000000E+00 0.  1.
<scales pt_clust_5="13000.00000" pt_clust_6="13000.00000" pt_clust_7="13000.00000" pt_clust_8="13000.00000" pt_clust_9="66.89726"></scales>
<clustering>
<clus scale="   66.897">  2  9  1 -1</clus>
<clus scale="   92.339">  7  8 -1 -1</clus>
<clus scale="  119.178">  5  6 -1 -1</clus>
<clus scale="  162.085">  2  7  1 -1</clus>
<clus scale="   66.897">  2  5  1 -1</clus>
</clustering>
</event>
<event>
 9    1  0.1426358E-005  0.1182298E+03  0.7546771E-02  0.1255944E+00
          1   -1    0    0  502    0 -0.00000000000E+00  0.00000000000E+00  0.32486288438E+02  0.32486288438E+02  0.00000000000E+00 0. -1.
         21   -1    0    0  501  502  0.00000000000E+00 -0.00000000000E+00 -0.48402845811E+03  0.48402845811E+03  0.00000000000E+00 0.  1.
         23    2    1    2    0    0  0.14049277074E+02 -0.50136750644E+02 -0.21560582578E+03  0.24863494247E+03  0.11234939500E+03 0.  0.
         23    2    1    2    0    0 -0.30471908025E+01  0.22623228551E+02 -0.20540968560E+03  0.22533668869E+03  0.89790804028E+02 0.  0.
        -11    1    3    3    0    0  0.17394691821E+02 -0.85583781886E+02 -0.13899430028E+03  0.16415411824E+03  0.00000000000E+00 0.  1.
         11    1    3    3    0    0 -0.33454147475E+01  0.35447031241E+02 -0.76611525495E+02  0.84480824228E+02  0.00000000000E+00 0. -1.
        -13    1    4    4    0    0  0.31863742994E+02 -0.87890424970E+01 -0.14553562740E+03  0.14924196537E+03  0.00000000000E+00 0.  1.
         13    1    4    4    0    0 -0.34910933797E+02  0.31412271048E+02 -0.59874058204E+02  0.76094723318E+02  0.00000000000E+00 0. -1.
          1    1    1    2  501    0 -0.11002086271E+02  0.27513522093E+02 -0.30526658292E+02  0.42543115386E+02  0.00000000000E+00 0. -1.
<scales pt_clust_5="13000.00000" pt_clust_6="13000.00000" pt_clust_7="13000.00000" pt_clust_8="13000.00000" pt_clust_9="29.63175"></scales>
<clustering>
<clus scale="   29.632">  2  9  1 -1</clus>
<clus scale="   89.791">  7  8 -1 -1</clus>
<clus scale="   97.048">  2  7  1 -1</clus>
<clus scale="  112.349">  5  6 -1 -1</clus>
<clus scale="   29.632">  2  5  1 -1</clus>
</clustering>
</event>
<event>
 9    1  0.1426358E-005  0.1153471E+03  0.7546771E-02  0.1251050E+00
          1   -1    0    0  502    0 -0.00000000000E+00  0.00000000000E+00  0.10096509168E+04  0.10096509168E+04  0.00000000000E+00 0. -1.
         21   -1    0    0  501  502  0.00000000000E+00 -0.00000000000E+00 -0.30212974960E+02  0.30212974960E+02  0.00000000000E+00 0. -1.
         23    2    1    2    0    0  0.57818828321E+02 -0.65956256265E+02  0.52538103417E+03  0.54087161020E+03  0.93934141869E+02 0.  0.
         23    2    1    2    0    0 -0.62180444891E+02 -0.98795475150E+01  0.36435454105E+03  0.38144821573E+03  0.93725644920E+02 0.  0.
        -11    1    4    4    0    0 -0.29216141095E+02  0.33255065601E+02  0.75363292743E+02  0.87401991864E+02  0.00000000000E+00 0.  1.
         11    1    4    4    0    0 -0.32964303796E+02 -0.43134613116E+02  0.28899124831E+03  0.29404622387E+03  0.00000000000E+00 0. -1.
        -11    1    3    3    0    0  0.43933331534E+02  0.47251014321E+01  0.98516001906E+02  0.10797160198E+03  0.00000000000E+00 0.  1.
         11    1    3    3    0    0  0.13885496787E+02 -0.70681357697E+02  0.42686503226E+03  0.43290000822E+03  0.00000000000E+00 0. -1.
          1    1    1    2  501    0  0.43616165706E+01  0.75835803780E+02  0.89702366628E+02  0.11754406583E+03  0.00000000000E+00 0. -1.
<scales pt_clust_5="13000.00000" pt_clust_6="13000.00000" pt_clust_7="13000.00000" pt_clust_8="13000.00000" pt_clust_9="75.96113"></scales>
<clustering>
<clus scale="   75.961">  2  9  1 -1</clus>
<clus scale="   93.726">  5  6 -1 -1</clus>
<clus scale="   93.934">  7  8 -1 -1</clus>
<clus scale="  115.177">  2  5  1 -1</clus>
<clus scale="   75.961">  2  5  1 -1</clus>
</clustering>
</event>
<event>
 9    1  0.1426358E-005  0.9597456E+02  0.7546771E-02  0.1289437E+00
         21   -1    0    0  501  502  0.00000000000E+00  0.00000000000E+00  0.55160618108E+03  0.55160618108E+03  0.00000000000E+00 0.  1.
          1   -1    0    0  502    0 -0.00000000000E+00 -0.00000000000E+00 -0.32698095024E+02  0.32698095024E+02  0.00000000000E+00 0. -1.
         23    2    1    2    0    0 -0.78147582687E+01 -0.34679296685E+02  0.16709646299E+03  0.19377827309E+03  0.91460740823E+02 0.  0.
         23    2    1    2    0    0 -0.50604660140E+02  0.89153181981E+01  0.24251393438E+03  0.26394561043E+03  0.90630912888E+02 0.  0.
        -13    1    3    3    0    0  0.26763745044E+02 -0.24926364219E+02  0.14924337099E+03  0.15365938132E+03  0.00000000000E+00 0.  1.
         13    1    3    3    0    0 -0.34578503313E+02 -0.97529324657E+01  0.17853092001E+02  0.40118891772E+02  0.00000000000E+00 0. -1.
        -13    1    4    4    0    0  0.13103070634E+02  0.28692553498E+02  0.12398887869E+03  0.12793824731E+03  0.00000000000E+00 0. -1.
         13    1    4    4    0    0 -0.63707730774E+02 -0.19777235300E+02  0.11852505569E+03  0.13600736312E+03  0.00000000000E+00 0.  1.
          1    1    1    2  501    0  0.58419418409E+02  0.25763978487E+02  0.10929768869E+03  0.12658039259E+03  0.00000000000E+00 0. -1.
<scales pt_clust_5="13000.00000" pt_clust_6="13000.00000" pt_clust_7="13000.00000" pt_clust_8="13000.00000" pt_clust_9="63.84838"></scales>
<clustering>
<clus scale="   63.848">  1  9  2 -1</clus>
<clus scale="   90.631">  7  8 -1 -1</clus>
<clus scale="   91.461">  5  6 -1 -1</clus>
<clus scale="   95.184">  1  7  2 -1</clus>
<clus scale="   63.848">  1  5  2 -1</clus>
</clustering>
</event>
<event>
 9    1  0.1426358E-005  0.1231021E+03  0.7546771E-02  0.1238437E+00
         -1   -1    0    0    0  501 -0.00000000000E+00  0.00000000000E+00  0.68276742037E+02  0.68276742037E+02  0.00000000000E+00 0.  1.
         21   -1    0    0  501  502  0.00000000000E+00 -0.00000000000E+00 -0.48500112274E+03  0.48500112274E+03  0.00000000000E+00 0. -1.
         23    2    1    2    0    0 -0.76848877533E+02  0.79817709255E+02 -0.14458974689E+03  0.20368898288E+03  0.91139399568E+02 0.  0.
         23    2    1    2    0    0  0.59053966989E+02  0.72842269913E+01 -0.22155270016E+03  0.24730526566E+03  0.92378918010E+02 0.  0.
        -11    1    3    3    0    0 -0.14441294760E+02  0.23681281039E+02  0.85736582852E+01  0.29032080228E+02  0.00000000000E+00 0.  1.
         11    1    3    3    0    0 -0.62407582773E+02  0.56136428216E+02 -0.15316340517E+03  0.17465690265E+03  0.00000000000E+00 0. -1.
        -11    1    4    4    0    0  0.55588201421E+02  0.38157053316E+02 -0.91889798718E+02  0.11397255794E+03  0.00000000000E+00 0. -1.
         11    1    4    4    0    0  0.34657655677E+01 -0.30872826325E+02 -0.12966290144E+03  0.13333270772E+03  0.00000000000E+00 0.  1.
         -1    1    1    2    0  502  0.17794910544E+02 -0.87101936246E+02 -0.50581933659E+02  0.10228361624E+03  0.00000000000E+00 0.  1.
<scales pt_clust_5="13000.00000" pt_clust_6="13000.00000" pt_clust_7="13000.00000" pt_clust_8="13000.00000" pt_clust_9="88.90115"></scales>
<clustering>
<clus scale="   88.901">  2  9  1 -1</clus>
<clus scale="   91.139">  5  6 -1 -1</clus>
<clus scale="   92.379">  7  8 -1 -1</clus>
<clus scale="  122.175">  1  5  2 -1</clus>
<clus scale="   88.901">  2  5  1 -1</clus>
</clustering>
</event>
<event>
 9    1  0.1426358E-005  0.2892798E+03  0.7546771E-02  0.1090761E+00
         21   -1    0    0  501  502  0.00000000000E+00  0.00000000000E+00  0.12542148796E+04  0.12542148796E+04  0.00000000000E+00 0.  1.
         -3   -1    0    0    0  501 -0.00000000000E+00 -0.00000000000E+00 -0.82595787425E+02  0.82595787425E+02  0.00000000000E+00 0.  1.
         23    2    1    2    0    0  0.25264566430E+03  0.11535488067E+03  0.40081457187E+03  0.49599325240E+03  0.90666450330E+02 0.  0.
         23    2    1    2    0    0 -0.26389011186E+03 -0.68612840188E+02  0.63913450323E+03  0.70064520146E+03  0.89805746654E+02 0.  0.
        -11    1    4    4    0    0 -0.21148561714E+03 -0.51563521585E+02  0.58147989542E+03  0.62088954878E+03  0.00000000000E+00 0.  1.
         11    1    4    4    0    0 -0.52404494716E+02 -0.17049318603E+02  0.57654607814E+02  0.79755652674E+02  0.00000000000E+00 0. -1.
        -13    1    3    3    0    0  0.15217616687E+03  0.24820781079E+02  0.17953157195E+03  0.23665426736E+03  0.00000000000E+00 0.  1.
         13    1    3    3    0    0  0.10046949744E+03  0.90534099591E+02  0.22128299993E+03  0.25933898504E+03  0.00000000000E+00 0. -1.
         -3    1    1    2    0  502  0.11244447553E+02 -0.46742040482E+02  0.13167001712E+03  0.14017221321E+03  0.00000000000E+00 0.  1.
<scales pt_clust_5="13000.00000" pt_clust_6="13000.00000" pt_clust_7="13000.00000" pt_clust_8="13000.00000" pt_clust_9="48.07552"></scales>
<clustering>
<clus scale="   48.076">  1  9  2 -1</clus>
<clus scale="   89.806">  5  6 -1 -1</clus>
<clus scale="   90.666">  7  8 -1 -1</clus>
<clus scale="  289.011">  1  5  2 -1</clus>
<clus scale="   48.076">  1  5  2 -1</clus>
</clustering>
</event>
<event>
 9    1  0.1426358E-005  0.1608449E+03  0.7546771E-02  0.1188391E+00
         21   -1    0    0  501  502  0.00000000000E+00  0.00000000000E+00  0.33381547566E+03  0.33381547566E+03  0.00000000000E+00 0. -1.
          1   -1    0    0  502    0 -0.00000000000E+00 -0.00000000000E+00 -0.24394685884E+03  0.24394685884E+03  0.00000000000E+00 0. -1.
         23    2    1    2    0    0  0.98201665683E+02  0.10954616035E+03 -0.17293545357E+03  0.24583836956E+03  0.94265075489E+02 0.  0.
         23    2    1    2    0    0 -0.22450518679E+02 -0.62780378499E+02  0.12655391628E+03  0.16916838402E+03  0.90314155653E+02 0.  0.
        -11    1    3    3    0    0  0.11151789507E+02  0.69339618144E+02 -0.36698902512E+02  0.79241116216E+02  0.00000000000E+00 0.  1.
         11    1    3    3    0    0  0.87049876176E+02  0.40206542209E+02 -0.13623655106E+03  0.16659725335E+03  0.00000000000E+00 0. -1.
        -13    1    4    4    0    0 -0.53729171464E+02 -0.45950810710E+02  0.10803465259E+03  0.12911152943E+03  0.00000000000E+00 0.  1.
         13    1    4    4    0    0  0.31278652785E+02 -0.16829567789E+02  0.18519263698E+02  0.40056854594E+02  0.00000000000E+00 0. -1.
          1    1    1    2  501    0 -0.75751147004E+02 -0.46765781854E+02  0.13625015410E+03  0.16275558091E+03  0.00000000000E+00 0. -1.
<scales pt_clust_5="13000.00000" pt_clust_6="13000.00000" pt_clust_7="13000.00000" pt_clust_8="13000.00000" pt_clust_9="89.02401"></scales>
<clustering>
<clus scale="   89.024">  1  9  2 -1</clus>
<clus scale="   90.314">  7  8 -1 -1</clus>
<clus scale="   94.265">  5  6 -1 -1</clus>
<clus scale="  158.562">  1  7  2 -1</clus>
<clus scale="   89.024">  1  5  2 -1</clus>
</clustering>
</event>
<event>
 9    1  0.1426358E-005  0.1004145E+03  0.7546771E-02  0.1280158E+00
         -1   -1    0    0    0  501 -0.00000000000E+00  0.00000000000E+00  0.15978007655E+03  0.15978007655E+03  0.00000000000E+00 0.  1.
         21   -1    0    0  501  502  0.00000000000E+00 -0.00000000000E+00 -0.10977133628E+03  0.10977133628E+03  0.00000000000E+00 0.  1.
         23    2    1    2    0    0  0.42695401077E+02 -0.25126773203E+02  0.77216495355E+02  0.12949572427E+03  0.91392031631E+02 0.  0.
         23    2    1    2    0    0 -0.25653735307E+02  0.13647449401E+02  0.12575100462E+02  0.95279926783E+02  0.89865256277E+02 0.  0.
        -11    1    4    4    0    0  0.62117589720E+00 -0.35657921286E+02  0.16453980336E+02  0.39276031862E+02  0.00000000000E+00 0.  1.
         11    1    4    4    0    0 -0.26274911204E+02  0.49305370686E+02 -0.38788798738E+01  0.56003894921E+02  0.00000000000E+00 0. -1.
        -13    1    3    3    0    0  0.62650324919E+02 -0.38942847003E+02  0.74880098021E+02  0.10511249985E+03  0.00000000000E+00 0.  1.
         13    1    3    3    0    0 -0.19954923842E+02  0.13816073800E+02  0.23363973347E+01  0.24383224424E+02  0.00000000000E+00 0. -1.
         -1    1    1    2    0  502 -0.17041665769E+02  0.11479323802E+02 -0.39782855546E+02  0.44775761775E+02  0.00000000000E+00 0.  1.
<scales pt_clust_5="13000.00000" pt_clust_6="13000.00000" pt_clust_7="13000.00000" pt_clust_8="13000.00000" pt_clust_9="20.54734"></scales>
<clustering>
<clus scale="   20.547">  2  9  1 -1</clus>
<clus scale="   89.865">  5  6 -1 -1</clus>
<clus scale="   91.392">  7  8 -1 -1</clus>
<clus scale="   99.027">  2  5  1 -1</clus>
<clus scale="   20.547">  2  5  1 -1</clus>
</clustering>
</event>
<event>
 9    1  0.1426358E-005  0.1289670E+03  0.7546771E-02  0.1233513E+00
          2   -1    0    0  502    0 -0.00000000000E+00  0.00000000000E+00  0.66119957329E+02  0.66119957329E+02  0.00000000000E+00 0. -1.
         21   -1    0    0  501  502  0.00000000000E+00 -0.00000000000E+00 -0.72758028618E+03  0.72758028618E+03  0.00000000000E+00 0.  1.
         23    2    1    2    0    0 -0.81277253433E+02 -0.26374467250E+02 -0.47373394820E+02  0.13837733124E+03  0.97992054867E+02 0.  0.
         23    2    1    2    0    0  0.37547365333E+02  0.10474269123E+03 -0.34837676565E+03  0.37486654271E+03  0.82326897117E+02 0.  0.
        -13    1    3    3    0    0 -0.10152006981E+03 -0.11462402047E+02 -0.26109358989E+02  0.10544861242E+03  0.00000000000E+00 0.  1.
         13    1    3    3    0    0  0.20242816376E+02 -0.14912065203E+02 -0.21264035831E+02  0.32928718822E+02  0.00000000000E+00 0. -1.
        -13    1    4    4    0    0  0.10312337428E+02  0.56711089512E+02 -0.28517701737E+03  0.29094402076E+03  0.00000000000E+00 0.  1.
         13    1    4    4    0    0  0.27235027905E+02  0.48031601718E+02 -0.63199748278E+02  0.83922521953E+02  0.00000000000E+00 0. -1.
          2    1    1    2  501    0  0.43729888101E+02 -0.78368223980E+02 -0.26571016838E+03  0.28045636955E+03  0.00000000000E+00 0. -1.
<scales pt_clust_5="13000.00000" pt_clust_6="13000.00000" pt_clust_7="13000.00000" pt_clust_8="13000.00000" pt_clust_9="89.74342"></scales>
<clustering>
<clus scale="   82.327">  7  8 -1 -1</clus>
<clus scale="   89.743">  2  9  1 -1</clus>
<clus scale="   97.992">  5  6 -1 -1</clus>
<clus scale="  117.506">  2  7  1 -1</clus>
<clus scale="   89.743">  2  5  1 -1</clus>
</clustering>
</event>
<event>
 9    1  0.1426358E-005  0.1206965E+03  0.7546771E-02  0.1274187E+00
         -1   -1    0    0    0  501 -0.00000000000E+00  0.00000000000E+00  0.39346659586E+02  0.39346659586E+02  0.00000000000E+00 0.  1.
         21   -1    0    0  501  502  0.00000000000E+00 -0.00000000000E+00 -0.53873094654E+03  0.53873094654E+03  0.00000000000E+00 0.  1.
         23    2    1    2    0    0  0.76401645407E+01 -0.10343221837E+02 -0.52353630752E+02  0.82623314717E+02  0.62612739356E+02 0.  0.
         23    2    1    2    0    0  0.43688086269E+02 -0.54103949474E+02 -0.15946494776E+03  0.19631876378E+03  0.90973079621E+02 0.  0.
        -11    1    3    3    0    0 -0.51794429474E+01  0.25295393729E+02 -0.17855478326E+02  0.31392701053E+02  0.00000000000E+00 0. -1.
         11    1    3    3    0    0  0.12819607488E+02 -0.35638615566E+02 -0.34498152426E+02  0.51230613664E+02  0.00000000000E+00 0.  1.
        -13    1    4    4    0    0 -0.24974361641E+02 -0.15405630891E+02 -0.76256874699E+02  0.81707791192E+02  0.00000000000E+00 0. -1.
         13    1    4    4    0    0  0.68662447911E+02 -0.38698318583E+02 -0.83208073065E+02  0.11461097259E+03  0.00000000000E+00 0.  1.
         -1    1    1    2    0  502 -0.51328250810E+02  0.64447171312E+02 -0.28756570843E+03  0.29913552763E+03  0.00000000000E+00 0.  1.
<scales pt_clust_5="13000.00000" pt_clust_6="13000.00000" pt_clust_7="13000.00000" pt_clust_8="13000.00000" pt_clust_9="79.31920"></scales>
<clustering>
<clus scale="   62.613">  5  6 -1 -1</clus>
<clus scale="   63.920">  1  5  2 -1</clus>
<clus scale="   79.319">  2  9  1 -1</clus>
<clus scale="   90.973">  7  8 -1 -1</clus>
<clus scale="   79.319">  2  5  1 -1</clus>
</clustering>
</event>
<event>
 9    1  0.1426358E-005  0.1713142E+03  0.7546771E-02  0.1180937E+00
          2   -1    0    0  502    0 -0.00000000000E+00  0.00000000000E+00  0.79849534700E+03  0.79849534700E+03  0.00000000000E+00 0. -1.
         21   -1    0    0  501  502  0.00000000000E+00 -0.00000000000E+00 -0.97037122175E+02  0.97037122175E+02  0.00000000000E+00 0. -1.
         23    2    1    2    0    0 -0.12521078661E+03 -0.82713527410E+02  0.43805436177E+03  0.47151795954E+03  0.88984794195E+02 0.  0.
         23    2    1    2    0    0  0.10483340871E+03  0.17658196612E+02  0.30588610304E+03  0.34368908210E+03  0.11512611185E+03 0.  0.
        -11    1    3    3    0    0 -0.68746531918E+02 -0.19897315767E+02  0.99365838372E+02  0.12245635411E+03  0.00000000000E+00 0.  1.
         11    1    3    3    0    0 -0.56464254692E+02 -0.62816211644E+02  0.33868852340E+03  0.34906160543E+03  0.00000000000E+00 0. -1.
        -13    1    4    4    0    0  0.26802124365E+02  0.60475895803E+02  0.10702279565E+03  0.12581560568E+03  0.00000000000E+00 0. -1.
         13    1    4    4    0    0  0.78031284343E+02 -0.42817699191E+02  0.19886330740E+03  0.21787347642E+03  0.00000000000E+00 0.  1.
          2    1    1    2  501    0  0.20377377902E+02  0.65055330798E+02 -0.42482239988E+02  0.80325427542E+02  0.00000000000E+00 0. -1.
<scales pt_clust_5="13000.00000" pt_clust_6="13000.00000" pt_clust_7="13000.00000" pt_clust_8="13000.00000" pt_clust_9="68.17209"></scales>
<clustering>
<clus scale="   68.172">  2  9  1 -1</clus>
<clus scale="   88.985">  5  6 -1 -1</clus>
<clus scale="  115.126">  7  8 -1 -1</clus>
<clus scale="  154.961">  1  5  2 -1</clus>
<clus scale="   68.172">  2  5  1 -1</clus>
</clustering>
</event>
<event>
 9    1  0.1426358E-005  0.1007891E+03  0.7546771E-02  0.1279242E+00
         21   -1    0    0  501  502  0.00000000000E+00  0.00000000000E+00  0.18433285775E+03  0.18433285775E+03  0.00000000000E+00 0.  1.
          1   -1    0    0  502    0 -0.00000000000E+00 -0.00000000000E+00 -0.12169562218E+03  0.12169562218E+03  0.00000000000E+00 0. -1.
         23    2    1    2    0    0  0.51665037621E+02  0.38078973281E+01 -0.63274041123E+02  0.12257189918E+03  0.91304381023E+02 0.  0.
         23    2    1    2    0    0 -0.13437701778E+02  0.96471617210E+01  0.74767236577E+02  0.11820261031E+03  0.90044865821E+02 0.  0.
        -11    1    3    3    0    0  0.40273459353E+02  0.44434076423E+02 -0.50744142475E+02  0.78557664625E+02  0.00000000000E+00 0.  1.
         11    1    3    3    0    0  0.11391578268E+02 -0.40626179095E+02 -0.12529898648E+02  0.44014234554E+02  0.00000000000E+00 0. -1.
        -13    1    4    4    0    0  0.12871586893E+02  0.40293337582E+02  0.12725727944E+02  0.44172106066E+02  0.00000000000E+00 0.  1.
         13    1    4    4    0    0 -0.26309288671E+02 -0.30646175861E+02  0.62041508633E+02  0.74030504245E+02  0.00000000000E+00 0. -1.
          1    1    1    2  501    0 -0.38227335843E+02 -0.13455059049E+02  0.51144040112E+02  0.65253970444E+02  0.00000000000E+00 0. -1.
<scales pt_clust_5="13000.00000" pt_clust_6="13000.00000" pt_clust_7="13000.00000" pt_clust_8="13000.00000" pt_clust_9="40.52614"></scales>
<clustering>
<clus scale="   40.526">  1  9  2 -1</clus>
<clus scale="   90.045">  7  8 -1 -1</clus>
<clus scale="   91.304">  5  6 -1 -1</clus>
<clus scale="   99.649">  1  7  2 -1</clus>
<clus scale="   40.526">  1  5  2 -1</clus>
</clustering>
</event>
<event>
 9    1  0.1426358E-005  0.9538575E+02  0.7546771E-02  0.1291222E+00
         21   -1    0    0  501  502  0.00000000000E+00  0.00000000000E+00  0.22391629473E+03  0.22391629473E+03  0.00000000000E+00 0.  1.
         -3   -1    0    0    0  501 -0.00000000000E+00 -0.00000000000E+00 -0.91907861001E+02  0.91907861001E+02  0.00000000000E+00 0.  1.
         23    2    1    2    0    0 -0.36581946988E+02  0.21059600428E+02 -0.16484333911E+01  0.10027739538E+03  0.90945550065E+02 0.  0.
         23    2    1    2    0    0 -0.15130552500E+01 -0.27180356896E+01  0.20712271459E+02  0.94947739283E+02  0.92608843810E+02 0.  0.
        -11    1    4    4    0    0 -0.17870549795E+02  0.37794876230E+02  0.28461417103E+02  0.50575305068E+02  0.00000000000E+00 0.  1.
         11    1    4    4    0    0  0.16357494545E+02 -0.40512911919E+02 -0.77491456440E+01  0.44372434215E+02  0.00000000000E+00 0. -1.
        -13    1    3    3    0    0  0.81376819294E+01  0.47328176389E+02 -0.51338907830E+01  0.48296324726E+02  0.00000000000E+00 0. -1.
         13    1    3    3    0    0 -0.44719628918E+02 -0.26268575960E+02  0.34854573918E+01  0.51981070658E+02  0.00000000000E+00 0.  1.
         -3    1    1    2    0  502  0.38095002238E+02 -0.18341564739E+02  0.11294459566E+03  0.12059902107E+03  0.00000000000E+00 0.  1.
<scales pt_clust_5="13000.00000" pt_clust_6="13000.00000" pt_clust_7="13000.00000" pt_clust_8="13000.00000" pt_clust_9="42.28052"></scales>
<clustering>
<clus scale="   42.281">  1  9  2 -1</clus>
<clus scale="   90.946">  7  8 -1 -1</clus>
<clus scale="   92.609">  5  6 -1 -1</clus>
<clus scale="   93.772">  2  7  1 -1</clus>
<clus scale="   42.281">  1  5  2 -1</clus>
</clustering>
</event>
<event>
 9    1  0.1426358E-005  0.9347697E+02  0.7546771E-02  0.1295253E+00
          3   -1    0    0  502    0 -0.00000000000E+00  0.00000000000E+00  0.47438981918E+03  0.47438981918E+03  0.00000000000E+00 0. -1.
         21   -1    0    0  501  502  0.00000000000E+00 -0.00000000000E+00 -0.52077807554E+02  0.52077807554E+02  0.00000000000E+00 0. -1.
         23    2    1    2    0    0  0.30312649373E+02 -0.16221039898E+01  0.29716998523E+03  0.31242832708E+03  0.91542184288E+02 0.  0.
         23    2    1    2    0    0  0.39470059009E+02  0.60263685020E+01  0.92618762292E+02  0.13692388847E+03  0.92605147964E+02 0.  0.
        -11    1    4    4    0    0  0.57000092846E+01 -0.22345317187E+02  0.89815252388E+02  0.92728543974E+02  0.00000000000E+00 0.  1.
         11    1    4    4    0    0  0.33770049725E+02  0.28371685689E+02  0.28035099041E+01  0.44195344495E+02  0.00000000000E+00 0. -1.
        -13    1    3    3    0    0 -0.31440155109E+02 -0.10837716975E+02  0.85424242985E+02  0.91669191946E+02  0.00000000000E+00 0.  1.
         13    1    3    3    0    0  0.61752804482E+02  0.92156129855E+01  0.21174574225E+03  0.22075913513E+03  0.00000000000E+00 0. -1.
          3    1    1    2  501    0 -0.69782708382E+02 -0.44042645122E+01  0.32523264106E+02  0.77115411191E+02  0.00000000000E+00 0. -1.
<scales pt_clust_5="13000.00000" pt_clust_6="13000.00000" pt_clust_7="13000.00000" pt_clust_8="13000.00000" pt_clust_9="69.92156"></scales>
<clustering>
<clus scale="   69.922">  2  9  1 -1</clus>
<clus scale="   91.542">  7  8 -1 -1</clus>
<clus scale="   92.424">  1  7  2 -1</clus>
<clus scale="   92.605">  5  6 -1 -1</clus>
<clus scale="   69.922">  2  5  1 -1</clus>
</clustering>
</event>
<event>
 9    1  0.1426358E-005  0.9637786E+02  0.7546771E-02  0.1291526E+00
         -2   -1    0    0    0  501 -0.00000000000E+00  0.00000000000E+00  0.41634579864E+02  0.41634579864E+02  0.00000000000E+00 0.  1.
         21   -1    0    0  501  502  0.00000000000E+00 -0.00000000000E+00 -0.36711684557E+03  0.36711684557E+03  0.00000000000E+00 0. -1.
         23    2    1    2    0    0 -0.14102980173E+01  0.16351563529E+02 -0.77070481606E+02  0.11721004493E+03  0.86769654408E+02 0.  0.
         23    2    1    2    0    0  0.44810549838E+02 -0.21037583247E+02 -0.14442229977E+03  0.17876126927E+03  0.92990458843E+02 0.  0.
        -11    1    3    3    0    0  0.25824632373E+02  0.94168346686E+01  0.71679660537E+01  0.28407184826E+02  0.00000000000E+00 0. -1.
         11    1    3    3    0    0 -0.27234930390E+02  0.69347288601E+01 -0.84238447660E+02  0.88802860100E+02  0.00000000000E+00 0.  1.
        -13    1    4    4    0    0 -0.10190730867E+01 -0.50726581800E+02 -0.70282831900E+02  0.86682761094E+02  0.00000000000E+00 0.  1.
         13    1    4    4    0    0  0.45829622924E+02  0.29688998553E+02 -0.74139467867E+02  0.92078508177E+02  0.00000000000E+00 0. -1.
         -2    1    1    2    0  502 -0.43400251820E+02  0.46860197179E+01 -0.10398948434E+03  0.11278011124E+03  0.00000000000E+00 0.  1.
<scales pt_clust_5="13000.00000" pt_clust_6="13000.00000" pt_clust_7="13000.00000" pt_clust_8="13000.00000" pt_clust_9="43.65250"></scales>
<clustering>
<clus scale="   43.652">  2  9  1 -1</clus>
<clus scale="   86.770">  5  6 -1 -1</clus>
<clus scale="   90.390">  1  5  2 -1</clus>
<clus scale="   92.990">  7  8 -1 -1</clus>
<clus scale="   43.652">  2  5  1 -1</clus>
</clustering>
</event>
<event>
 9    1  0.2487147E-005  0.1008794E+03  0.7546771E-02  0.1278562E+00
          2   -1    0    0  502    0 -0.00000000000E+00  0.00000000000E+00  0.82217991115E+03  0.82217991115E+03  0.00000000000E+00 0. -1.
         21   -1    0    0  501  502  0.00000000000E+00 -0.00000000000E+00 -0.33955349710E+02  0.33955349710E+02  0.00000000000E+00 0.  1.
         23    2    1    2    0    0  0.20055462374E+02  0.35003676428E+02  0.55760565206E+03  0.56632774040E+03  0.90418844279E+02 0.  0.
         23    2    1    2    0    0 -0.41369575510E+02 -0.56367257693E+02  0.88981243306E+02  0.14499066207E+03  0.90641717269E+02 0.  0.
        -11    1    3    3    0    0  0.28621196202E+02  0.63281055662E+02  0.39510420303E+03  0.40116205719E+03  0.00000000000E+00 0. -1.
         11    1    3    3    0    0 -0.85657338289E+01 -0.28277379235E+02  0.16250144903E+03  0.16516568321E+03  0.00000000000E+00 0.  1.
        -11    1    4    4    0    0 -0.58813084465E+02 -0.68077448528E+02  0.56266149946E+02  0.10611030832E+03  0.00000000000E+00 0.  1.
         11    1    4    4    0    0  0.17443508955E+02  0.11710190835E+02  0.32715093360E+02  0.38880353748E+02  0.00000000000E+00 0. -1.
          2    1    1    2  501    0  0.21314113137E+02  0.21363581266E+02  0.14163766607E+03  0.14481685839E+03  0.00000000000E+00 0. -1.
<scales pt_clust_5="13000.00000" pt_clust_6="13000.00000" pt_clust_7="13000.00000" pt_clust_8="13000.00000" pt_clust_9="30.17772"></scales>
<clustering>
<clus scale="   30.178">  2  9  1 -1</clus>
<clus scale="   90.419">  5  6 -1 -1</clus>
<clus scale="   90.642">  7  8 -1 -1</clus>
<clus scale="  100.679">  1  5  2 -1</clus>
<clus scale="   30.178">  2  5  1 -1</clus>
</clustering>
</event>
<event>
 9    1  0.1426358E-005  0.1441670E+03  0.7546771E-02  0.1208468E+00
         21   -1    0    0  501  502  0.00000000000E+00  0.00000000000E+00  0.71431556778E+02  0.71431556778E+02  0.00000000000E+00 0. -1.
          2   -1    0    0  502    0 -0.00000000000E+00 -0.00000000000E+00 -0.65047782510E+03  0.65047782510E+03  0.00000000000E+00 0. -1.
         23    2    1    2    0    0 -0.12350007141E+03 -0.49016190887E+02 -0.47408557361E+03  0.50107603517E+03  0.93087095330E+02 0.  0.
         23    2    1    2    0    0  0.43752393597E+02  0.50554294054E+02 -0.78172618796E+02  0.13669263784E+03  0.90021721361E+02 0.  0.
        -13    1    4    4    0    0  0.63695440255E+02  0.15582291551E+02 -0.69419415850E+02  0.95493309798E+02  0.00000000000E+00 0. -1.
         13    1    4    4    0    0 -0.19943046658E+02  0.34972002503E+02 -0.87532029460E+01  0.41199328040E+02  0.00000000000E+00 0.  1.
        -13    1    3    3    0    0 -0.11040934755E+03 -0.11193796598E+02 -0.41591937226E+03  0.43047003302E+03  0.00000000000E+00 0. -1.
         13    1    3    3    0    0 -0.13090723852E+02 -0.37822394288E+02 -0.58166201350E+02  0.70606002154E+02  0.00000000000E+00 0.  1.
          2    1    1    2  501    0  0.79747677809E+02 -0.15381031677E+01 -0.26788075921E+02  0.84140708868E+02  0.00000000000E+00 0. -1.
<scales pt_clust_5="13000.00000" pt_clust_6="13000.00000" pt_clust_7="13000.00000" pt_clust_8="13000.00000" pt_clust_9="79.76251"></scales>
<clustering>
<clus scale="   79.763">  1  9  2 -1</clus>
<clus scale="   90.022">  5  6 -1 -1</clus>
<clus scale="   93.087">  7  8 -1 -1</clus>
<clus scale="  142.207">  1  5  2 -1</clus>
<clus scale="   79.763">  1  5  2 -1</clus>
</clustering>
</event>
<event>
 9    1  0.1426358E-005  0.2397605E+03  0.7546771E-02  0.1122840E+00
         21   -1    0    0  501  502  0.00000000000E+00  0.00000000000E+00  0.70965675945E+02  0.70965675945E+02  0.00000000000E+00 0. -1.
          2   -1    0    0  502    0 -0.00000000000E+00 -0.00000000000E+00 -0.13215106375E+04  0.13215106375E+04  0.00000000000E+00 0. -1.
         23    2    1    2    0    0  0.17741684015E+03  0.92266160167E+01 -0.55441571247E+03  0.58884725370E+03  0.88331423324E+02 0.  0.
         23    2    1    2    0    0 -0.27391425339E+03 -0.59419807996E+01 -0.47473985426E+03  0.56210099981E+03  0.12456034451E+03 0.  0.
        -11    1    3    3    0    0  0.73072496337E+02 -0.39690643192E+02 -0.23000281118E+03  0.24457356772E+03  0.00000000000E+00 0. -1.
         11    1    3    3    0    0  0.10434434382E+03  0.48917259208E+02 -0.32441290129E+03  0.34427368598E+03  0.00000000000E+00 0.  1.
        -11    1    4    4    0    0 -0.21372934677E+03  0.34658263815E+02 -0.41497840592E+03  0.46806891191E+03  0.00000000000E+00 0. -1.
         11    1    4    4    0    0 -0.60184906615E+02 -0.40600244614E+02 -0.59761448341E+02  0.94032087900E+02  0.00000000000E+00 0.  1.
          2    1    1    2  501    0  0.96497413235E+02 -0.32846352171E+01 -0.22138939480E+03  0.24152805990E+03  0.00000000000E+00 0. -1.
<scales pt_clust_5="13000.00000" pt_clust_6="13000.00000" pt_clust_7="13000.00000" pt_clust_8="13000.00000" pt_clust_9="96.55335"></scales>
<clustering>
<clus scale="   88.331">  5  6 -1 -1</clus>
<clus scale="   96.553">  1  9  2 -1</clus>
<clus scale="  124.560">  7  8 -1 -1</clus>
<clus scale="  223.097">  2  5  1 -1</clus>
<clus scale="   96.553">  1  5  2 -1</clus>
</clustering>
</event>
<event>
 9    1  0.1426358E-005  0.1132915E+03  0.7546771E-02  0.1258685E+00
         -2   -1    0    0    0  501 -0.00000000000E+00  0.00000000000E+00  0.11774747699E+03  0.11774747699E+03  0.00000000000E+00 0.  1.
         21   -1    0    0  501  502  0.00000000000E+00 -0.00000000000E+00 -0.17274888544E+03  0.17274888544E+03  0.00000000000E+00 0. -1.
         23    2    1    2    0    0  0.18969169906E+02  0.28985293583E+02 -0.72784208097E+01  0.10815936582E+03  0.10220321108E+03 0.  0.
         23    2    1    2    0    0 -0.73597312295E+02 -0.15890018227E+02 -0.25061115181E+02  0.12176240919E+03  0.92352410589E+02 0.  0.
        -11    1    4    4    0    0  0.15260470668E+02  0.17854623183E+02 -0.91380637866E-01  0.23487824174E+02  0.00000000000E+00 0.  1.
         11    1    4    4    0    0 -0.88857782963E+02 -0.33744641410E+02 -0.24969734543E+02  0.98274585016E+02  0.00000000000E+00 0. -1.
        -13    1    3    3    0    0  0.12933170995E+02 -0.33516166361E+02  0.18347985977E+02  0.40339173380E+02  0.00000000000E+00 0.  1.
         13    1    3    3    0    0  0.60359989113E+01  0.62501459945E+02 -0.25626406787E+02  0.67820192442E+02  0.00000000000E+00 0. -1.
         -2    1    1    2    0  502  0.54628142388E+02 -0.13095275356E+02 -0.22661872459E+02  0.60574587417E+02  0.00000000000E+00 0.  1.
<scales pt_clust_5="13000.00000" pt_clust_6="13000.00000" pt_clust_7="13000.00000" pt_clust_8="13000.00000" pt_clust_9="56.17580"></scales>
<clustering>
<clus scale="   56.176">  2  9  1 -1</clus>
<clus scale="   92.352">  5  6 -1 -1</clus>
<clus scale="  102.203">  7  8 -1 -1</clus>
<clus scale="  104.491">  2  5  1 -1</clus>
<clus scale="   56.176">  2  5  1 -1</clus>
</clustering>
</event>
<event>
 9    1  0.1426358E-005  0.1554333E+03  0.7546771E-02  0.1196926E+00
         -3   -1    0    0    0  501 -0.00000000000E+00  0.00000000000E+00  0.22512660817E+03  0.22512660817E+03  0.00000000000E+00 0.  1.
         21   -1    0    0  501  502  0.00000000000E+00 -0.00000000000E+00 -0.16894497199E+03  0.16894497199E+03  0.00000000000E+00 0. -1.
         23    2    1    2    0    0  0.11051384067E+02 -0.12623503204E+03  0.89143648328E+02  0.17959461242E+03  0.90830712699E+02 0.  0.
         23    2    1    2    0    0  0.23450843312E+02  0.96170759675E+02  0.17950938318E+02  0.14601973516E+03  0.10583368935E+03 0.  0.
        -11    1    4    4    0    0  0.63355870108E+01  0.11743819476E+03  0.14136211872E+02  0.11845548420E+03  0.00000000000E+00 0. -1.
         11    1    4    4    0    0  0.17115256301E+02 -0.21267435082E+02  0.38147264454E+01  0.27564250961E+02  0.00000000000E+00 0.  1.
        -13    1    3    3    0    0 -0.25383575324E+02 -0.90868723375E+02  0.24656448939E+02  0.97516107686E+02  0.00000000000E+00 0. -1.
         13    1    3    3    0    0  0.36434959391E+02 -0.35366308665E+02  0.64487199389E+02  0.82078504735E+02  0.00000000000E+00 0.  1.
         -3    1    1    2    0  502 -0.34502227379E+02  0.30064272365E+02 -0.50912950471E+02  0.68457232581E+02  0.00000000000E+00 0.  1.
<scales pt_clust_5="13000.00000" pt_clust_6="13000.00000" pt_clust_7="13000.00000" pt_clust_8="13000.00000" pt_clust_9="45.76313"></scales>
<clustering>
<clus scale="   45.763">  2  9  1 -1</clus>
<clus scale="   90.831">  7  8 -1 -1</clus>
<clus scale="  105.834">  5  6 -1 -1</clus>
<clus scale="  145.633">  1  7  2 -1</clus>
<clus scale="   45.763">  2  5  1 -1</clus>
</clustering>
</event>
<event>
 9    1  0.1426358E-005  0.1102459E+03  0.7546771E-02  0.1261749E+00
          1   -1    0    0  502    0 -0.00000000000E+00  0.00000000000E+00  0.22910110000E+03  0.22910110000E+03  0.00000000000E+00 0. -1.
         21   -1    0    0  501  502  0.00000000000E+00 -0.00000000000E+00 -0.12389786005E+03  0.12389786005E+03  0.00000000000E+00 0.  1.
         23    2    1    2    0    0  0.40910772131E+02 -0.36033254435E+02  0.15983134760E+03  0.19353769568E+03  0.94544662841E+02 0.  0.
         23    2    1    2    0    0 -0.10319991932E+02  0.36189484237E+02 -0.10719017393E+02  0.10594651456E+03  0.98456008508E+02 0.  0.
        -11    1    3    3    0    0  0.34576725135E+02  0.20913612028E+02  0.26252126717E+02  0.48188206506E+02  0.00000000000E+00 0.  1.
         11    1    3    3    0    0  0.63340469960E+01 -0.56946866463E+02  0.13357922088E+03  0.14534948917E+03  0.00000000000E+00 0. -1.
        -11    1    4    4    0    0 -0.11421590335E+02 -0.31355014563E+02  0.10757062462E+02  0.35061432612E+02  0.00000000000E+00 0. -1.
         11    1    4    4    0    0  0.11015984027E+01  0.67544498800E+02 -0.21476079855E+02  0.70885081950E+02  0.00000000000E+00 0.  1.
          1    1    1    2  501    0 -0.30590780199E+02 -0.15622980254E+00 -0.43909090255E+02  0.53514749817E+02  0.00000000000E+00 0. -1.
<scales pt_clust_5="13000.00000" pt_clust_6="13000.00000" pt_clust_7="13000.00000" pt_clust_8="13000.00000" pt_clust_9="30.59118"></scales>
<clustering>
<clus scale="   30.591">  2  9  1 -1</clus>
<clus scale="   94.545">  5  6 -1 -1</clus>
<clus scale="   98.456">  7  8 -1 -1</clus>
<clus scale="  106.767">  1  5  2 -1</clus>
<clus scale="   30.591">  2  5  1 -1</clus>
</clustering>
</event>
<event>
 9    1  0.1426358E-005  0.1097094E+03  0.7546771E-02  0.1261311E+00
         21   -1    0    0  501  502  0.00000000000E+00  0.00000000000E+00  0.29326914911E+03  0.29326914911E+03  0.00000000000E+00 0. -1.
          1   -1    0    0  502    0 -0.00000000000E+00 -0.00000000000E+00 -0.14469095863E+03  0.14469095863E+03  0.00000000000E+00 0. -1.
         23    2    1    2    0    0 -0.64019783051E+02  0.41941230028E+02 -0.87493847324E+02  0.14733080023E+03  0.90518462081E+02 0.  0.
         23    2    1    2    0    0  0.20062807178E+01 -0.26056940524E+01  0.95211951541E+02  0.13177552959E+03  0.91042076412E+02 0.  0.
        -11    1    4    4    0    0 -0.19087941690E+02  0.19318801754E+02 -0.44971320721E+01  0.27527982419E+02  0.00000000000E+00 0. -1.
         11    1    4    4    0    0  0.21094222407E+02 -0.21924495807E+02  0.99709083613E+02  0.10424754717E+03  0.00000000000E+00 0.  1.
        -11    1    3    3    0    0  0.19525743865E+02 -0.75081393790E+01 -0.10407153338E+02  0.23365266338E+02  0.00000000000E+00 0.  1.
         11    1    3    3    0    0 -0.83545526917E+02  0.49449369407E+02 -0.77086693986E+02  0.12396553389E+03  0.00000000000E+00 0. -1.
          1    1    1    2  501    0  0.62013502334E+02 -0.39335535976E+02  0.14086008626E+03  0.15885377793E+03  0.00000000000E+00 0. -1.
<scales pt_clust_5="13000.00000" pt_clust_6="13000.00000" pt_clust_7="13000.00000" pt_clust_8="13000.00000" pt_clust_9="73.43677"></scales>
<clustering>
<clus scale="   73.437">  1  9  2 -1</clus>
<clus scale="   90.518">  7  8 -1 -1</clus>
<clus scale="   91.042">  5  6 -1 -1</clus>
<clus scale="  109.275">  2  7  1 -1</clus>
<clus scale="   73.437">  1  5  2 -1</clus>
</clustering>
</event>
<event>
 9    1  0.1426358E-005  0.2932643E+03  0.7546771E-02  0.1132987E+00
          1   -1    0    0  502    0 -0.00000000000E+00  0.00000000000E+00  0.33360091921E+03  0.33360091921E+03  0.00000000000E+00 0. -1.
         21   -1    0    0  501  502  0.00000000000E+00 -0.00000000000E+00 -0.68960625428E+03  0.68960625428E+03  0.00000000000E+00 0. -1.
         23    2    1    2    0    0 -0.80194092326E+01 -0.20057562424E+02 -0.20390011966E+02  0.97096238218E+02  0.92440846780E+02 0.  0.
         23    2    1    2    0    0  0.20475590115E+03  0.21404504973E+03  0.16733911766E+03  0.35226464752E+03  0.91365963157E+02 0.  0.
        -11    1    3    3    0    0  0.29815544787E+02  0.37579954561E+01 -0.38518115377E+02  0.48854216328E+02  0.00000000000E+00 0.  1.
         11    1    3    3    0    0 -0.37834954020E+02 -0.23815557880E+02  0.18128103411E+02  0.48242021891E+02  0.00000000000E+00 0. -1.
        -11    1    4    4    0    0  0.63846432485E+02  0.10675032952E+03  0.11016002834E+03  0.16615424050E+03  0.00000000000E+00 0. -1.
         11    1    4    4    0    0  0.14090946867E+03  0.10729472021E+03  0.57179089327E+02  0.18611040702E+03  0.00000000000E+00 0.  1.
          1    1    1    2  501    0 -0.19673649192E+03 -0.19398748730E+03 -0.50295444076E+03  0.57384628775E+03  0.00000000000E+00 0. -1.
<scales pt_clust_5="13000.00000" pt_clust_6="13000.00000" pt_clust_7="13000.00000" pt_clust_8="13000.00000" pt_clust_9="278.66860"></scales>
<clustering>
<clus scale="   91.366">  7  8 -1 -1</clus>
<clus scale="   92.441">  5  6 -1 -1</clus>
<clus scale="   94.931">  1  5  2 -1</clus>
<clus scale="  278.669">  2  9  1 -1</clus>
<clus scale="  278.669">  2  5  1 -1</clus>
</clustering>
</event>
<event>
 9    1  0.1426358E-005  0.9555572E+02  0.7546771E-02  0.1290339E+00
          1   -1    0    0  502    0 -0.00000000000E+00  0.00000000000E+00  0.20062571492E+03  0.20062571492E+03  0.00000000000E+00 0. -1.
         21   -1    0    0  501  502  0.00000000000E+00 -0.00000000000E+00 -0.11388493175E+03  0.11388493175E+03  0.00000000000E+00 0. -1.
         23    2    1    2    0    0 -0.13137112117E+02  0.20149001830E+02  0.12327914932E+03  0.15623243861E+03  0.92909957632E+02 0.  0.
         23    2    1    2    0    0  0.24273393920E+02 -0.32197692085E+01  0.20684638114E+02  0.97573283149E+02  0.92158161681E+02 0.  0.
        -11    1    4    4    0    0 -0.29969114466E+02 -0.70423506796E+01  0.29321491351E+02  0.42514613723E+02  0.00000000000E+00 0.  1.
         11    1    4    4    0    0  0.54242508386E+02  0.38225814712E+01 -0.86368532365E+01  0.55058669426E+02  0.00000000000E+00 0. -1.
        -13    1    3    3    0    0  0.12687195108E+02 -0.33776797819E+02  0.49912198324E+02  0.61587860266E+02  0.00000000000E+00 0.  1.
         13    1    3    3    0    0 -0.25824307225E+02  0.53925799649E+02  0.73366951000E+02  0.94644578347E+02  0.00000000000E+00 0. -1.
          1    1    1    2  501    0 -0.11136281803E+02 -0.16929232622E+02 -0.57223004270E+02  0.60704924901E+02  0.00000000000E+00 0. -1.
<scales pt_clust_5="13000.00000" pt_clust_6="13000.00000" pt_clust_7="13000.00000" pt_clust_8="13000.00000" pt_clust_9="20.26365"></scales>
<clustering>
<clus scale="   20.264">  2  9  1 -1</clus>
<clus scale="   92.158">  5  6 -1 -1</clus>
<clus scale="   92.910">  7  8 -1 -1</clus>
<clus scale="   94.825">  2  5  1 -1</clus>
<clus scale="   20.264">  2  5  1 -1</clus>
</clustering>
</event>
<event>
 9    1  0.1426358E-005  0.1017113E+03  0.7546771E-02  0.1277846E+00
          2   -1    0    0  502    0 -0.00000000000E+00  0.00000000000E+00  0.13350190278E+03  0.13350190278E+03  0.00000000000E+00 0. -1.
         21   -1    0    0  501  502  0.00000000000E+00 -0.00000000000E+00 -0.12087910864E+03  0.12087910864E+03  0.00000000000E+00 0. -1.
         23    2    1    2    0    0 -0.71898882551E+01  0.54325829524E+02  0.33089599253E+02  0.10933479663E+03  0.88635128070E+02 0.  0.
         23    2    1    2    0    0  0.14063240217E+02 -0.33365353271E+02  0.19043351733E+02  0.99795391305E+02  0.91024443729E+02 0.  0.
        -11    1    4    4    0    0  0.17187622966E+02  0.14174366602E+02 -0.25994283109E+02  0.34234920858E+02  0.00000000000E+00 0. -1.
         11    1    4    4    0    0 -0.31243827488E+01 -0.47539719873E+02  0.45037634842E+02  0.65560470448E+02  0.00000000000E+00 0.  1.
        -11    1    3    3    0    0  0.29733311819E+02  0.20386275941E+02 -0.15740738844E+02  0.39337525823E+02  0.00000000000E+00 0.  1.
         11    1    3    3    0    0 -0.36923200075E+02  0.33939553584E+02  0.48830338098E+02  0.69997270804E+02  0.00000000000E+00 0. -1.
          2    1    1    2  501    0 -0.68733519621E+01 -0.20960476253E+02 -0.39510156849E+02  0.45250823486E+02  0.00000000000E+00 0. -1.
<scales pt_clust_5="13000.00000" pt_clust_6="13000.00000" pt_clust_7="13000.00000" pt_clust_8="13000.00000" pt_clust_9="22.05866"></scales>
<clustering>
<clus scale="   22.059">  2  9  1 -1</clus>
<clus scale="   88.635">  7  8 -1 -1</clus>
<clus scale="   91.024">  5  6 -1 -1</clus>
<clus scale="   99.579">  1  7  2 -1</clus>
<clus scale="   22.059">  2  5  1 -1</clus>
</clustering>
</event>
<event>
 9    1  0.1426358E-005  0.1977853E+03  0.7546771E-02  0.1151652E+00
          1   -1    0    0  502    0 -0.00000000000E+00  0.00000000000E+00  0.61812653637E+03  0.61812653637E+03  0.00000000000E+00 0. -1.
         21   -1    0    0  501  502  0.00000000000E+00 -0.00000000000E+00 -0.13668563768E+03  0.13668563768E+03  0.00000000000E+00 0. -1.
         23    2    1    2    0    0  0.48223732093E+01 -0.15355629587E+03  0.27845559256E+03  0.33071794575E+03  0.90741673618E+02 0.  0.
         23    2    1    2    0    0 -0.23959171639E+02  0.21262693760E+03  0.25353463172E+03  0.34402680618E+03  0.91051509538E+02 0.  0.
        -11    1    3    3    0    0 -0.19015602784E+02 -0.15302102724E+03  0.23329137987E+03  0.27964601883E+03  0.00000000000E+00 0.  1.
         11    1    3    3    0    0  0.23837975993E+02 -0.53526863561E+00  0.45164212688E+02  0.51071926923E+02  0.00000000000E+00 0. -1.
        -13    1    4    4    0    0 -0.10076545819E+02  0.17564119393E+03  0.24810454825E+03  0.30415001667E+03  0.00000000000E+00 0. -1.
         13    1    4    4    0    0 -0.13882625820E+02  0.36985743672E+02  0.54300834679E+01  0.39876789503E+02  0.00000000000E+00 0.  1.
          1    1    1    2  501    0  0.19136798430E+02 -0.59070641728E+02 -0.50549325579E+02  0.80067422119E+02  0.00000000000E+00 0. -1.
<scales pt_clust_5="13000.00000" pt_clust_6="13000.00000" pt_clust_7="13000.00000" pt_clust_8="13000.00000" pt_clust_9="62.09314"></scales>
<clustering>
<clus scale="   62.093">  2  9  1 -1</clus>
<clus scale="   90.742">  5  6 -1 -1</clus>
<clus scale="   91.052">  7  8 -1 -1</clus>
<clus scale="  197.643">  1  5  2 -1</clus>
<clus scale="   62.093">  2  5  1 -1</clus>
</clustering>
</event>
<event>
 9    1  0.1426358E-005  0.9595823E+02  0.7546771E-02  0.1289888E+00
         -1   -1    0    0    0  501 -0.00000000000E+00  0.00000000000E+00  0.29480283878E+03  0.29480283878E+03  0.00000000000E+00 0.  1.
         21   -1    0    0  501  502  0.00000000000E+00 -0.00000000000E+00 -0.53916375635E+02  0.53916375635E+02  0.00000000000E+00 0.  1.
         23    2    1    2    0    0  0.32398914957E+02  0.13637160902E+02  0.12009979301E+03  0.15323669063E+03  0.88441286879E+02 0.  0.
         23    2    1    2    0    0 -0.33058365453E+02  0.24742051293E+02  0.12188912027E+03  0.15708181807E+03  0.90070612856E+02 0.  0.
        -11    1    3    3    0    0  0.60265005647E+02 -0.66211715768E+01  0.73317476874E+02  0.95137601577E+02  0.00000000000E+00 0. -1.
         11    1    3    3    0    0 -0.27866090690E+02  0.20258332479E+02  0.46782316139E+02  0.58099089050E+02  0.00000000000E+00 0.  1.
        -13    1    4    4    0    0  0.16216367380E+02  0.41403271107E+02  0.38589116270E+02  0.58875473025E+02  0.00000000000E+00 0.  1.
         13    1    4    4    0    0 -0.49274732833E+02 -0.16661219814E+02  0.83300003995E+02  0.98206345044E+02  0.00000000000E+00 0. -1.
         -1    1    1    2    0  502  0.65945049588E+00 -0.38379212196E+02 -0.11024501294E+01  0.38400705723E+02  0.00000000000E+00 0.  1.
<scales pt_clust_5="13000.00000" pt_clust_6="13000.00000" pt_clust_7="13000.00000" pt_clust_8="13000.00000" pt_clust_9="38.38488"></scales>
<clustering>
<clus scale="   38.385">  2  9  1 -1</clus>
<clus scale="   88.441">  5  6 -1 -1</clus>
<clus scale="   90.071">  7  8 -1 -1</clus>
<clus scale="   94.431">  1  5  2 -1</clus>
<clus scale="   38.385">  2  5  1 -1</clus>
</clustering>
</event>
<event>
 9    1  0.1426358E-005  0.1475315E+03  0.7546771E-02  0.1203541E+00
         21   -1    0    0  501  502  0.00000000000E+00  0.00000000000E+00  0.19571015123E+03  0.19571015123E+03  0.00000000000E+00 0.  1.
          2   -1    0    0  502    0 -0.00000000000E+00 -0.00000000000E+00 -0.14268197163E+03  0.14268197163E+03  0.00000000000E+00 0. -1.
         23    2    1    2    0    0  0.50322285428E+02  0.10174354843E+03 -0.22245648373E+02  0.14765480886E+03  0.91776857930E+02 0.  0.
         23    2    1    2    0    0 -0.69861196594E+02 -0.97378851548E+02  0.51124626852E+02  0.15936848324E+03  0.91767959877E+02 0.  0.
        -11    1    4    4    0    0 -0.42351641605E+02  0.56581941999E+01  0.25240043768E+02  0.49625966163E+02  0.00000000000E+00 0.  1.
         11    1    4    4    0    0 -0.27509554989E+02 -0.10303704575E+03  0.25884583084E+02  0.10974251707E+03  0.00000000000E+00 0. -1.
        -11    1    3    3    0    0  0.65515177579E+02  0.55662877246E+02 -0.41490325150E+02  0.95457013768E+02  0.00000000000E+00 0. -1.
         11    1    3    3    0    0 -0.15192892151E+02  0.46080671183E+02  0.19244676777E+02  0.52197795095E+02  0.00000000000E+00 0.  1.
          2    1    1    2  501    0  0.19538911167E+02 -0.43646968808E+01  0.24149201115E+02  0.31368830755E+02  0.00000000000E+00 0. -1.
<scales pt_clust_5="13000.00000" pt_clust_6="13000.00000" pt_clust_7="13000.00000" pt_clust_8="13000.00000" pt_clust_9="20.02048"></scales>
<clustering>
<clus scale="   20.020">  1  9  2 -1</clus>
<clus scale="   91.768">  5  6 -1 -1</clus>
<clus scale="   91.777">  7  8 -1 -1</clus>
<clus scale="  147.526">  1  5  2 -1</clus>
<clus scale="   20.020">  1  5  2 -1</clus>
</clustering>
</event>
<event>
 9    1  0.1426358E-005  0.1876651E+03  0.7546771E-02  0.1192099E+00
         21   -1    0    0  501  502  0.00000000000E+00  0.00000000000E+00  0.29135613936E+03  0.29135613936E+03  0.00000000000E+00 0. -1.
          2   -1    0    0  502    0 -0.00000000000E+00 -0.00000000000E+00 -0.18329488506E+03  0.18329488506E+03  0.00000000000E+00 0. -1.
         23    2    1    2    0    0 -0.12321106475E+02  0.58118020896E+01 -0.33027568845E+02  0.97732750155E+02  0.90968584911E+02 0.  0.
         23    2    1    2    0    0 -0.13756675592E+03  0.69299954561E+02  0.62427686167E+02  0.19172723304E+03  0.95577297795E+02 0.  0.
        -11    1    4    4    0    0 -0.45452021361E+02 -0.84335375834E+01  0.53735248276E+02  0.70883620881E+02  0.00000000000E+00 0.  1.
         11    1    4    4    0    0 -0.92114734558E+02  0.77733492144E+02  0.86924378903E+01  0.12084361216E+03  0.00000000000E+00 0. -1.
        -13    1    3    3    0    0  0.38713297322E+02 -0.70139335098E+01 -0.15088618244E+02  0.42137644136E+02  0.00000000000E+00 0. -1.
         13    1    3    3    0    0 -0.51034403797E+02  0.12825735599E+02 -0.17938950602E+02  0.55595106019E+02  0.00000000000E+00 0.  1.
          2    1    1    2  501    0  0.14988786239E+03 -0.75111756650E+02  0.78661136972E+02  0.18519104122E+03  0.00000000000E+00 0. -1.
<scales pt_clust_5="13000.00000" pt_clust_6="13000.00000" pt_clust_7="13000.00000" pt_clust_8="13000.00000" pt_clust_9="161.50280"></scales>
<clustering>
<clus scale="   90.969">  7  8 -1 -1</clus>
<clus scale="   91.983">  2  7  1 -1</clus>
<clus scale="   95.577">  5  6 -1 -1</clus>
<clus scale="  161.503">  1  9  2 -1</clus>
<clus scale="  161.503">  1  5  2 -1</clus>
</clustering>
</event>
<event>
 9    1  0.1426358E-005  0.1032614E+03  0.7546771E-02  0.1274113E+00
         -1   -1    0    0    0  501 -0.00000000000E+00  0.00000000000E+00  0.17591631814E+03  0.17591631814E+03  0.00000000000E+00 0.  1.
         21   -1    0    0  501  502  0.00000000000E+00 -0.00000000000E+00 -0.18766646132E+03  0.18766646132E+03  0.00000000000E+00 0.  1.
         23    2    1    2    0    0  0.30239165630E+02  0.13350989511E+02  0.77525860115E+02  0.12411107362E+03  0.91107867654E+02 0.  0.
         23    2    1    2    0    0 -0.69184955515E+02 -0.27495518767E+02  0.22125702211E+02  0.12061388218E+03  0.92280010043E+02 0.  0.
        -13    1    3    3    0    0  0.45293374131E+02  0.39722036354E+02  0.28983025631E+02  0.66853165123E+02  0.00000000000E+00 0. -1.
         13    1    3    3    0    0 -0.15054208501E+02 -0.26371046843E+02  0.48542834484E+02  0.57257908492E+02  0.00000000000E+00 0.  1.
        -13    1    4    4    0    0 -0.41646312666E+02 -0.21416379412E+02  0.58278319166E+02  0.74762551793E+02  0.00000000000E+00 0.  1.
         13    1    4    4    0    0 -0.27538642849E+02 -0.60791393553E+01 -0.36152616955E+02  0.45851330384E+02  0.00000000000E+00 0. -1.
         -1    1    1    2    0  502  0.38945789885E+02  0.14144529255E+02 -0.11140170551E+03  0.11885782367E+03  0.00000000000E+00 0.  1.
<scales pt_clust_5="13000.00000" pt_clust_6="13000.00000" pt_clust_7="13000.00000" pt_clust_8="13000.00000" pt_clust_9="41.43480"></scales>
<clustering>
<clus scale="   41.435">  2  9  1 -1</clus>
<clus scale="   91.108">  5  6 -1 -1</clus>
<clus scale="   92.280">  7  8 -1 -1</clus>
<clus scale="  102.215">  1  5  2 -1</clus>
<clus scale="   41.435">  2  5  1 -1</clus>
</clustering>
</event>
<event>
 9    1  0.1426358E-005  0.1037101E+03  0.7546771E-02  0.1274145E+00
          2   -1    0    0  502    0 -0.00000000000E+00  0.00000000000E+00  0.34855578750E+02  0.34855578750E+02  0.00000000000E+00 0. -1.
         21   -1    0    0  501  502  0.00000000000E+00 -0.00000000000E+00 -0.53128666967E+03  0.53128666967E+03  0.00000000000E+00 0. -1.
         23    2    1    2    0    0  0.13662443561E+02  0.24832629580E+02 -0.15211339251E+03  0.17867033517E+03  0.89338024563E+02 0.  0.
         23    2    1    2    0    0  0.81870549383E+01 -0.73424469997E+02 -0.18676328759E+03  0.22115306312E+03  0.92574138251E+02 0.  0.
        -13    1    3    3    0    0  0.14048010295E+02 -0.32713225818E+02 -0.67981411289E+02  0.76739650882E+02  0.00000000000E+00 0. -1.
         13    1    3    3    0    0 -0.38556673374E+00  0.57545855398E+02 -0.84131981220E+02  0.10193068429E+03  0.00000000000E+00 0.  1.
        -13    1    4    4    0    0  0.39541175823E+02 -0.42202935754E+01 -0.87831483714E+02  0.96414132754E+02  0.00000000000E+00 0.  1.
         13    1    4    4    0    0 -0.31354120884E+02 -0.69204176422E+02 -0.98931803878E+02  0.12473893037E+03  0.00000000000E+00 0. -1.
          2    1    1    2  501    0 -0.21849498500E+02  0.48591840417E+02 -0.15755441082E+03  0.16631885013E+03  0.00000000000E+00 0. -1.
<scales pt_clust_5="13000.00000" pt_clust_6="13000.00000" pt_clust_7="13000.00000" pt_clust_8="13000.00000" pt_clust_9="53.27821"></scales>
<clustering>
<clus scale="   53.278">  2  9  1 -1</clus>
<clus scale="   89.338">  5  6 -1 -1</clus>
<clus scale="   92.574">  7  8 -1 -1</clus>
<clus scale="  100.832">  1  5  2 -1</clus>
<clus scale="   53.278">  2  5  1 -1</clus>
</clustering>
</event>
<event>
 9    1  0.1426358E-005  0.1021222E+03  0.7546771E-02  0.1276015E+00
          3   -1    0    0  502    0 -0.00000000000E+00  0.00000000000E+00  0.63390463021E+02  0.63390463021E+02  0.00000000000E+00 0. -1.
         21   -1    0    0  501  502  0.00000000000E+00 -0.00000000000E+00 -0.44981180373E+03  0.44981180373E+03  0.00000000000E+00 0. -1.
         23    2    1    2    0    0 -0.25492926913E+02  0.28029813199E+02 -0.17376422008E+02  0.10189744616E+03  0.92981663467E+02 0.  0.
         23    2    1    2    0    0  0.11732086591E+02 -0.57046497360E+02 -0.12937286256E+03  0.16949079458E+03  0.92724576899E+02 0.  0.
        -13    1    4    4    0    0 -0.37931234075E+02 -0.33326268082E+02 -0.39508386703E+02  0.64111865381E+02  0.00000000000E+00 0. -1.
         13    1    4    4    0    0  0.49663320666E+02 -0.23720229278E+02 -0.89864475861E+02  0.10537892920E+03  0.00000000000E+00 0.  1.
        -13    1    3    3    0    0 -0.98269324030E+01 -0.34515991665E+02 -0.48474402999E+01  0.36213532810E+02  0.00000000000E+00 0. -1.
         13    1    3    3    0    0 -0.15665994510E+02  0.62545804864E+02 -0.12528981708E+02  0.65683913348E+02  0.00000000000E+00 0.  1.
          3    1    1    2  501    0  0.13760840322E+02  0.29016684161E+02 -0.23967205614E+03  0.24181402602E+03  0.00000000000E+00 0. -1.
<scales pt_clust_5="13000.00000" pt_clust_6="13000.00000" pt_clust_7="13000.00000" pt_clust_8="13000.00000" pt_clust_9="32.11431"></scales>
<clustering>
<clus scale="   32.114">  2  9  1 -1</clus>
<clus scale="   92.725">  5  6 -1 -1</clus>
<clus scale="   92.982">  7  8 -1 -1</clus>
<clus scale="  101.888">  2  5  1 -1</clus>
<clus scale="   32.114">  2  5  1 -1</clus>
</clustering>
</event>
<event>
 9    1  0.1426358E-005  0.1471303E+03  0.7546771E-02  0.1205050E+00
          1   -1    0    0  502    0 -0.00000000000E+00  0.00000000000E+00  0.51811348558E+03  0.51811348558E+03  0.00000000000E+00 0. -1.
         21   -1    0    0  501  502  0.00000000000E+00 -0.00000000000E+00 -0.76367072839E+02  0.76367072839E+02  0.00000000000E+00 0.  1.
         23    2    1    2    0    0 -0.14957371716E+03 -0.36411192699E+02  0.25520251398E+03  0.31216173405E+03  0.92836163472E+02 0.  0.
         23    2    1    2    0    0  0.59209478576E+02  0.38715081577E+02  0.62662702015E+02  0.12896448166E+03  0.87753082067E+02 0.  0.
        -13    1    3    3    0    0 -0.11235613110E+03 -0.56347927801E+02  0.23230859635E+03  0.26413305946E+03  0.00000000000E+00 0.  1.
         13    1    3    3    0    0 -0.37217586060E+02  0.19936735102E+02  0.22893917631E+02  0.48028674593E+02  0.00000000000E+00 0. -1.
        -13    1    4    4    0    0  0.52274042405E+02  0.17591334002E+02 -0.72247249667E+01  0.55625778126E+02  0.00000000000E+00 0.  1.
         13    1    4    4    0    0  0.69354361710E+01  0.21123747574E+02  0.69887426981E+02  0.73338703537E+02  0.00000000000E+00 0. -1.
          1    1    1    2  501    0  0.90364238580E+02 -0.23038888778E+01  0.12388119674E+03  0.15335434270E+03  0.00000000000E+00 0. -1.
<scales pt_clust_5="13000.00000" pt_clust_6="13000.00000" pt_clust_7="13000.00000" pt_clust_8="13000.00000" pt_clust_9="90.39365"></scales>
<clustering>
<clus scale="   87.753">  7  8 -1 -1</clus>
<clus scale="   90.394">  2  9  1 -1</clus>
<clus scale="   92.836">  5  6 -1 -1</clus>
<clus scale="  143.977">  2  7  1 -1</clus>
<clus scale="   90.394">  2  5  1 -1</clus>
</clustering>
</event>
<event>
 9    1  0.1426358E-005  0.1637377E+03  0.7546771E-02  0.1203839E+00
         21   -1    0    0  501  502  0.00000000000E+00  0.00000000000E+00  0.23365326895E+03  0.23365326895E+03  0.00000000000E+00 0. -1.
          2   -1    0    0  502    0 -0.00000000000E+00 -0.00000000000E+00 -0.61092486685E+03  0.61092486685E+03  0.00000000000E+00 0. -1.
         23    2    1    2    0    0  0.41696857157E+02  0.55964429867E+02 -0.45220864603E+03  0.46474641565E+03  0.81399791166E+02 0.  0.
         23    2    1    2    0    0 -0.98291035701E+02 -0.16405288642E+03 -0.34759686938E+02  0.21576042720E+03  0.93647471234E+02 0.  0.
        -11    1    3    3    0    0  0.32171091890E+01  0.65032527553E+02 -0.22957621245E+03  0.23863113115E+03  0.00000000000E+00 0.  1.
         11    1    3    3    0    0  0.38479747968E+02 -0.90680976857E+01 -0.22263243359E+03  0.22611528450E+03  0.00000000000E+00 0. -1.
        -13    1    4    4    0    0 -0.16642477406E+02 -0.79754308833E+02 -0.52712668282E+02  0.97037864924E+02  0.00000000000E+00 0.  1.
         13    1    4    4    0    0 -0.81648558295E+02 -0.84298577586E+02  0.17952981343E+02  0.11872256228E+03  0.00000000000E+00 0. -1.
          2    1    1    2  501    0  0.56594178544E+02  0.10808845655E+03  0.10969673508E+03  0.16407129295E+03  0.00000000000E+00 0. -1.
<scales pt_clust_5="13000.00000" pt_clust_6="13000.00000" pt_clust_7="13000.00000" pt_clust_8="13000.00000" pt_clust_9="134.31379"></scales>
<clustering>
<clus scale="   81.400">  5  6 -1 -1</clus>
<clus scale="   93.647">  7  8 -1 -1</clus>
<clus scale="  107.222">  2  5  1 -1</clus>
<clus scale="  134.314">  1  9  2 -1</clus>
<clus scale="  134.314">  1  5  2 -1</clus>
</clustering>
</event>
<event>
 9    1  0.1426358E-005  0.9764679E+02  0.7546771E-02  0.1286674E+00
         21   -1    0    0  501  502  0.00000000000E+00  0.00000000000E+00  0.49254789923E+02  0.49254789923E+02  0.00000000000E+00 0.  1.
          2   -1    0    0  502    0 -0.00000000000E+00 -0.00000000000E+00 -0.26071715015E+03  0.26071715015E+03  0.00000000000E+00 0. -1.
         23    2    1    2    0    0  0.78802104166E+01 -0.19332673997E+02 -0.95536463081E+02  0.13223766824E+03  0.89015364530E+02 0.  0.
         23    2    1    2    0    0 -0.24463963206E+02  0.42448330355E+02 -0.10359266282E+03  0.14672680348E+03  0.91634975973E+02 0.  0.
        -11    1    3    3    0    0  0.45518497708E+01  0.34585086733E+02 -0.53141949805E+02  0.63568186931E+02  0.00000000000E+00 0. -1.
         11    1    3    3    0    0  0.33283606458E+01 -0.53917760730E+02 -0.42394513276E+02  0.68669481305E+02  0.00000000000E+00 0.  1.
        -11    1    4    4    0    0 -0.38595898650E+02  0.64314569907E+01 -0.33435118794E+01  0.39270677399E+02  0.00000000000E+00 0.  1.
         11    1    4    4    0    0  0.14131935444E+02  0.36016873365E+02 -0.10024915095E+03  0.10745612608E+03  0.00000000000E+00 0. -1.
          2    1    1    2  501    0  0.16583752790E+02 -0.23115656358E+02 -0.12333234326E+02  0.31007468365E+02  0.00000000000E+00 0. -1.
<scales pt_clust_5="13000.00000" pt_clust_6="13000.00000" pt_clust_7="13000.00000" pt_clust_8="13000.00000" pt_clust_9="28.44916"></scales>
<clustering>
<clus scale="   28.449">  1  9  2 -1</clus>
<clus scale="   89.015">  5  6 -1 -1</clus>
<clus scale="   91.635">  7  8 -1 -1</clus>
<clus scale="   95.193">  2  5  1 -1</clus>
<clus scale="   28.449">  1  5  2 -1</clus>
</clustering>
</event>
<event>
 9    1  0.1426358E-005  0.1070913E+03  0.7546771E-02  0.1266210E+00
          2   -1    0    0  502    0 -0.00000000000E+00  0.00000000000E+00  0.52308304483E+03  0.52308304483E+03  0.00000000000E+00 0. -1.
         21   -1    0    0  501  502  0.00000000000E+00 -0.00000000000E+00 -0.37459988054E+02  0.37459988054E+02  0.00000000000E+00 0. -1.
         23    2    1    2    0    0  0.51609259741E+02 -0.44801394615E+02  0.21874875671E+03  0.24651390199E+03  0.90815222623E+02 0.  0.
         23    2    1    2    0    0 -0.28940273395E+01  0.48868947785E+02  0.11616035524E+03  0.15558541211E+03  0.91197822789E+02 0.  0.
        -13    1    4    4    0    0 -0.34975597631E+02  0.50007977035E+02  0.40081424230E+02  0.73011031804E+02  0.00000000000E+00 0. -1.
         13    1    4    4    0    0  0.32081570292E+02 -0.11390292494E+01  0.76078931011E+02  0.82574380311E+02  0.00000000000E+00 0.  1.
        -13    1    3    3    0    0  0.20880150838E+02  0.27156583045E+02  0.51297300701E+02  0.61683658784E+02  0.00000000000E+00 0.  1.
         13    1    3    3    0    0  0.30729108903E+02 -0.71957977661E+02  0.16745145601E+03  0.18483024320E+03  0.00000000000E+00 0. -1.
          2    1    1    2  501    0 -0.48715232401E+02 -0.40675531699E+01  0.15071394483E+03  0.15844371879E+03  0.00000000000E+00 0. -1.
<scales pt_clust_5="13000.00000" pt_clust_6="13000.00000" pt_clust_7="13000.00000" pt_clust_8="13000.00000" pt_clust_9="48.88478"></scales>
<clustering>
<clus scale="   48.885">  2  9  1 -1</clus>
<clus scale="   90.815">  7  8 -1 -1</clus>
<clus scale="   91.198">  5  6 -1 -1</clus>
<clus scale="  106.766">  1  7  2 -1</clus>
<clus scale="   48.885">  2  5  1 -1</clus>
</clustering>
</event>
<event>
 9    1  0.1426358E-005  0.1107351E+03  0.7546771E-02  0.1262126E+00
          1   -1    0    0  502    0 -0.00000000000E+00  0.00000000000E+00  0.24598992349E+03  0.24598992349E+03  0.00000000000E+00 0. -1.
         21   -1    0    0  501  502  0.00000000000E+00 -0.00000000000E+00 -0.12437203298E+03  0.12437203298E+03  0.00000000000E+00 0.  1.
         23    2    1    2    0    0  0.85813531877E+01 -0.41965585241E+02  0.13119117393E+03  0.16540889116E+03  0.91182384224E+02 0.  0.
         23    2    1    2    0    0 -0.12339121197E+02  0.68875489810E+02  0.56772028925E+02  0.13325952129E+03  0.98178153057E+02 0.  0.
        -13    1    4    4    0    0  0.22607827037E+02  0.80022142537E+02  0.45996135042E+02  0.95027898948E+02  0.00000000000E+00 0.  1.
         13    1    4    4    0    0 -0.34946948235E+02 -0.11146652727E+02  0.10775893883E+02  0.38231622342E+02  0.00000000000E+00 0. -1.
        -13    1    3    3    0    0  0.38912332828E+02  0.94553693631E+01  0.41537540743E+02  0.57696975197E+02  0.00000000000E+00 0.  1.
         13    1    3    3    0    0 -0.30330979640E+02 -0.51420954604E+02  0.89653633184E+02  0.10771191597E+03  0.00000000000E+00 0. -1.
          1    1    1    2  501    0  0.37577680096E+01 -0.26909904569E+02 -0.66345312340E+02  0.71693544017E+02  0.00000000000E+00 0. -1.
<scales pt_clust_5="13000.00000" pt_clust_6="13000.00000" pt_clust_7="13000.00000" pt_clust_8="13000.00000" pt_clust_9="27.17101"></scales>
<clustering>
<clus scale="   27.171">  2  9  1 -1</clus>
<clus scale="   91.182">  7  8 -1 -1</clus>
<clus scale="   98.178">  5  6 -1 -1</clus>
<clus scale="  104.583">  1  7  2 -1</clus>
<clus scale="   27.171">  2  5  1 -1</clus>
</clustering>
</event>
<event>
 9    1  0.1426358E-005  0.1970206E+03  0.7546771E-02  0.1153629E+00
         -2   -1    0    0    0  501 -0.00000000000E+00  0.00000000000E+00  0.10425145254E+03  0.10425145254E+03  0.00000000000E+00 0. -1.
         21   -1    0    0  501  502  0.00000000000E+00 -0.00000000000E+00 -0.92607595986E+03  0.92607595986E+03  0.00000000000E+00 0. -1.
         23    2    1    2    0    0  0.16016640349E+03  0.49769845675E+02 -0.15531086019E+03  0.24605195791E+03  0.91048274861E+02 0.  0.
         23    2    1    2    0    0 -0.11741936861E+03  0.14391945791E+03 -0.25928521966E+03  0.33130984051E+03  0.89650804755E+02 0.  0.
        -11    1    3    3    0    0  0.12549900247E+03  0.72664419428E+02 -0.97051325851E+02  0.17449663986E+03  0.00000000000E+00 0. -1.
         11    1    3    3    0    0  0.34667401015E+02 -0.22894573753E+02 -0.58259534341E+02  0.71555318056E+02  0.00000000000E+00 0.  1.
        -11    1    4    4    0    0 -0.55307498511E+02  0.11371575016E+02 -0.47088116261E+02  0.73522260594E+02  0.00000000000E+00 0.  1.
         11    1    4    4    0    0 -0.62111870102E+02  0.13254788289E+03 -0.21219710340E+03  0.25778757991E+03  0.00000000000E+00 0. -1.
         -2    1    1    2    0  502 -0.42747034873E+02 -0.19368930359E+03 -0.40722842747E+03  0.45296561398E+03  0.00000000000E+00 0. -1.
<scales pt_clust_5="13000.00000" pt_clust_6="13000.00000" pt_clust_7="13000.00000" pt_clust_8="13000.00000" pt_clust_9="175.44187"></scales>
<clustering>
<clus scale="   89.651">  7  8 -1 -1</clus>
<clus scale="   91.048">  5  6 -1 -1</clus>
<clus scale="  190.841">  1  5  2 -1</clus>
<clus scale="  175.442">  2  9  1 -1</clus>
<clus scale="  175.442">  2  5  1 -1</clus>
</clustering>
</event>
<event>
 9    1  0.1426358E-005  0.9183018E+02  0.7546771E-02  0.1298964E+00
         21   -1    0    0  501  502  0.00000000000E+00  0.00000000000E+00  0.43696415553E+02  0.43696415553E+02  0.00000000000E+00 0.  1.
          1   -1    0    0  502    0 -0.00000000000E+00 -0.00000000000E+00 -0.45495094261E+03  0.45495094261E+03  0.00000000000E+00 0. -1.
         23    2    1    2    0    0  0.12961916073E+02 -0.12182545653E+02 -0.20221492206E+03  0.22228545998E+03  0.90573314659E+02 0.  0.
         23    2    1    2    0    0  0.33511263176E+02 -0.27053908287E+02 -0.18533285223E+03  0.21108352631E+03  0.91395132529E+02 0.  0.
        -11    1    4    4    0    0  0.57715595452E+02 -0.34076612824E+01 -0.69473738919E+02  0.90384193934E+02  0.00000000000E+00 0.  1.
         11    1    4    4    0    0 -0.24204332276E+02 -0.23646247004E+02 -0.11585911331E+03  0.12069933238E+03  0.00000000000E+00 0. -1.
        -13    1    3    3    0    0 -0.84063946722E+01  0.26175371178E+02 -0.15651147547E+03  0.15890770744E+03  0.00000000000E+00 0. -1.
         13    1    3    3    0    0  0.21368310745E+02 -0.38357916831E+02 -0.45703446584E+02  0.63377752543E+02  0.00000000000E+00 0.  1.
          1    1    1    2  501    0 -0.46473179249E+02  0.39236453940E+02 -0.23706752763E+02  0.65278371869E+02  0.00000000000E+00 0. -1.
<scales pt_clust_5="13000.00000" pt_clust_6="13000.00000" pt_clust_7="13000.00000" pt_clust_8="13000.00000" pt_clust_9="60.82151"></scales>
<clustering>
<clus scale="   60.822">  1  9  2 -1</clus>
<clus scale="   90.573">  7  8 -1 -1</clus>
<clus scale="   91.012">  2  7  1 -1</clus>
<clus scale="   91.395">  5  6 -1 -1</clus>
<clus scale="   60.822">  1  5  2 -1</clus>
</clustering>
</event>
<event>
 9    1  0.1426358E-005  0.1114468E+03  0.7546771E-02  0.1258046E+00
         21   -1    0    0  501  502  0.00000000000E+00  0.00000000000E+00  0.30138283314E+02  0.30138283314E+02  0.00000000000E+00 0.  1.
          1   -1    0    0  502    0 -0.00000000000E+00 -0.00000000000E+00 -0.58226588550E+03  0.58226588550E+03  0.00000000000E+00 0. -1.
         23    2    1    2    0    0  0.67967627408E+02  0.21823328124E+02 -0.33157496758E+03  0.35116343685E+03  0.90983208481E+02 0.  0.
         23    2    1    2    0    0 -0.57056750442E+02  0.79364958660E+01 -0.18213067158E+03  0.21143168056E+03  0.90627331827E+02 0.  0.
        -13    1    4    4    0    0 -0.78066088683E+02  0.22831467177E+02 -0.14478324439E+03  0.16606558329E+03  0.00000000000E+00 0.  1.
         13    1    4    4    0    0  0.21009338241E+02 -0.14894971311E+02 -0.37347427187E+02  0.45366097267E+02  0.00000000000E+00 0. -1.
        -13    1    3    3    0    0  0.15077390570E+02 -0.33204269579E+02 -0.73669174846E+02  0.82200964394E+02  0.00000000000E+00 0.  1.
         13    1    3    3    0    0  0.52890236838E+02  0.55027597703E+02 -0.25790579273E+03  0.26896247245E+03  0.00000000000E+00 0. -1.
          1    1    1    2  501    0 -0.10910876966E+02 -0.29759823990E+02 -0.38421963023E+02  0.49809051413E+02  0.00000000000E+00 0. -1.
<scales pt_clust_5="13000.00000" pt_clust_6="13000.00000" pt_clust_7="13000.00000" pt_clust_8="13000.00000" pt_clust_9="31.69691"></scales>
<clustering>
<clus scale="   31.697">  1  9  2 -1</clus>
<clus scale="   90.627">  5  6 -1 -1</clus>
<clus scale="   90.983">  7  8 -1 -1</clus>
<clus scale="  111.156">  1  5  2 -1</clus>
<clus scale="   31.697">  1  5  2 -1</clus>
</clustering>
</event>
<event>
 9    1  0.1426358E-005  0.9737032E+02  0.7546771E-02  0.1286186E+00
          2   -1    0    0  502    0 -0.00000000000E+00  0.00000000000E+00  0.24367801815E+03  0.24367801815E+03  0.00000000000E+00 0. -1.
         21   -1    0    0  501  502  0.00000000000E+00 -0.00000000000E+00 -0.11354955253E+03  0.11354955253E+03  0.00000000000E+00 0.  1.
         23    2    1    2    0    0 -0.20535543100E+02  0.31963801546E+02  0.18848460130E+03  0.21279969161E+03  0.91180429285E+02 0.  0.
         23    2    1    2    0    0  0.16771105421E+02 -0.96530244836E+01 -0.12838995071E+02  0.93597259812E+02  0.90670592758E+02 0.  0.
        -11    1    3    3    0    0  0.31319838359E+01  0.55504862531E+02  0.68299829895E+02  0.88065122784E+02  0.00000000000E+00 0.  1.
         11    1    3    3    0    0 -0.23667526936E+02 -0.23541060986E+02  0.12018477140E+03  0.12473456883E+03  0.00000000000E+00 0. -1.
        -13    1    4    4    0    0  0.48883757398E+02  0.31731495458E+00 -0.28411498843E+02  0.56541451101E+02  0.00000000000E+00 0.  1.
         13    1    4    4    0    0 -0.32112651977E+02 -0.99703394382E+01  0.15572503772E+02  0.37055808711E+02  0.00000000000E+00 0. -1.
          2    1    1    2  501    0  0.37644376795E+01 -0.22310777062E+02 -0.45517140614E+02  0.50830619255E+02  0.00000000000E+00 0. -1.
<scales pt_clust_5="13000.00000" pt_clust_6="13000.00000" pt_clust_7="13000.00000" pt_clust_8="13000.00000" pt_clust_9="22.62613"></scales>
<clustering>
<clus scale="   22.626">  2  9  1 -1</clus>
<clus scale="   90.671">  7  8 -1 -1</clus>
<clus scale="   91.180">  5  6 -1 -1</clus>
<clus scale="   96.893">  2  7  1 -1</clus>
<clus scale="   22.626">  2  5  1 -1</clus>
</clustering>
</event>
<event>
 9    1  0.1426358E-005  0.1066238E+03  0.7546771E-02  0.1270993E+00
          2   -1    0    0  502    0 -0.00000000000E+00  0.00000000000E+00  0.70845990879E+03  0.70845990879E+03  0.00000000000E+00 0. -1.
         21   -1    0    0  501  502  0.00000000000E+00 -0.00000000000E+00 -0.33270595286E+02  0.33270595286E+02  0.00000000000E+00 0.  1.
         23    2    1    2    0    0 -0.25105317076E+02 -0.23668322135E+02  0.41478665816E+03  0.42740742508E+03  0.97152811609E+02 0.  0.
         23    2    1    2    0    0  0.32907638595E+02  0.50432937155E+02  0.26530637086E+03  0.28601641434E+03  0.88269615531E+02 0.  0.
        -11    1    4    4    0    0  0.61415347900E+02  0.27512914373E+02  0.13760475048E+03  0.15317921781E+03  0.00000000000E+00 0.  1.
         11    1    4    4    0    0 -0.28507709304E+02  0.22920022782E+02  0.12770162038E+03  0.13283719653E+03  0.00000000000E+00 0. -1.
        -13    1    3    3    0    0 -0.61847575488E+02 -0.22025696592E+02  0.24181593863E+03  0.25056975492E+03  0.00000000000E+00 0. -1.
         13    1    3    3    0    0  0.36742258412E+02 -0.16426255431E+01  0.17297071953E+03  0.17683767016E+03  0.00000000000E+00 0.  1.
          2    1    1    2  501    0 -0.78023215198E+01 -0.26764615021E+02 -0.49037155154E+01  0.28306664660E+02  0.00000000000E+00 0. -1.
<scales pt_clust_5="13000.00000" pt_clust_6="13000.00000" pt_clust_7="13000.00000" pt_clust_8="13000.00000" pt_clust_9="27.87868"></scales>
<clustering>
<clus scale="   27.879">  2  9  1 -1</clus>
<clus scale="   88.270">  5  6 -1 -1</clus>
<clus scale="   97.153">  7  8 -1 -1</clus>
<clus scale="   98.598">  2  5  1 -1</clus>
<clus scale="   27.879">  2  5  1 -1</clus>
</clustering>
</event>
<event>
 9    1  0.1426358E-005  0.1507314E+03  0.7546771E-02  0.1200369E+00
         21   -1    0    0  501  502  0.00000000000E+00  0.00000000000E+00  0.22129323018E+03  0.22129323018E+03  0.00000000000E+00 0.  1.
         -1   -1    0    0    0  501 -0.00000000000E+00 -0.00000000000E+00 -0.72575389072E+03  0.72575389072E+03  0.00000000000E+00 0.  1.
         23    2    1    2    0    0 -0.27762048960E+02 -0.11296079324E+03 -0.63091924485E+03  0.64773645367E+03  0.89289124328E+02 0.  0.
         23    2    1    2    0    0  0.35564623472E+02  0.13168862907E+03 -0.58316696566E+01  0.16547373922E+03  0.93492312683E+02 0.  0.
        -13    1    3    3    0    0  0.28575436216E+02 -0.43058839163E+02 -0.15397363668E+03  0.16241459287E+03  0.00000000000E+00 0.  1.
         13    1    3    3    0    0 -0.56337485176E+02 -0.69901954077E+02 -0.47694560817E+03  0.48532186081E+03  0.00000000000E+00 0. -1.
        -13    1    4    4    0    0  0.61677111219E+02  0.54714753271E+02 -0.14558739423E+02  0.83724113416E+02  0.00000000000E+00 0.  1.
         13    1    4    4    0    0 -0.26112487747E+02  0.76973875804E+02  0.87270697667E+01  0.81749625805E+02  0.00000000000E+00 0. -1.
         -1    1    1    2    0  502 -0.78025745124E+01 -0.18727835836E+02  0.13229025396E+03  0.13383692800E+03  0.00000000000E+00 0.  1.
<scales pt_clust_5="13000.00000" pt_clust_6="13000.00000" pt_clust_7="13000.00000" pt_clust_8="13000.00000" pt_clust_9="20.28822"></scales>
<clustering>
<clus scale="   20.288">  1  9  2 -1</clus>
<clus scale="   89.289">  5  6 -1 -1</clus>
<clus scale="   93.492">  7  8 -1 -1</clus>
<clus scale="  148.161">  2  5  1 -1</clus>
<clus scale="   20.288">  1  5  2 -1</clus>
</clustering>
</event>
<event>
 9    1  0.1426358E-005  0.1699415E+03  0.7546771E-02  0.1178063E+00
          4   -1    0    0  502    0 -0.00000000000E+00  0.00000000000E+00  0.36270384271E+03  0.36270384271E+03  0.00000000000E+00 0. -1.
         21   -1    0    0  501  502  0.00000000000E+00 -0.00000000000E+00 -0.23060224838E+03  0.23060224838E+03  0.00000000000E+00 0. -1.
         23    2    1    2    0    0 -0.78836955253E+01 -0.15766135360E+03  0.15914142585E+03  0.24230334554E+03  0.92009036312E+02 0.  0.
         23    2    1    2    0    0  0.73801624312E+02  0.11536171870E+03  0.10673007869E+03  0.19599041918E+03  0.90917153601E+02 0.  0.
        -11    1    3    3    0    0  0.13619616230E+02 -0.54758480237E+02  0.11536867892E+03  0.12842864626E+03  0.00000000000E+00 0. -1.
         11    1    3    3    0    0 -0.21503311755E+02 -0.10290287336E+03  0.43772746936E+02  0.11387469928E+03  0.00000000000E+00 0.  1.
        -11    1    4    4    0    0  0.91414716330E+02  0.79815411133E+02  0.62250577516E+02  0.13639019253E+03  0.00000000000E+00 0. -1.
         11    1    4    4    0    0 -0.17613092018E+02  0.35546307569E+02  0.44479501175E+02  0.59600226652E+02  0.00000000000E+00 0.  1.
          4    1    1    2  501    0 -0.65917928787E+02  0.42299634895E+02 -0.13376991022E+03  0.15501232638E+03  0.00000000000E+00 0. -1.
<scales pt_clust_5="13000.00000" pt_clust_6="13000.00000" pt_clust_7="13000.00000" pt_clust_8="13000.00000" pt_clust_9="78.32262"></scales>
<clustering>
<clus scale="   78.323">  2  9  1 -1</clus>
<clus scale="   90.917">  7  8 -1 -1</clus>
<clus scale="   92.009">  5  6 -1 -1</clus>
<clus scale="  169.353">  2  7  1 -1</clus>
<clus scale="   78.323">  2  5  1 -1</clus>
</clustering>
</event>
<event>
 9    1  0.1426358E-005  0.1026979E+03  0.7546771E-02  0.1283856E+00
          1   -1    0    0  502    0 -0.00000000000E+00  0.00000000000E+00  0.36378745870E+03  0.36378745870E+03  0.00000000000E+00 0. -1.
         21   -1    0    0  501  502  0.00000000000E+00 -0.00000000000E+00 -0.61268282172E+02  0.61268282172E+02  0.00000000000E+00 0.  1.
         23    2    1    2    0    0  0.33638488192E+02  0.39738083441E+02  0.30768350411E+03  0.32494357908E+03  0.90600925624E+02 0.  0.
         23    2    1    2    0    0 -0.21269462930E+02 -0.21404651774E+02 -0.71253324105E+01  0.77909615934E+02  0.71474392073E+02 0.  0.
        -11    1    4    4    0    0  0.17573910582E+02 -0.28681464666E+02  0.96248965425E+01  0.34987245990E+02  0.00000000000E+00 0. -1.
         11    1    4    4    0    0 -0.38843373512E+02  0.72768128919E+01 -0.16750228953E+02  0.42922369944E+02  0.00000000000E+00 0.  1.
        -11    1    3    3    0    0  0.50160558322E+01 -0.22006954309E+02  0.22949739330E+02  0.32189398711E+02  0.00000000000E+00 0.  1.
         11    1    3    3    0    0  0.28622432360E+02  0.61745037749E+02  0.28473376478E+03  0.29275418037E+03  0.00000000000E+00 0. -1.
          1    1    1    2  501    0 -0.12369025261E+02 -0.18333431667E+02  0.19610048334E+01  0.22202545857E+02  0.00000000000E+00 0. -1.
<scales pt_clust_5="13000.00000" pt_clust_6="13000.00000" pt_clust_7="13000.00000" pt_clust_8="13000.00000" pt_clust_9="22.11577"></scales>
<clustering>
<clus scale="   22.116">  2  9  1 -1</clus>
<clus scale="   71.474">  5  6 -1 -1</clus>
<clus scale="   86.296">  2  5  1 -1</clus>
<clus scale="   90.601">  7  8 -1 -1</clus>
<clus scale="   22.116">  2  5  1 -1</clus>
</clustering>
</event>
<event>
 9    1  0.1426358E-005  0.1637075E+03  0.7546771E-02  0.1184707E+00
         21   -1    0    0  501  502  0.00000000000E+00  0.00000000000E+00  0.16553107212E+03  0.16553107212E+03  0.00000000000E+00 0. -1.
         -4   -1    0    0    0  501 -0.00000000000E+00 -0.00000000000E+00 -0.22150757904E+03  0.22150757904E+03  0.00000000000E+00 0.  1.
         23    2    1    2    0    0  0.11177726322E+03 -0.98315558548E+02 -0.85007580181E+02  0.19408674688E+03  0.91012477164E+02 0.  0.
         23    2    1    2    0    0 -0.10244112565E+03  0.60006502760E+02  0.10635062384E+02  0.14944144075E+03  0.90136979448E+02 0.  0.
        -11    1    4    4    0    0 -0.60315608563E+02  0.72308397443E+02  0.33516889743E+02  0.99949281514E+02  0.00000000000E+00 0. -1.
         11    1    4    4    0    0 -0.42125517090E+02 -0.12301894683E+02 -0.22881827359E+02  0.49492159239E+02  0.00000000000E+00 0.  1.
        -13    1    3    3    0    0  0.10419928211E+03 -0.37148251868E+02 -0.69103219841E+02  0.13043288696E+03  0.00000000000E+00 0.  1.
         13    1    3    3    0    0  0.75779811108E+01 -0.61167306681E+02 -0.15904360340E+02  0.63653859915E+02  0.00000000000E+00 0. -1.
         -4    1    1    2    0  502 -0.93361375669E+01  0.38309055789E+02  0.18396010874E+02  0.43510463525E+02  0.00000000000E+00 0.  1.
<scales pt_clust_5="13000.00000" pt_clust_6="13000.00000" pt_clust_7="13000.00000" pt_clust_8="13000.00000" pt_clust_9="39.43028"></scales>
<clustering>
<clus scale="   39.430">  1  9  2 -1</clus>
<clus scale="   90.137">  5  6 -1 -1</clus>
<clus scale="   91.012">  7  8 -1 -1</clus>
<clus scale="  163.222">  1  5  2 -1</clus>
<clus scale="   39.430">  1  5  2 -1</clus>
</clustering>
</event>
<event>
 9    1  0.1426358E-005  0.1115576E+03  0.7546771E-02  0.1258238E+00
          1   -1    0    0  502    0 -0.00000000000E+00  0.00000000000E+00  0.34781171276E+03  0.34781171276E+03  0.00000000000E+00 0. -1.
         21   -1    0    0  501  502  0.00000000000E+00 -0.00000000000E+00 -0.11716813810E+03  0.11716813810E+03  0.00000000000E+00 0.  1.
         23    2    1    2    0    0  0.47072126319E+02 -0.38359532339E+02  0.29011039462E+03  0.31003395426E+03  0.90938291895E+02 0.  0.
         23    2    1    2    0    0 -0.55809174862E+02  0.56521005839E+02 -0.43849532754E+02  0.12944933220E+03  0.92331251393E+02 0.  0.
        -11    1    3    3    0    0 -0.12495623579E+02  0.21365115392E+02  0.57478931392E+02  0.62581437489E+02  0.00000000000E+00 0.  1.
         11    1    3    3    0    0  0.59567749898E+02 -0.59724647731E+02  0.23263146323E+03  0.24745251677E+03  0.00000000000E+00 0. -1.
        -11    1    4    4    0    0 -0.56248510131E+02 -0.66279294683E+01 -0.90833558412E+01  0.57361412938E+02  0.00000000000E+00 0. -1.
         11    1    4    4    0    0  0.43933526910E+00  0.63148935308E+02 -0.34766176913E+02  0.72087919259E+02  0.00000000000E+00 0.  1.
          1    1    1    2  501    0  0.87370485422E+01 -0.18161473500E+02 -0.15617287202E+02  0.25496564405E+02  0.00000000000E+00 0. -1.
<scales pt_clust_5="13000.00000" pt_clust_6="13000.00000" pt_clust_7="13000.00000" pt_clust_8="13000.00000" pt_clust_9="20.15379"></scales>
<clustering>
<clus scale="   20.154">  2  9  1 -1</clus>
<clus scale="   90.938">  5  6 -1 -1</clus>
<clus scale="   92.331">  7  8 -1 -1</clus>
<clus scale="  110.407">  1  5  2 -1</clus>
<clus scale="   20.154">  2  5  1 -1</clus>
</clustering>
</event>
<event>
 9    1  0.1426358E-005  0.1280625E+03  0.7546771E-02  0.1237893E+00
         21   -1    0    0  501  502  0.00000000000E+00  0.00000000000E+00  0.83714138575E+03  0.83714138575E+03  0.00000000000E+00 0.  1.
          1   -1    0    0  502    0 -0.00000000000E+00 -0.00000000000E+00 -0.58232899770E+02  0.58232899770E+02  0.00000000000E+00 0. -1.
         23    2    1    2    0    0  0.22232873159E+01  0.57686007154E+02  0.42702933438E+02  0.13362640459E+03  0.11269364246E+03 0.  0.
         23    2    1    2    0    0 -0.56140597165E+02 -0.67208235245E+02  0.36018877762E+03  0.38176582327E+03  0.91326199714E+02 0.  0.
        -11    1    4    4    0    0  0.11594693196E+02 -0.56019546869E+02  0.14438874040E+03  0.15530851521E+03  0.00000000000E+00 0. -1.
         11    1    4    4    0    0 -0.67735290361E+02 -0.11188688376E+02  0.21580003722E+03  0.22645730806E+03  0.00000000000E+00 0.  1.
        -13    1    3    3    0    0  0.46115391688E+02  0.20730394923E+02 -0.14506731312E+02  0.52600607197E+02  0.00000000000E+00 0. -1.
         13    1    3    3    0    0 -0.43892104372E+02  0.36955612231E+02  0.57209664750E+02  0.81025797388E+02  0.00000000000E+00 0.  1.
          1    1    1    2  501    0  0.53917309849E+02  0.95222280915E+01  0.37601677492E+03  0.37998205767E+03  0.00000000000E+00 0. -1.
<scales pt_clust_5="13000.00000" pt_clust_6="13000.00000" pt_clust_7="13000.00000" pt_clust_8="13000.00000" pt_clust_9="54.75170"></scales>
<clustering>
<clus scale="   54.752">  1  9  2 -1</clus>
<clus scale="   91.326">  5  6 -1 -1</clus>
<clus scale="  109.730">  1  5  2 -1</clus>
<clus scale="  112.694">  7  8 -1 -1</clus>
<clus scale="   54.752">  1  5  2 -1</clus>
</clustering>
</event>
<event>
 9    1  0.1426358E-005  0.9706302E+02  0.7546771E-02  0.1290197E+00
         21   -1    0    0  501  502  0.00000000000E+00  0.00000000000E+00  0.49803435704E+02  0.49803435704E+02  0.00000000000E+00 0.  1.
          2   -1    0    0  502    0 -0.00000000000E+00 -0.00000000000E+00 -0.48135746832E+03  0.48135746832E+03  0.00000000000E+00 0. -1.
         23    2    1    2    0    0 -0.12558676117E+02 -0.30032103895E+02 -0.30594002298E+03  0.32209680949E+03  0.95327904694E+02 0.  0.
         23    2    1    2    0    0  0.56637629777E+01 -0.82096979122E+01 -0.14125379737E+03  0.16717640907E+03  0.88858534356E+02 0.  0.
        -11    1    4    4    0    0  0.32524695969E+02 -0.25690112520E+02 -0.12407499920E+03  0.13081453724E+03  0.00000000000E+00 0. -1.
         11    1    4    4    0    0 -0.26860932991E+02  0.17480414608E+02 -0.17178798172E+02  0.36361871826E+02  0.00000000000E+00 0.  1.
        -11    1    3    3    0    0  0.38333472112E+02  0.46304938160E+01 -0.10199417582E+03  0.10905828010E+03  0.00000000000E+00 0. -1.
         11    1    3    3    0    0 -0.50892148229E+02 -0.34662597711E+02 -0.20394584716E+03  0.21303852940E+03  0.00000000000E+00 0.  1.
          2    1    1    2  501    0  0.68949131394E+01  0.38241801807E+02  0.15639787735E+02  0.41887685458E+02  0.00000000000E+00 0. -1.
<scales pt_clust_5="13000.00000" pt_clust_6="13000.00000" pt_clust_7="13000.00000" pt_clust_8="13000.00000" pt_clust_9="38.85840"></scales>
<clustering>
<clus scale="   38.858">  1  9  2 -1</clus>
<clus scale="   88.859">  5  6 -1 -1</clus>
<clus scale="   90.717">  1  5  2 -1</clus>
<clus scale="   95.328">  7  8 -1 -1</clus>
<clus scale="   38.858">  1  5  2 -1</clus>
</clustering>
</event>
<event>
 9    1  0.1426358E-005  0.1282586E+03  0.7546771E-02  0.1232908E+00
          2   -1    0    0  502    0 -0.00000000000E+00  0.00000000000E+00  0.73792303672E+03  0.73792303672E+03  0.00000000000E+00 0. -1.
         21   -1    0    0  501  502  0.00000000000E+00 -0.00000000000E+00 -0.86697095342E+02  0.86697095342E+02  0.00000000000E+00 0. -1.
         23    2    1    2    0    0  0.64985538063E+02 -0.53786947662E+02  0.60941094581E+03  0.62267783493E+03  0.96072000844E+02 0.  0.
         23    2    1    2    0    0 -0.95527654776E+02  0.20754593670E+02  0.70966885193E+02  0.14833455542E+03  0.86084583715E+02 0.  0.
        -11    1    3    3    0    0 -0.91093721666E+01 -0.52280594677E+02  0.22335436917E+03  0.22957224455E+03  0.00000000000E+00 0.  1.
         11    1    3    3    0    0  0.74094910230E+02 -0.15063529851E+01  0.38605657664E+03  0.39310559038E+03  0.00000000000E+00 0. -1.
        -13    1    4    4    0    0 -0.24510682845E+02  0.45772274471E+02  0.13592831270E+02  0.53671591608E+02  0.00000000000E+00 0.  1.
         13    1    4    4    0    0 -0.71016971930E+02 -0.25017680801E+02  0.57374053923E+02  0.94662963816E+02  0.00000000000E+00 0. -1.
          2    1    1    2  501    0  0.30542116712E+02  0.33032353993E+02 -0.29151889617E+02  0.53607741715E+02  0.00000000000E+00 0. -1.
<scales pt_clust_5="13000.00000" pt_clust_6="13000.00000" pt_clust_7="13000.00000" pt_clust_8="13000.00000" pt_clust_9="44.98841"></scales>
<clustering>
<clus scale="   44.988">  2  9  1 -1</clus>
<clus scale="   86.085">  7  8 -1 -1</clus>
<clus scale="   96.072">  5  6 -1 -1</clus>
<clus scale="  120.959">  2  7  1 -1</clus>
<clus scale="   44.988">  2  5  1 -1</clus>
</clustering>
</event>
<event>
 9    1  0.1426358E-005  0.1295244E+03  0.7546771E-02  0.1229510E+00
         21   -1    0    0  501  502  0.00000000000E+00  0.00000000000E+00  0.22196593812E+03  0.22196593812E+03  0.00000000000E+00 0. -1.
          1   -1    0    0  502    0 -0.00000000000E+00 -0.00000000000E+00 -0.41694674915E+03  0.41694674915E+03  0.00000000000E+00 0. -1.
         23    2    1    2    0    0 -0.85560080191E+02 -0.39930938468E+02 -0.25361171393E+03  0.28552989307E+03  0.91068168013E+02 0.  0.
         23    2    1    2    0    0  0.72635086437E+02  0.21598418138E+02 -0.12120672831E+03  0.17215169764E+03  0.95931165763E+02 0.  0.
        -11    1    4    4    0    0  0.67758252603E+01 -0.20538779358E+02 -0.81772656625E+02  0.84584399489E+02  0.00000000000E+00 0. -1.
         11    1    4    4    0    0  0.65859261177E+02  0.42137197496E+02 -0.39434071683E+02  0.87567298149E+02  0.00000000000E+00 0.  1.
        -11    1    3    3    0    0 -0.50093088144E+02  0.18224872640E+02 -0.59866498169E+02  0.80158973706E+02  0.00000000000E+00 0. -1.
         11    1    3    3    0    0 -0.35466992046E+02 -0.58155811108E+02 -0.19374521576E+03  0.20537091936E+03  0.00000000000E+00 0.  1.
          1    1    1    2  501    0  0.12924993754E+02  0.18332520330E+02  0.17983763121E+03  0.18123109657E+03  0.00000000000E+00 0. -1.
<scales pt_clust_5="13000.00000" pt_clust_6="13000.00000" pt_clust_7="13000.00000" pt_clust_8="13000.00000" pt_clust_9="22.43071"></scales>
<clustering>
<clus scale="   22.431">  1  9  2 -1</clus>
<clus scale="   91.068">  7  8 -1 -1</clus>
<clus scale="   95.931">  5  6 -1 -1</clus>
<clus scale="  125.965">  2  7  1 -1</clus>
<clus scale="   22.431">  1  5  2 -1</clus>
</clustering>
</event>
<event>
 9    1  0.1426358E-005  0.1269236E+03  0.7546771E-02  0.1232536E+00
         21   -1    0    0  501  502  0.00000000000E+00  0.00000000000E+00  0.10094373755E+03  0.10094373755E+03  0.00000000000E+00 0. -1.
          1   -1    0    0  502    0 -0.00000000000E+00 -0.00000000000E+00 -0.48081844399E+03  0.48081844399E+03  0.00000000000E+00 0. -1.
         23    2    1    2    0    0 -0.92189652858E+02  0.26282395431E+02 -0.34112833441E+03  0.36600542722E+03  0.91660983028E+02 0.  0.
         23    2    1    2    0    0  0.22975155537E+02 -0.74335131131E+02  0.82071183663E+01  0.11929773552E+03  0.90061220383E+02 0.  0.
        -11    1    4    4    0    0 -0.56850121052E+01 -0.76368744131E+02  0.31006135576E+02  0.82618913611E+02  0.00000000000E+00 0. -1.
         11    1    4    4    0    0  0.28660167642E+02  0.20336130009E+01 -0.22799017210E+02  0.36678821912E+02  0.00000000000E+00 0.  1.
        -13    1    3    3    0    0  0.35057780213E+01  0.35077767007E+02 -0.11562148159E+03  0.12087624755E+03  0.00000000000E+00 0.  1.
         13    1    3    3    0    0 -0.95695430879E+02 -0.87953715763E+01 -0.22550685283E+03  0.24512917967E+03  0.00000000000E+00 0. -1.
          1    1    1    2  501    0  0.69214497321E+02  0.48052735700E+02 -0.46953490386E+02  0.96459018796E+02  0.00000000000E+00 0. -1.
<scales pt_clust_5="13000.00000" pt_clust_6="13000.00000" pt_clust_7="13000.00000" pt_clust_8="13000.00000" pt_clust_9="84.25979"></scales>
<clustering>
<clus scale="   84.260">  1  9  2 -1</clus>
<clus scale="   90.061">  5  6 -1 -1</clus>
<clus scale="   91.661">  7  8 -1 -1</clus>
<clus scale="  125.773">  1  5  2 -1</clus>
<clus scale="   84.260">  1  5  2 -1</clus>
</clustering>
</event>
<event>
 9    1  0.1426358E-005  0.2612123E+03  0.7546771E-02  0.1145081E+00
         21   -1    0    0  501  502  0.00000000000E+00  0.00000000000E+00  0.31415844200E+03  0.31415844200E+03  0.00000000000E+00 0. -1.
          1   -1    0    0  502    0 -0.00000000000E+00 -0.00000000000E+00 -0.40516711985E+03  0.40516711985E+03  0.00000000000E+00 0. -1.
         23    2    1    2    0    0 -0.25151954082E+02  0.32611990708E+02 -0.10500907647E+03  0.14521243774E+03  0.91452628187E+02 0.  0.
         23    2    1    2    0    0 -0.21381033785E+03  0.47725798993E+02 -0.14205944848E+03  0.27761386055E+03  0.94318376827E+02 0.  0.
        -11    1    4    4    0    0 -0.15264491652E+03  0.75979103041E+02 -0.11074446211E+03  0.20331657710E+03  0.00000000000E+00 0. -1.
         11    1    4    4    0    0 -0.61165421332E+02 -0.28253304047E+02 -0.31314986370E+02  0.74297283447E+02  0.00000000000E+00 0.  1.
        -11    1    3    3    0    0  0.28802854349E+02  0.29828276203E+02 -0.68276868714E+02  0.79881545311E+02  0.00000000000E+00 0.  1.
         11    1    3    3    0    0 -0.53954808432E+02  0.27837145052E+01 -0.36732207752E+02  0.65330892430E+02  0.00000000000E+00 0. -1.
          1    1    1    2  501    0  0.23896229193E+03 -0.80337789701E+02  0.15605984709E+03  0.29649926356E+03  0.00000000000E+00 0. -1.
<scales pt_clust_5="13000.00000" pt_clust_6="13000.00000" pt_clust_7="13000.00000" pt_clust_8="13000.00000" pt_clust_9="243.58967"></scales>
<clustering>
<clus scale="   91.453">  7  8 -1 -1</clus>
<clus scale="   94.318">  5  6 -1 -1</clus>
<clus scale="  100.298">  2  7  1 -1</clus>
<clus scale="  243.590">  1  9  2 -1</clus>
<clus scale="  243.590">  1  5  2 -1</clus>
</clustering>
</event>
<event>
 9    1  0.1426358E-005  0.1044197E+03  0.7546771E-02  0.1271618E+00
         21   -1    0    0  501  502  0.00000000000E+00  0.00000000000E+00  0.48027434971E+02  0.48027434971E+02  0.00000000000E+00 0.  1.
          1   -1    0    0  502    0 -0.00000000000E+00 -0.00000000000E+00 -0.64846045239E+03  0.64846045239E+03  0.00000000000E+00 0. -1.
         23    2    1    2    0    0 -0.30235836455E+02  0.31209291738E+02 -0.43830144036E+03  0.44990604942E+03  0.91755517444E+02 0.  0.
         23    2    1    2    0    0  0.85983938481E+02 -0.20066128132E+02 -0.12863206288E+03  0.18059518456E+03  0.90953427153E+02 0.  0.
        -11    1    4    4    0    0  0.96840734298E+01  0.28302355793E+02 -0.10122815073E+02  0.31579677114E+02  0.00000000000E+00 0. -1.
         11    1    4    4    0    0  0.76299865051E+02 -0.48368483924E+02 -0.11850924780E+03  0.14901550744E+03  0.00000000000E+00 0.  1.
        -13    1    3    3    0    0 -0.17606947407E+02 -0.32288792348E+02 -0.15647795974E+03  0.16074178857E+03  0.00000000000E+00 0.  1.
         13    1    3    3    0    0 -0.12628889048E+02  0.63498084086E+02 -0.28182348062E+03  0.28916426085E+03  0.00000000000E+00 0. -1.
          1    1    1    2  501    0 -0.55748102026E+02 -0.11143163606E+02 -0.33499514179E+02  0.65986653384E+02  0.00000000000E+00 0. -1.
<scales pt_clust_5="13000.00000" pt_clust_6="13000.00000" pt_clust_7="13000.00000" pt_clust_8="13000.00000" pt_clust_9="56.85087"></scales>
<clustering>
<clus scale="   56.851">  1  9  2 -1</clus>
<clus scale="   90.953">  5  6 -1 -1</clus>
<clus scale="   91.756">  7  8 -1 -1</clus>
<clus scale="  103.716">  1  5  2 -1</clus>
<clus scale="   56.851">  1  5  2 -1</clus>
</clustering>
</event>
<event>
 9    1  0.1426358E-005  0.9595249E+02  0.7546771E-02  0.1289432E+00
         21   -1    0    0  501  502  0.00000000000E+00  0.00000000000E+00  0.59918563540E+03  0.59918563540E+03  0.00000000000E+00 0. -1.
          3   -1    0    0  502    0 -0.00000000000E+00 -0.00000000000E+00 -0.25658109745E+02  0.25658109745E+02  0.00000000000E+00 0. -1.
         23    2    1    2    0    0 -0.30864575283E+02  0.82140702635E+01  0.14907546803E+03  0.17730017704E+03  0.90508367876E+02 0.  0.
         23    2    1    2    0    0  0.32688174477E+02  0.20538703729E+02  0.21558925913E+03  0.23670306885E+03  0.89773376062E+02 0.  0.
        -11    1    3    3    0    0 -0.20528482112E+02 -0.40832825499E+02  0.66135150928E+02  0.80390275558E+02  0.00000000000E+00 0.  1.
         11    1    3    3    0    0 -0.10336093171E+02  0.49046895763E+02  0.82940317097E+02  0.96909901487E+02  0.00000000000E+00 0. -1.
        -11    1    4    4    0    0 -0.30942174074E+02  0.17330876759E+01  0.78665917075E+02  0.84550270482E+02  0.00000000000E+00 0.  1.
         11    1    4    4    0    0  0.63630348551E+02  0.18805616053E+02  0.13692334205E+03  0.15215279836E+03  0.00000000000E+00 0. -1.
          3    1    1    2  501    0 -0.18235991942E+01 -0.28752773993E+02  0.20886279850E+03  0.21084049925E+03  0.00000000000E+00 0. -1.
<scales pt_clust_5="13000.00000" pt_clust_6="13000.00000" pt_clust_7="13000.00000" pt_clust_8="13000.00000" pt_clust_9="28.81055"></scales>
<clustering>
<clus scale="   28.811">  1  9  2 -1</clus>
<clus scale="   89.773">  7  8 -1 -1</clus>
<clus scale="   90.508">  5  6 -1 -1</clus>
<clus scale="   95.260">  1  7  2 -1</clus>
<clus scale="   28.811">  1  5  2 -1</clus>
</clustering>
</event>
<event>
 9    1  0.1426358E-005  0.1238831E+03  0.7546771E-02  0.1237032E+00
         21   -1    0    0  501  502  0.00000000000E+00  0.00000000000E+00  0.86140544577E+02  0.86140544577E+02  0.00000000000E+00 0. -1.
         -4   -1    0    0    0  501 -0.00000000000E+00 -0.00000000000E+00 -0.42899692117E+03  0.42899692117E+03  0.00000000000E+00 0. -1.
         23    2    1    2    0    0  0.13292320930E+02 -0.85221462211E+02 -0.29488016215E+03  0.32014198257E+03  0.89984418433E+02 0.  0.
         23    2    1    2    0    0 -0.37330133674E+02  0.73669648811E+02 -0.85092284037E+02  0.14929139741E+03  0.90699881484E+02 0.  0.
        -13    1    4    4    0    0 -0.58187494411E+02  0.28692239206E+02 -0.20854347953E+02  0.68146408012E+02  0.00000000000E+00 0.  1.
         13    1    4    4    0    0  0.20857360737E+02  0.44977409605E+02 -0.64237936084E+02  0.81144989396E+02  0.00000000000E+00 0. -1.
        -13    1    3    3    0    0 -0.33445410592E+02 -0.66071276340E+02 -0.16954210650E+03  0.18500955360E+03  0.00000000000E+00 0.  1.
         13    1    3    3    0    0  0.46737731522E+02 -0.19150185872E+02 -0.12533805565E+03  0.13513242897E+03  0.00000000000E+00 0. -1.
         -4    1    1    2    0  502  0.24037812744E+02  0.11551813400E+02  0.37116069588E+02  0.45704085769E+02  0.00000000000E+00 0. -1.
<scales pt_clust_5="13000.00000" pt_clust_6="13000.00000" pt_clust_7="13000.00000" pt_clust_8="13000.00000" pt_clust_9="26.66947"></scales>
<clustering>
<clus scale="   26.669">  1  9  2 -1</clus>
<clus scale="   89.984">  7  8 -1 -1</clus>
<clus scale="   90.700">  5  6 -1 -1</clus>
<clus scale="  123.360">  2  7  1 -1</clus>
<clus scale="   26.669">  1  5  2 -1</clus>
</clustering>
</event>
<event>
 9    1  0.1426358E-005  0.1858299E+03  0.7546771E-02  0.1163541E+00
         -1   -1    0    0    0  501 -0.00000000000E+00  0.00000000000E+00  0.41950560176E+03  0.41950560176E+03  0.00000000000E+00 0.  1.
         21   -1    0    0  501  502  0.00000000000E+00 -0.00000000000E+00 -0.23966867139E+03  0.23966867139E+03  0.00000000000E+00 0.  1.
         23    2    1    2    0    0 -0.54944164724E+02  0.16010815922E+03  0.32811626262E+03  0.38057380143E+03  0.92318214091E+02 0.  0.
         23    2    1    2    0    0  0.94711778829E+02 -0.95116610204E+02 -0.78692538626E+02  0.17541284446E+03  0.80991726614E+02 0.  0.
        -11    1    4    4    0    0  0.56594787201E+02 -0.43474434811E+02  0.31119727925E+01  0.71433051140E+02  0.00000000000E+00 0.  1.
         11    1    4    4    0    0  0.38116991628E+02 -0.51642175393E+02 -0.81804511419E+02  0.10397979332E+03  0.00000000000E+00 0. -1.
        -11    1    3    3    0    0 -0.27642722851E+02  0.49119981704E+02  0.35966182645E+02  0.66861491333E+02  0.00000000000E+00 0. -1.
         11    1    3    3    0    0 -0.27301441873E+02  0.11098817751E+03  0.29215007997E+03  0.31371231009E+03  0.00000000000E+00 0.  1.
         -1    1    1    2    0  502 -0.39767614105E+02 -0.64991549013E+02 -0.69586793618E+02  0.10318762727E+03  0.00000000000E+00 0.  1.
<scales pt_clust_5="13000.00000" pt_clust_6="13000.00000" pt_clust_7="13000.00000" pt_clust_8="13000.00000" pt_clust_9="76.19294"></scales>
<clustering>
<clus scale="   76.193">  2  9  1 -1</clus>
<clus scale="   80.992">  5  6 -1 -1</clus>
<clus scale="   92.318">  7  8 -1 -1</clus>
<clus scale="  180.471">  2  5  1 -1</clus>
<clus scale="   76.193">  2  5  1 -1</clus>
</clustering>
</event>
<event>
 9    1  0.1426358E-005  0.9872554E+02  0.7546771E-02  0.1283898E+00
         21   -1    0    0  501  502  0.00000000000E+00  0.00000000000E+00  0.20946779008E+03  0.20946779008E+03  0.00000000000E+00 0.  1.
          1   -1    0    0  502    0 -0.00000000000E+00 -0.00000000000E+00 -0.65809734151E+02  0.65809734151E+02  0.00000000000E+00 0. -1.
         23    2    1    2    0    0 -0.25722922358E+02  0.45581132942E+00  0.45826539477E+02  0.10405884293E+03  0.89812552427E+02 0.  0.
         23    2    1    2    0    0  0.51668913551E+02 -0.17956160784E+02  0.88318419084E+02  0.13850850381E+03  0.91609836479E+02 0.  0.
        -13    1    4    4    0    0  0.72453988822E+02 -0.29016268599E+02  0.83833273504E+02  0.11454056961E+03  0.00000000000E+00 0.  1.
         13    1    4    4    0    0 -0.20785075272E+02  0.11060107814E+02  0.44851455803E+01  0.23967934200E+02  0.00000000000E+00 0. -1.
        -13    1    3    3    0    0  0.25804142637E+02  0.16082537402E+02  0.39495017119E+02  0.49843336202E+02  0.00000000000E+00 0.  1.
         13    1    3    3    0    0 -0.51527064995E+02 -0.15626726073E+02  0.63315223583E+01  0.54215506731E+02  0.00000000000E+00 0. -1.
          1    1    1    2  501    0 -0.25945991193E+02  0.17500349455E+02  0.95130973680E+01  0.32710177492E+02  0.00000000000E+00 0. -1.
<scales pt_clust_5="13000.00000" pt_clust_6="13000.00000" pt_clust_7="13000.00000" pt_clust_8="13000.00000" pt_clust_9="31.29629"></scales>
<clustering>
<clus scale="   31.296">  1  9  2 -1</clus>
<clus scale="   89.813">  7  8 -1 -1</clus>
<clus scale="   91.610">  5  6 -1 -1</clus>
<clus scale="   97.060">  2  7  1 -1</clus>
<clus scale="   31.296">  1  5  2 -1</clus>
</clustering>
</event>
<event>
 9    1  0.1426358E-005  0.1009485E+03  0.7546771E-02  0.1279764E+00
          4   -1    0    0  502    0 -0.00000000000E+00  0.00000000000E+00  0.18706348741E+03  0.18706348741E+03  0.00000000000E+00 0. -1.
         21   -1    0    0  501  502  0.00000000000E+00 -0.00000000000E+00 -0.86018797173E+02  0.86018797173E+02  0.00000000000E+00 0.  1.
         23    2    1    2    0    0  0.98884806397E+01 -0.19856341215E+02  0.62817635541E+02  0.11621955629E+03  0.95230633695E+02 0.  0.
         23    2    1    2    0    0 -0.39676522662E+02  0.40143095634E+02  0.57514430720E+01  0.10834937752E+03  0.92308254965E+02 0.  0.
        -11    1    4    4    0    0  0.26224831323E+02  0.30859280810E+02 -0.54459382897E+01  0.40861904433E+02  0.00000000000E+00 0. -1.
         11    1    4    4    0    0 -0.65901353985E+02  0.92838148233E+01  0.11197381362E+02  0.67487473090E+02  0.00000000000E+00 0.  1.
        -13    1    3    3    0    0  0.92962618925E+01 -0.48736897577E+02  0.28977095933E+01  0.49700124662E+02  0.00000000000E+00 0.  1.
         13    1    3    3    0    0  0.59221874719E+00  0.28880556362E+02  0.59919925948E+02  0.66519431630E+02  0.00000000000E+00 0. -1.
          4    1    1    2  501    0  0.29788042023E+02 -0.20286754419E+02  0.32475611624E+02  0.48513350768E+02  0.00000000000E+00 0. -1.
<scales pt_clust_5="13000.00000" pt_clust_6="13000.00000" pt_clust_7="13000.00000" pt_clust_8="13000.00000" pt_clust_9="36.03999"></scales>
<clustering>
<clus scale="   36.040">  2  9  1 -1</clus>
<clus scale="   92.308">  5  6 -1 -1</clus>
<clus scale="   95.231">  7  8 -1 -1</clus>
<clus scale="   98.196">  2  5  1 -1</clus>
<clus scale="   36.040">  2  5  1 -1</clus>
</clustering>
</event>
<event>
 9    1  0.1426358E-005  0.2226589E+03  0.7546771E-02  0.1166572E+00
          1   -1    0    0  502    0 -0.00000000000E+00  0.00000000000E+00  0.17131380813E+03  0.17131380813E+03  0.00000000000E+00 0. -1.
         21   -1    0    0  501  502  0.00000000000E+00 -0.00000000000E+00 -0.62702193949E+03  0.62702193949E+03  0.00000000000E+00 0. -1.
         23    2    1    2    0    0  0.37839411173E+02 -0.21704340194E+01  0.58181860626E+02  0.11382151045E+03  0.90186892144E+02 0.  0.
         23    2    1    2    0    0  0.15530202401E+03 -0.91068566688E+02 -0.11606121541E+03  0.23255753491E+03  0.90557157752E+02 0.  0.
        -11    1    3    3    0    0 -0.29204558251E+02 -0.76594308400E+01  0.22663794928E+02  0.37752095358E+02  0.00000000000E+00 0.  1.
         11    1    3    3    0    0  0.67043969424E+02  0.54889968206E+01  0.35518065698E+02  0.76069415096E+02  0.00000000000E+00 0. -1.
        -13    1    4    4    0    0  0.12059486751E+03 -0.46300137733E+02 -0.11927262250E+03  0.17582031539E+03  0.00000000000E+00 0. -1.
         13    1    4    4    0    0  0.34707156501E+02 -0.44768428955E+02  0.32114070960E+01  0.56737219522E+02  0.00000000000E+00 0.  1.
          1    1    1    2  501    0 -0.19314143519E+03  0.93239000707E+02 -0.39782877658E+03  0.45195670226E+03  0.00000000000E+00 0. -1.
<scales pt_clust_5="13000.00000" pt_clust_6="13000.00000" pt_clust_7="13000.00000" pt_clust_8="13000.00000" pt_clust_9="203.41182"></scales>
<clustering>
<clus scale="   90.187">  5  6 -1 -1</clus>
<clus scale="   90.557">  7  8 -1 -1</clus>
<clus scale="   97.827">  1  5  2 -1</clus>
<clus scale="  203.412">  2  9  1 -1</clus>
<clus scale="  203.412">  2  5  1 -1</clus>
</clustering>
</event>
<event>
 9    1  0.1426358E-005  0.2612406E+03  0.7546771E-02  0.1106410E+00
         21   -1    0    0  501  502  0.00000000000E+00  0.00000000000E+00  0.77829962378E+03  0.77829962378E+03  0.00000000000E+00 0. -1.
          4   -1    0    0  502    0 -0.00000000000E+00 -0.00000000000E+00 -0.42802309395E+03  0.42802309395E+03  0.00000000000E+00 0. -1.
         23    2    1    2    0    0  0.24436115417E+03  0.36336982356E+00 -0.20243574208E+03  0.33004847919E+03  0.90770387474E+02 0.  0.
         23    2    1    2    0    0 -0.24155314183E+03 -0.75632100315E+02 -0.45977394941E+02  0.27286510376E+03  0.90957732395E+02 0.  0.
        -11    1    3    3    0    0  0.75916544622E+02  0.32167324149E+02 -0.32363482708E+02  0.88574564652E+02  0.00000000000E+00 0.  1.
         11    1    3    3    0    0  0.16844460954E+03 -0.31803954326E+02 -0.17007225937E+03  0.24147391454E+03  0.00000000000E+00 0. -1.
        -13    1    4    4    0    0 -0.22195902106E+03 -0.45273223480E+02 -0.18143493015E+02  0.22725461081E+03  0.00000000000E+00 0. -1.
         13    1    4    4    0    0 -0.19594120764E+02 -0.30358876835E+02 -0.27833901926E+02  0.45610492955E+02  0.00000000000E+00 0.  1.
          4    1    1    2  501    0 -0.28080123392E+01  0.75268730491E+02  0.59868966686E+03  0.60340913477E+03  0.00000000000E+00 0. -1.
<scales pt_clust_5="13000.00000" pt_clust_6="13000.00000" pt_clust_7="13000.00000" pt_clust_8="13000.00000" pt_clust_9="75.32109"></scales>
<clustering>
<clus scale="   75.321">  1  9  2 -1</clus>
<clus scale="   90.770">  5  6 -1 -1</clus>
<clus scale="   90.958">  7  8 -1 -1</clus>
<clus scale="  261.175">  2  5  1 -1</clus>
<clus scale="   75.321">  1  5  2 -1</clus>
</clustering>
</event>
<event>
 9    1  0.1426358E-005  0.9929681E+02  0.7546771E-02  0.1282515E+00
          1   -1    0    0  502    0 -0.00000000000E+00  0.00000000000E+00  0.34229623441E+03  0.34229623441E+03  0.00000000000E+00 0. -1.
         21   -1    0    0  501  502  0.00000000000E+00 -0.00000000000E+00 -0.40837747944E+02  0.40837747944E+02  0.00000000000E+00 0.  1.
         23    2    1    2    0    0  0.41887621107E+02  0.15767179451E+02  0.17015098955E+03  0.19840552992E+03  0.91707242394E+02 0.  0.
         23    2    1    2    0    0 -0.18516962647E+02 -0.22985331898E+02  0.67739139900E+02  0.11661659286E+03  0.90219927218E+02 0.  0.
        -11    1    3    3    0    0  0.32545037757E+02  0.53674856684E+02  0.98292465720E+02  0.11662580563E+03  0.00000000000E+00 0.  1.
         11    1    3    3    0    0  0.93425833497E+01 -0.37907677233E+02  0.71858523830E+02  0.81779724283E+02  0.00000000000E+00 0. -1.
        -11    1    4    4    0    0 -0.12860915912E+02 -0.47517505117E+02  0.75624224668E+02  0.90234914569E+02  0.00000000000E+00 0. -1.
         11    1    4    4    0    0 -0.56560467346E+01  0.24532173219E+02 -0.78850847682E+01  0.26381678288E+02  0.00000000000E+00 0.  1.
          1    1    1    2  501    0 -0.23370658461E+02  0.72181524469E+01  0.63568357018E+02  0.68111859581E+02  0.00000000000E+00 0. -1.
<scales pt_clust_5="13000.00000" pt_clust_6="13000.00000" pt_clust_7="13000.00000" pt_clust_8="13000.00000" pt_clust_9="24.45997"></scales>
<clustering>
<clus scale="   24.460">  2  9  1 -1</clus>
<clus scale="   90.220">  7  8 -1 -1</clus>
<clus scale="   91.707">  5  6 -1 -1</clus>
<clus scale="   97.925">  2  7  1 -1</clus>
<clus scale="   24.460">  2  5  1 -1</clus>
</clustering>
</event>
<event>
 9    1  0.1426358E-005  0.1028311E+03  0.7546771E-02  0.1275793E+00
         -3   -1    0    0    0  501 -0.00000000000E+00  0.00000000000E+00  0.21649237660E+03  0.21649237660E+03  0.00000000000E+00 0.  1.
         21   -1    0    0  501  502  0.00000000000E+00 -0.00000000000E+00 -0.65619133603E+02  0.65619133603E+02  0.00000000000E+00 0. -1.
         23    2    1    2    0    0  0.67276858932E+01  0.35129168398E+02  0.97701489925E+02  0.13997321959E+03  0.93635467853E+02 0.  0.
         23    2    1    2    0    0  0.78038124352E+01 -0.53861667175E+02  0.53160954883E+02  0.11843025250E+03  0.90761549704E+02 0.  0.
        -11    1    3    3    0    0 -0.10216203963E+02 -0.22933629198E+02  0.48874460772E-01  0.25106265359E+02  0.00000000000E+00 0. -1.
         11    1    3    3    0    0  0.16943889856E+02  0.58062797596E+02  0.97652615464E+02  0.11486695423E+03  0.00000000000E+00 0.  1.
        -13    1    4    4    0    0  0.31835823273E+02 -0.44925517271E+01 -0.11001175786E+02  0.33981296814E+02  0.00000000000E+00 0.  1.
         13    1    4    4    0    0 -0.24032010838E+02 -0.49369115448E+02  0.64162130669E+02  0.84448955690E+02  0.00000000000E+00 0. -1.
         -3    1    1    2    0  502 -0.14531498328E+02  0.18732498777E+02  0.10798187480E-01  0.23708038103E+02  0.00000000000E+00 0.  1.
<scales pt_clust_5="13000.00000" pt_clust_6="13000.00000" pt_clust_7="13000.00000" pt_clust_8="13000.00000" pt_clust_9="23.70804"></scales>
<clustering>
<clus scale="   23.708">  2  9  1 -1</clus>
<clus scale="   90.762">  7  8 -1 -1</clus>
<clus scale="   93.635">  5  6 -1 -1</clus>
<clus scale="  100.221">  2  7  1 -1</clus>
<clus scale="   23.708">  2  5  1 -1</clus>
</clustering>
</event>
<event>
 9    1  0.1426358E-005  0.1175990E+03  0.7546771E-02  0.1248872E+00
          1   -1    0    0  502    0 -0.00000000000E+00  0.00000000000E+00  0.93950398735E+02  0.93950398735E+02  0.00000000000E+00 0. -1.
         21   -1    0    0  501  502  0.00000000000E+00 -0.00000000000E+00 -0.57623901740E+03  0.57623901740E+03  0.00000000000E+00 0.  1.
         23    2    1    2    0    0  0.70538215487E+02 -0.29972456893E+02  0.45793094408E+02  0.12686976711E+03  0.90138461789E+02 0.  0.
         23    2    1    2    0    0 -0.52176222751E+02  0.39262097353E+02 -0.43092776883E+03  0.44401028855E+03  0.84749772153E+02 0.  0.
        -13    1    4    4    0    0  0.90479539900E+01  0.41568086565E+02 -0.12598592483E+03  0.13297452593E+03  0.00000000000E+00 0. -1.
         13    1    4    4    0    0 -0.61224176741E+02 -0.23059892117E+01 -0.30494184400E+03  0.31103576262E+03  0.00000000000E+00 0.  1.
        -13    1    3    3    0    0  0.68088070794E+02 -0.54003168249E+02  0.15749291328E+02  0.88319690572E+02  0.00000000000E+00 0.  1.
         13    1    3    3    0    0  0.24501446931E+01  0.24030711355E+02  0.30043803080E+02  0.38550076534E+02  0.00000000000E+00 0. -1.
          1    1    1    2  501    0 -0.18361992736E+02 -0.92896404596E+01 -0.97153944242E+02  0.99309360479E+02  0.00000000000E+00 0. -1.
<scales pt_clust_5="13000.00000" pt_clust_6="13000.00000" pt_clust_7="13000.00000" pt_clust_8="13000.00000" pt_clust_9="20.57815"></scales>
<clustering>
<clus scale="   20.578">  2  9  1 -1</clus>
<clus scale="   84.750">  5  6 -1 -1</clus>
<clus scale="   90.138">  7  8 -1 -1</clus>
<clus scale="  113.521">  2  5  1 -1</clus>
<clus scale="   20.578">  2  5  1 -1</clus>
</clustering>
</event>
<event>
 9    1  0.1426358E-005  0.1010490E+03  0.7546771E-02  0.1281528E+00
          1   -1    0    0  502    0 -0.00000000000E+00  0.00000000000E+00  0.33514144408E+03  0.33514144408E+03  0.00000000000E+00 0. -1.
         21   -1    0    0  501  502  0.00000000000E+00 -0.00000000000E+00 -0.60456045261E+02  0.60456045261E+02  0.00000000000E+00 0.  1.
         23    2    1    2    0    0 -0.38020185012E+02 -0.60201345617E+01  0.22127252346E+03  0.24105725713E+03  0.87551670949E+02 0.  0.
         23    2    1    2    0    0  0.16503001994E+02  0.40756612772E+02  0.37521360070E+02  0.11069787437E+03  0.94407183886E+02 0.  0.
        -13    1    4    4    0    0  0.37518242799E+02 -0.12424547417E+01  0.49602091544E+02  0.62205544142E+02  0.00000000000E+00 0. -1.
         13    1    4    4    0    0 -0.21015240805E+02  0.41999067513E+02 -0.12080731474E+02  0.48492330229E+02  0.00000000000E+00 0.  1.
        -13    1    3    3    0    0  0.22566964237E+02 -0.22071346814E+02  0.94581786664E+02  0.99710213085E+02  0.00000000000E+00 0. -1.
         13    1    3    3    0    0 -0.60587149249E+02  0.16051212253E+02  0.12669073680E+03  0.14134704404E+03  0.00000000000E+00 0.  1.
          1    1    1    2  501    0  0.21517183018E+02 -0.34736478210E+02  0.15891515294E+02  0.43842357849E+02  0.00000000000E+00 0. -1.
<scales pt_clust_5="13000.00000" pt_clust_6="13000.00000" pt_clust_7="13000.00000" pt_clust_8="13000.00000" pt_clust_9="40.86089"></scales>
<clustering>
<clus scale="   40.861">  2  9  1 -1</clus>
<clus scale="   87.552">  7  8 -1 -1</clus>
<clus scale="   94.407">  5  6 -1 -1</clus>
<clus scale="   94.676">  1  7  2 -1</clus>
<clus scale="   40.861">  2  5  1 -1</clus>
</clustering>
</event>
<event>
 9    1  0.1426358E-005  0.1159867E+03  0.7546771E-02  0.1255121E+00
         21   -1    0    0  501  502  0.00000000000E+00  0.00000000000E+00  0.20480325610E+03  0.20480325610E+03  0.00000000000E+00 0. -1.
          1   -1    0    0  502    0 -0.00000000000E+00 -0.00000000000E+00 -0.35611282626E+03  0.35611282626E+03  0.00000000000E+00 0. -1.
         23    2    1    2    0    0  0.82444174301E+02  0.27693738923E+02 -0.27125521120E+03  0.29955313056E+03  0.92675257621E+02 0.  0.
         23    2    1    2    0    0 -0.32551999769E+02 -0.16229214729E+02 -0.39046197709E+02  0.94332807261E+02  0.77788513744E+02 0.  0.
        -11    1    4    4    0    0  0.20551397979E+02  0.11110083008E+02 -0.73463973620E+00  0.23373780158E+02  0.00000000000E+00 0. -1.
         11    1    4    4    0    0 -0.53103397748E+02 -0.27339297738E+02 -0.38311557973E+02  0.70959027104E+02  0.00000000000E+00 0.  1.
        -11    1    3    3    0    0  0.45726618292E+02  0.56229799071E+02 -0.21312572899E+03  0.22511172844E+03  0.00000000000E+00 0. -1.
         11    1    3    3    0    0  0.36717556008E+02 -0.28536060148E+02 -0.58129482213E+02  0.74441402125E+02  0.00000000000E+00 0.  1.
          1    1    1    2  501    0 -0.49892174531E+02 -0.11464524194E+02  0.15899183875E+03  0.16703014453E+03  0.00000000000E+00 0. -1.
<scales pt_clust_5="13000.00000" pt_clust_6="13000.00000" pt_clust_7="13000.00000" pt_clust_8="13000.00000" pt_clust_9="51.19243"></scales>
<clustering>
<clus scale="   51.192">  1  9  2 -1</clus>
<clus scale="   77.789">  5  6 -1 -1</clus>
<clus scale="   92.675">  7  8 -1 -1</clus>
<clus scale="  104.476">  1  5  2 -1</clus>
<clus scale="   51.192">  1  5  2 -1</clus>
</clustering>
</event>
<event>
 9    1  0.1426358E-005  0.1669923E+03  0.7546771E-02  0.1181366E+00
         21   -1    0    0  501  502  0.00000000000E+00  0.00000000000E+00  0.18871902501E+03  0.18871902501E+03  0.00000000000E+00 0.  1.
          4   -1    0    0  502    0 -0.00000000000E+00 -0.00000000000E+00 -0.24510863311E+03  0.24510863311E+03  0.00000000000E+00 0. -1.
         23    2    1    2    0    0  0.13900357213E+03  0.10483386182E+02 -0.12090303578E+03  0.20624378147E+03  0.92125234782E+02 0.  0.
         23    2    1    2    0    0 -0.13414322712E+03 -0.50038367841E+02  0.77163263574E+02  0.18577194204E+03  0.89770828035E+02 0.  0.
        -11    1    4    4    0    0 -0.23380569135E+02  0.24757661275E+02  0.25246406936E+02  0.42390728563E+02  0.00000000000E+00 0.  1.
         11    1    4    4    0    0 -0.11076265799E+03 -0.74796029117E+02  0.51916856638E+02  0.14338121348E+03  0.00000000000E+00 0. -1.
        -13    1    3    3    0    0  0.10566601888E+03  0.96215488308E+01 -0.13355827651E+03  0.17057460236E+03  0.00000000000E+00 0.  1.
         13    1    3    3    0    0  0.33337553256E+02  0.86183735132E+00  0.12655240726E+02  0.35669179112E+02  0.00000000000E+00 0. -1.
          4    1    1    2  501    0 -0.48603450146E+01  0.39554981659E+02 -0.12649835894E+02  0.41811934610E+02  0.00000000000E+00 0. -1.
<scales pt_clust_5="13000.00000" pt_clust_6="13000.00000" pt_clust_7="13000.00000" pt_clust_8="13000.00000" pt_clust_9="39.85249"></scales>
<clustering>
<clus scale="   39.852">  1  9  2 -1</clus>
<clus scale="   89.771">  5  6 -1 -1</clus>
<clus scale="   92.125">  7  8 -1 -1</clus>
<clus scale="  165.705">  1  5  2 -1</clus>
<clus scale="   39.852">  1  5  2 -1</clus>
</clustering>
</event>
<event>
 9    1  0.1426358E-005  0.1085911E+03  0.7546771E-02  0.1264140E+00
         21   -1    0    0  501  502  0.00000000000E+00  0.00000000000E+00  0.18379142457E+03  0.18379142457E+03  0.00000000000E+00 0. -1.
          1   -1    0    0  502    0 -0.00000000000E+00 -0.00000000000E+00 -0.24816258288E+03  0.24816258288E+03  0.00000000000E+00 0. -1.
         23    2    1    2    0    0  0.44914872507E+00  0.80279476622E+02 -0.14965547509E+03  0.19256812469E+03  0.90778440841E+02 0.  0.
         23    2    1    2    0    0  0.10205067014E+02 -0.29789522734E+02 -0.41414685567E+02  0.10258169806E+03  0.88409668803E+02 0.  0.
        -13    1    3    3    0    0  0.39567101792E+02  0.12375346793E+02 -0.66003482539E+02  0.77943341343E+02  0.00000000000E+00 0.  1.
         13    1    3    3    0    0 -0.39117953067E+02  0.67904129829E+02 -0.83651992555E+02  0.11462478335E+03  0.00000000000E+00 0. -1.
        -13    1    4    4    0    0  0.41128374096E+02  0.58197841588E+01 -0.28079011218E+01  0.41632887867E+02  0.00000000000E+00 0.  1.
         13    1    4    4    0    0 -0.30923307082E+02 -0.35609306893E+02 -0.38606784445E+02  0.60948810189E+02  0.00000000000E+00 0. -1.
          1    1    1    2  501    0 -0.10654215739E+02 -0.50489953887E+02  0.12669900235E+03  0.13680418471E+03  0.00000000000E+00 0. -1.
<scales pt_clust_5="13000.00000" pt_clust_6="13000.00000" pt_clust_7="13000.00000" pt_clust_8="13000.00000" pt_clust_9="51.60182"></scales>
<clustering>
<clus scale="   51.602">  1  9  2 -1</clus>
<clus scale="   88.410">  7  8 -1 -1</clus>
<clus scale="   90.778">  5  6 -1 -1</clus>
<clus scale="  106.619">  1  7  2 -1</clus>
<clus scale="   51.602">  1  5  2 -1</clus>
</clustering>
</event>
<event>
 9    1  0.1426358E-005  0.2970648E+03  0.7546771E-02  0.1087201E+00
         21   -1    0    0  501  502  0.00000000000E+00  0.00000000000E+00  0.16633339227E+03  0.16633339227E+03  0.00000000000E+00 0.  1.
          1   -1    0    0  502    0 -0.00000000000E+00 -0.00000000000E+00 -0.76294471320E+03  0.76294471320E+03  0.00000000000E+00 0. -1.
         23    2    1    2    0    0  0.15076745573E+03 -0.22988660027E+03 -0.43170778090E+03  0.52185739460E+03  0.10190612114E+03 0.  0.
         23    2    1    2    0    0 -0.11371517846E+03  0.26664932960E+03 -0.18016921300E+03  0.35303863395E+03  0.90234832295E+02 0.  0.
        -11    1    3    3    0    0  0.57074843327E+02 -0.88480434980E+02 -0.82970934860E+02  0.13405409784E+03  0.00000000000E+00 0.  1.
         11    1    3    3    0    0  0.93692612403E+02 -0.14140616529E+03 -0.34873684603E+03  0.38780329677E+03  0.00000000000E+00 0. -1.
        -13    1    4    4    0    0 -0.65246210674E+02  0.22016717218E+03 -0.16863338042E+03  0.28489975203E+03  0.00000000000E+00 0. -1.
         13    1    4    4    0    0 -0.48468967786E+02  0.46482157423E+02 -0.11535832586E+02  0.68138881928E+02  0.00000000000E+00 0.  1.
          1    1    1    2  501    0 -0.37052277270E+02 -0.36762729335E+02  0.15265672965E+02  0.54382076920E+02  0.00000000000E+00 0. -1.
<scales pt_clust_5="13000.00000" pt_clust_6="13000.00000" pt_clust_7="13000.00000" pt_clust_8="13000.00000" pt_clust_9="52.19549"></scales>
<clustering>
<clus scale="   52.195">  1  9  2 -1</clus>
<clus scale="   90.235">  7  8 -1 -1</clus>
<clus scale="  101.906">  5  6 -1 -1</clus>
<clus scale="  293.266">  1  7  2 -1</clus>
<clus scale="   52.195">  1  5  2 -1</clus>
</clustering>
</event>
<event>
 9    1  0.1426358E-005  0.1310781E+03  0.7546771E-02  0.1229949E+00
         -1   -1    0    0    0  501 -0.00000000000E+00  0.00000000000E+00  0.17262977668E+03  0.17262977668E+03  0.00000000000E+00 0.  1.
         21   -1    0    0  501  502  0.00000000000E+00 -0.00000000000E+00 -0.13444154597E+03  0.13444154597E+03  0.00000000000E+00 0. -1.
         23    2    1    2    0    0  0.87892048742E+02  0.99022772974E+01  0.58936591476E+02  0.14929370735E+03  0.10484284388E+03 0.  0.
         23    2    1    2    0    0 -0.58218265082E+02 -0.38673225511E+02 -0.11923661865E+02  0.11551443737E+03  0.91194444835E+02 0.  0.
        -13    1    4    4    0    0  0.52536504895E+01 -0.44850193707E+02 -0.23176960390E+02  0.50757385787E+02  0.00000000000E+00 0. -1.
         13    1    4    4    0    0 -0.63471915572E+02  0.61769681961E+01  0.11253298525E+02  0.64757051586E+02  0.00000000000E+00 0.  1.
        -13    1    3    3    0    0  0.35581057584E+02 -0.44896913012E+02  0.76206712077E+01  0.57791167893E+02  0.00000000000E+00 0.  1.
         13    1    3    3    0    0  0.52310991158E+02  0.54799190309E+02  0.51315920269E+02  0.91502539459E+02  0.00000000000E+00 0. -1.
         -1    1    1    2    0  502 -0.29673783660E+02  0.28770948213E+02 -0.88246988970E+01  0.42263177926E+02  0.00000000000E+00 0.  1.
<scales pt_clust_5="13000.00000" pt_clust_6="13000.00000" pt_clust_7="13000.00000" pt_clust_8="13000.00000" pt_clust_9="41.33160"></scales>
<clustering>
<clus scale="   41.332">  2  9  1 -1</clus>
<clus scale="   91.194">  5  6 -1 -1</clus>
<clus scale="  104.843">  7  8 -1 -1</clus>
<clus scale="  120.440">  2  5  1 -1</clus>
<clus scale="   41.332">  2  5  1 -1</clus>
</clustering>
</event>
<event>
 9    1  0.1426358E-005  0.9516539E+02  0.7546771E-02  0.1291119E+00
         21   -1    0    0  501  502  0.00000000000E+00  0.00000000000E+00  0.84860541889E+02  0.84860541889E+02  0.00000000000E+00 0.  1.
         -1   -1    0    0    0  501 -0.00000000000E+00 -0.00000000000E+00 -0.28865917140E+03  0.28865917140E+03  0.00000000000E+00 0.  1.
         23    2    1    2    0    0  0.24696627775E+02 -0.13238853457E+02 -0.17815759500E+03  0.20253628873E+03  0.92171736065E+02 0.  0.
         23    2    1    2    0    0 -0.20946832074E+02 -0.16306198835E+02 -0.69475885502E+02  0.11798846967E+03  0.91595406071E+02 0.  0.
        -11    1    4    4    0    0 -0.29191779216E+02  0.30684432271E+02 -0.13525682795E+02  0.44459402297E+02  0.00000000000E+00 0. -1.
         11    1    4    4    0    0  0.82449471424E+01 -0.46990631105E+02 -0.55950202707E+02  0.73529067368E+02  0.00000000000E+00 0.  1.
        -13    1    3    3    0    0  0.73721523068E+01 -0.51067796894E+02 -0.12349176613E+03  0.13383753140E+03  0.00000000000E+00 0.  1.
         13    1    3    3    0    0  0.17324475468E+02  0.37828943437E+02 -0.54665828874E+02  0.68698757327E+02  0.00000000000E+00 0. -1.
         -1    1    1    2    0  502 -0.37497957010E+01  0.29545052292E+02  0.43834850995E+02  0.52994954897E+02  0.00000000000E+00 0.  1.
<scales pt_clust_5="13000.00000" pt_clust_6="13000.00000" pt_clust_7="13000.00000" pt_clust_8="13000.00000" pt_clust_9="29.78206"></scales>
<clustering>
<clus scale="   29.782">  1  9  2 -1</clus>
<clus scale="   91.595">  5  6 -1 -1</clus>
<clus scale="   92.172">  7  8 -1 -1</clus>
<clus scale="   94.607">  1  5  2 -1</clus>
<clus scale="   29.782">  1  5  2 -1</clus>
</clustering>
</event>
<event>
 9    1  0.1426358E-005  0.1490272E+03  0.7546771E-02  0.1220002E+00
         21   -1    0    0  501  502  0.00000000000E+00  0.00000000000E+00  0.78027756736E+02  0.78027756736E+02  0.00000000000E+00 0.  1.
         -3   -1    0    0    0  501 -0.00000000000E+00 -0.00000000000E+00 -0.86833102823E+03  0.86833102823E+03  0.00000000000E+00 0.  1.
         23    2    1    2    0    0 -0.34896178671E+02  0.21729687048E+02 -0.21638510714E+03  0.23871735916E+03  0.92051835318E+02 0.  0.
         23    2    1    2    0    0  0.13422652352E+03 -0.76807884855E+02 -0.56590848473E+03  0.59378063251E+03  0.91688688828E+02 0.  0.
        -13    1    3    3    0    0 -0.41531233118E+02 -0.20019381572E+02 -0.54409305935E+02  0.71316137971E+02  0.00000000000E+00 0.  1.
         13    1    3    3    0    0  0.66350544471E+01  0.41749068619E+02 -0.16197580121E+03  0.16740122119E+03  0.00000000000E+00 0. -1.
        -13    1    4    4    0    0 -0.40493937697E+01 -0.30762910532E+02 -0.63740734540E+02  0.70891716681E+02  0.00000000000E+00 0. -1.
         13    1    4    4    0    0  0.13827591729E+03 -0.46044974323E+02 -0.50216775019E+03  0.52288891583E+03  0.00000000000E+00 0.  1.
         -3    1    1    2    0  502 -0.99330344853E+02  0.55078197807E+02 -0.80096796165E+01  0.11386079330E+03  0.00000000000E+00 0.  1.
<scales pt_clust_5="13000.00000" pt_clust_6="13000.00000" pt_clust_7="13000.00000" pt_clust_8="13000.00000" pt_clust_9="117.48312"></scales>
<clustering>
<clus scale="   91.689">  7  8 -1 -1</clus>
<clus scale="   92.052">  5  6 -1 -1</clus>
<clus scale="  100.814">  2  5  1 -1</clus>
<clus scale="  117.483">  1  9  2 -1</clus>
<clus scale="  117.483">  1  5  2 -1</clus>
</clustering>
</event>
<event>
 9    1  0.1426358E-005  0.9340718E+02  0.7546771E-02  0.1301670E+00
          1   -1    0    0  502    0 -0.00000000000E+00  0.00000000000E+00  0.53800081392E+03  0.53800081392E+03  0.00000000000E+00 0. -1.
         21   -1    0    0  501  502  0.00000000000E+00 -0.00000000000E+00 -0.35420334917E+02  0.35420334917E+02  0.00000000000E+00 0. -1.
         23    2    1    2    0    0 -0.29988684674E+02 -0.28241564866E+01  0.17305782666E+03  0.19851108212E+03  0.92468055503E+02 0.  0.
         23    2    1    2    0    0 -0.50925791322E+02 -0.12063359984E+02  0.18729962432E+03  0.21060492294E+03  0.80835162020E+02 0.  0.
        -11    1    3    3    0    0 -0.30601243544E+02 -0.43718217130E+02  0.12149155035E+03  0.13269482063E+03  0.00000000000E+00 0. -1.
         11    1    3    3    0    0  0.61255886981E+00  0.40894060643E+02  0.51566276308E+02  0.65816261490E+02  0.00000000000E+00 0.  1.
        -11    1    4    4    0    0 -0.88481590208E+01  0.22002067662E+02  0.10928243401E+02  0.26111441999E+02  0.00000000000E+00 0.  1.
         11    1    4    4    0    0 -0.42077632301E+02 -0.34065427647E+02  0.17637138092E+03  0.18449348094E+03  0.00000000000E+00 0. -1.
          1    1    1    2  501    0  0.80914475997E+02  0.14887516471E+02  0.14222302802E+03  0.16430514378E+03  0.00000000000E+00 0. -1.
<scales pt_clust_5="13000.00000" pt_clust_6="13000.00000" pt_clust_7="13000.00000" pt_clust_8="13000.00000" pt_clust_9="82.27266"></scales>
<clustering>
<clus scale="   80.835">  7  8 -1 -1</clus>
<clus scale="   82.273">  2  9  1 -1</clus>
<clus scale="   82.273">  2  7  1 -1</clus>
<clus scale="   92.468">  5  6 -1 -1</clus>
<clus scale="   82.273">  2  5  1 -1</clus>
</clustering>
</event>
<event>
 9    1  0.1426358E-005  0.1055381E+03  0.7546771E-02  0.1269688E+00
          3   -1    0    0  502    0 -0.00000000000E+00  0.00000000000E+00  0.60244923606E+02  0.60244923606E+02  0.00000000000E+00 0. -1.
         21   -1    0    0  501  502  0.00000000000E+00 -0.00000000000E+00 -0.36823558117E+03  0.36823558117E+03  0.00000000000E+00 0.  1.
         23    2    1    2    0    0  0.21168321284E+02  0.13179634306E+02 -0.70875506641E+02  0.12156597060E+03  0.95567500651E+02 0.  0.
         23    2    1    2    0    0 -0.67290976294E+02  0.18687041683E+02 -0.90326570569E+02  0.14978505996E+03  0.96950470960E+02 0.  0.
        -11    1    3    3    0    0  0.22783455780E+02 -0.37247606873E+02 -0.14727297112E+02  0.46079966962E+02  0.00000000000E+00 0.  1.
         11    1    3    3    0    0 -0.16151344963E+01  0.50427241179E+02 -0.56148209529E+02  0.75486003641E+02  0.00000000000E+00 0. -1.
        -13    1    4    4    0    0 -0.52590644477E+02  0.39944561144E+01 -0.10947970412E+03  0.12152175600E+03  0.00000000000E+00 0.  1.
         13    1    4    4    0    0 -0.14700331817E+02  0.14692585569E+02  0.19153133551E+02  0.28263303966E+02  0.00000000000E+00 0. -1.
          3    1    1    2  501    0  0.46122655010E+02 -0.31866675990E+02 -0.14678858035E+03  0.15712947421E+03  0.00000000000E+00 0. -1.
<scales pt_clust_5="13000.00000" pt_clust_6="13000.00000" pt_clust_7="13000.00000" pt_clust_8="13000.00000" pt_clust_9="56.06054"></scales>
<clustering>
<clus scale="   56.061">  2  9  1 -1</clus>
<clus scale="   95.568">  5  6 -1 -1</clus>
<clus scale="   96.950">  7  8 -1 -1</clus>
<clus scale="  104.269">  1  5  2 -1</clus>
<clus scale="   56.061">  2  5  1 -1</clus>
</clustering>
</event>
<event>
 9    1  0.1426358E-005  0.1062258E+03  0.7546771E-02  0.1270883E+00
         -1   -1    0    0    0  501 -0.00000000000E+00  0.00000000000E+00  0.87750282303E+02  0.87750282303E+02  0.00000000000E+00 0.  1.
         21   -1    0    0  501  502  0.00000000000E+00 -0.00000000000E+00 -0.24368017086E+03  0.24368017086E+03  0.00000000000E+00 0.  1.
         23    2    1    2    0    0  0.61490621631E+02 -0.35359696929E+02  0.79282163717E+01  0.11480156936E+03  0.89917400974E+02 0.  0.
         23    2    1    2    0    0 -0.17554386741E+02  0.71591212910E+01 -0.12762515427E+03  0.15307975386E+03  0.82376098038E+02 0.  0.
        -13    1    4    4    0    0  0.28372628962E+02 -0.11396825627E+02 -0.74051831162E+02  0.80115962249E+02  0.00000000000E+00 0.  1.
         13    1    4    4    0    0 -0.45927015704E+02  0.18555946918E+02 -0.53573323103E+02  0.72963791608E+02  0.00000000000E+00 0. -1.
        -13    1    3    3    0    0  0.60490058967E+01 -0.53901268149E+02  0.14027943605E+02  0.56024283862E+02  0.00000000000E+00 0.  1.
         13    1    3    3    0    0  0.55441615734E+02  0.18541571221E+02 -0.60997272331E+01  0.58777285501E+02  0.00000000000E+00 0. -1.
         -1    1    1    2    0  502 -0.43936234890E+02  0.28200575638E+02 -0.36232950658E+02  0.63549129938E+02  0.00000000000E+00 0.  1.
<scales pt_clust_5="13000.00000" pt_clust_6="13000.00000" pt_clust_7="13000.00000" pt_clust_8="13000.00000" pt_clust_9="52.20790"></scales>
<clustering>
<clus scale="   52.208">  2  9  1 -1</clus>
<clus scale="   82.376">  5  6 -1 -1</clus>
<clus scale="   89.917">  7  8 -1 -1</clus>
<clus scale="   99.923">  2  5  1 -1</clus>
<clus scale="   52.208">  2  5  1 -1</clus>
</clustering>
</event>
<event>
 9    1  0.1426358E-005  0.1046761E+03  0.7546771E-02  0.1272169E+00
          2   -1    0    0  502    0 -0.00000000000E+00  0.00000000000E+00  0.59279761339E+03  0.59279761339E+03  0.00000000000E+00 0. -1.
         21   -1    0    0  501  502  0.00000000000E+00 -0.00000000000E+00 -0.36097393035E+02  0.36097393035E+02  0.00000000000E+00 0. -1.
         23    2    1    2    0    0 -0.82035157159E+01 -0.51808151712E+02  0.40016256897E+03  0.41284444664E+03  0.86942931058E+02 0.  0.
         23    2    1    2    0    0 -0.27893452324E+02  0.57901397355E+02  0.10344698286E+03  0.15156228311E+03  0.90217686186E+02 0.  0.
        -13    1    3    3    0    0  0.39133938951E+02 -0.18276469291E+02  0.18764217733E+03  0.19254890605E+03  0.00000000000E+00 0. -1.
         13    1    3    3    0    0 -0.47337454667E+02 -0.33531682422E+02  0.21252039164E+03  0.22029554059E+03  0.00000000000E+00 0.  1.
        -13    1    4    4    0    0  0.63305177508E+01  0.20610704879E+02  0.98356470867E+02  0.10069196578E+03  0.00000000000E+00 0.  1.
         13    1    4    4    0    0 -0.34223970075E+02  0.37290692476E+02  0.50905119883E+01  0.50870317331E+02  0.00000000000E+00 0. -1.
          2    1    1    2  501    0  0.36096968040E+02 -0.60932456423E+01  0.53090668525E+02  0.64488276676E+02  0.00000000000E+00 0. -1.
<scales pt_clust_5="13000.00000" pt_clust_6="13000.00000" pt_clust_7="13000.00000" pt_clust_8="13000.00000" pt_clust_9="36.60763"></scales>
<clustering>
<clus scale="   36.608">  2  9  1 -1</clus>
<clus scale="   86.943">  5  6 -1 -1</clus>
<clus scale="   90.218">  7  8 -1 -1</clus>
<clus scale="  101.867">  1  5  2 -1</clus>
<clus scale="   36.608">  2  5  1 -1</clus>
</clustering>
</event>
<event>
 9    1  0.1426358E-005  0.1150898E+03  0.7546771E-02  0.1251450E+00
         21   -1    0    0  501  502  0.00000000000E+00  0.00000000000E+00  0.53863318635E+02  0.53863318635E+02  0.00000000000E+00 0.  1.
          2   -1    0    0  502    0 -0.00000000000E+00 -0.00000000000E+00 -0.64996040151E+03  0.64996040151E+03  0.00000000000E+00 0. -1.
         23    2    1    2    0    0  0.62932129255E+02 -0.57983681822E+02 -0.38047772782E+03  0.40045410783E+03  0.90981486381E+02 0.  0.
         23    2    1    2    0    0 -0.70851788677E+01  0.60251189519E+02 -0.22161796134E+03  0.24715567511E+03  0.91054935910E+02 0.  0.
        -11    1    3    3    0    0  0.36870093336E+02 -0.38855751687E+01 -0.39282150567E+02  0.54014709387E+02  0.00000000000E+00 0.  1.
         11    1    3    3    0    0  0.26062035920E+02 -0.54098106653E+02 -0.34119557725E+03  0.34643939845E+03  0.00000000000E+00 0. -1.
        -13    1    4    4    0    0  0.24013638878E+02  0.18109088619E+02 -0.14260323595E+02  0.33285894487E+02  0.00000000000E+00 0. -1.
         13    1    4    4    0    0 -0.31098817746E+02  0.42142100900E+02 -0.20735763774E+03  0.21386978062E+03  0.00000000000E+00 0.  1.
          2    1    1    2  501    0 -0.55846950388E+02 -0.22675076973E+01  0.59986062790E+01  0.56213937205E+02  0.00000000000E+00 0. -1.
<scales pt_clust_5="13000.00000" pt_clust_6="13000.00000" pt_clust_7="13000.00000" pt_clust_8="13000.00000" pt_clust_9="55.89296"></scales>
<clustering>
<clus scale="   55.893">  1  9  2 -1</clus>
<clus scale="   90.981">  5  6 -1 -1</clus>
<clus scale="   91.055">  7  8 -1 -1</clus>
<clus scale="  115.032">  2  5  1 -1</clus>
<clus scale="   55.893">  1  5  2 -1</clus>
</clustering>
</event>
<event>
 9    1  0.1426358E-005  0.9157691E+02  0.7546771E-02  0.1299814E+00
         21   -1    0    0  501  502  0.00000000000E+00  0.00000000000E+00  0.49586469671E+03  0.49586469671E+03  0.00000000000E+00 0.  1.
          1   -1    0    0  502    0 -0.00000000000E+00 -0.00000000000E+00 -0.36440679977E+02  0.36440679977E+02  0.00000000000E+00 0. -1.
         23    2    1    2    0    0  0.85318565977E+01 -0.92002427990E+01  0.47687686819E+02  0.10306737860E+03  0.90505977773E+02 0.  0.
         23    2    1    2    0    0  0.89163799359E+01  0.28278441681E+02  0.29321206972E+03  0.30792675011E+03  0.89254655395E+02 0.  0.
        -11    1    3    3    0    0 -0.28567914075E+02  0.26964031393E+02  0.16602563791E+02  0.42647741183E+02  0.00000000000E+00 0.  1.
         11    1    3    3    0    0  0.37099770673E+02 -0.36164274192E+02  0.31085123027E+02  0.60419637416E+02  0.00000000000E+00 0. -1.
        -11    1    4    4    0    0 -0.34492248046E+02  0.35337908395E+02  0.13636723427E+03  0.14503277398E+03  0.00000000000E+00 0.  1.
         11    1    4    4    0    0  0.43408627982E+02 -0.70594667135E+01  0.15684483545E+03  0.16289397613E+03  0.00000000000E+00 0. -1.
          1    1    1    2  501    0 -0.17448236534E+02 -0.19078198882E+02  0.11852426019E+03  0.12131124798E+03  0.00000000000E+00 0. -1.
<scales pt_clust_5="13000.00000" pt_clust_6="13000.00000" pt_clust_7="13000.00000" pt_clust_8="13000.00000" pt_clust_9="25.85379"></scales>
<clustering>
<clus scale="   25.854">  1  9  2 -1</clus>
<clus scale="   89.255">  7  8 -1 -1</clus>
<clus scale="   90.340">  1  7  2 -1</clus>
<clus scale="   90.506">  5  6 -1 -1</clus>
<clus scale="   25.854">  1  5  2 -1</clus>
</clustering>
</event>
<event>
 9    1  0.1426358E-005  0.3784908E+03  0.7546771E-02  0.1051495E+00
         -1   -1    0    0    0  501 -0.00000000000E+00  0.00000000000E+00  0.16372009491E+04  0.16372009491E+04  0.00000000000E+00 0.  1.
         21   -1    0    0  501  502  0.00000000000E+00 -0.00000000000E+00 -0.17822207182E+03  0.17822207182E+03  0.00000000000E+00 0.  1.
         23    2    1    2    0    0  0.54651147431E+02 -0.35573229263E+03  0.12456178191E+04  0.12997304083E+04  0.90571358316E+02 0.  0.
         23    2    1    2    0    0 -0.56288905247E+02  0.39746223828E+03  0.22920513941E+03  0.47102600847E+03  0.90475593458E+02 0.  0.
        -11    1    3    3    0    0  0.16891528933E+02 -0.31433734203E+03  0.10377598222E+04  0.10844531972E+04  0.00000000000E+00 0. -1.
         11    1    3    3    0    0  0.37759618498E+02 -0.41394950597E+02  0.20785799689E+03  0.21527721104E+03  0.00000000000E+00 0.  1.
        -13    1    4    4    0    0 -0.17045457452E+01  0.29199720870E+03  0.14993849393E+03  0.32824811854E+03  0.00000000000E+00 0.  1.
         13    1    4    4    0    0 -0.54584359502E+02  0.10546502958E+03  0.79266645483E+02  0.14277788993E+03  0.00000000000E+00 0. -1.
         -1    1    1    2    0  502  0.16377578160E+01 -0.41729945656E+02 -0.15844081279E+02  0.44666604154E+02  0.00000000000E+00 0.  1.
<scales pt_clust_5="13000.00000" pt_clust_6="13000.00000" pt_clust_7="13000.00000" pt_clust_8="13000.00000" pt_clust_9="41.76207"></scales>
<clustering>
<clus scale="   41.762">  2  9  1 -1</clus>
<clus scale="   90.476">  7  8 -1 -1</clus>
<clus scale="   90.571">  5  6 -1 -1</clus>
<clus scale="  378.468">  2  7  1 -1</clus>
<clus scale="   41.762">  2  5  1 -1</clus>
</clustering>
</event>
<event>
 9    1  0.1426358E-005  0.9062460E+02  0.7546771E-02  0.1302865E+00
         21   -1    0    0  501  502  0.00000000000E+00  0.00000000000E+00  0.16722541041E+03  0.16722541041E+03  0.00000000000E+00 0. -1.
          2   -1    0    0  502    0 -0.00000000000E+00 -0.00000000000E+00 -0.30409418921E+03  0.30409418921E+03  0.00000000000E+00 0. -1.
         23    2    1    2    0    0 -0.13254981334E+02  0.30917084085E+02 -0.16761075701E+03  0.19332766442E+03  0.90281002135E+02 0.  0.
         23    2    1    2    0    0 -0.31945475326E+02  0.33674470842E+02 -0.89853766526E+02  0.13391388725E+03  0.87776685162E+02 0.  0.
        -11    1    4    4    0    0  0.17162247834E+02 -0.17241509288E+02 -0.41909085567E+02  0.48458062758E+02  0.00000000000E+00 0.  1.
         11    1    4    4    0    0 -0.49107723160E+02  0.50915980130E+02 -0.47944680959E+02  0.85455824487E+02  0.00000000000E+00 0. -1.
        -13    1    3    3    0    0 -0.11458986393E+02  0.58099423528E+02 -0.14899748961E+03  0.16033434845E+03  0.00000000000E+00 0. -1.
         13    1    3    3    0    0 -0.17959949411E+01 -0.27182339443E+02 -0.18613267404E+02  0.32993315973E+02  0.00000000000E+00 0.  1.
          2    1    1    2  501    0  0.45200456660E+02 -0.64591554928E+02  0.12059574474E+03  0.14407804795E+03  0.00000000000E+00 0. -1.
<scales pt_clust_5="13000.00000" pt_clust_6="13000.00000" pt_clust_7="13000.00000" pt_clust_8="13000.00000" pt_clust_9="78.83622"></scales>
<clustering>
<clus scale="   78.836">  1  9  2 -1</clus>
<clus scale="   87.777">  5  6 -1 -1</clus>
<clus scale="   88.130">  1  5  2 -1</clus>
<clus scale="   90.281">  7  8 -1 -1</clus>
<clus scale="   78.836">  1  5  2 -1</clus>
</clustering>
</event>
<event>
 9    1  0.1426358E-005  0.9678804E+02  0.7546771E-02  0.1287425E+00
         21   -1    0    0  501  502  0.00000000000E+00  0.00000000000E+00  0.23934447437E+02  0.23934447437E+02  0.00000000000E+00 0.  1.
          3   -1    0    0  502    0 -0.00000000000E+00 -0.00000000000E+00 -0.61375213613E+03  0.61375213613E+03  0.00000000000E+00 0. -1.
         23    2    1    2    0    0  0.10032495310E+02  0.37734899063E+02 -0.37499399928E+03  0.38795476390E+03  0.91453954379E+02 0.  0.
         23    2    1    2    0    0 -0.14416298351E+02 -0.12288080994E+02 -0.19745964897E+03  0.21861481178E+03  0.91887411361E+02 0.  0.
        -11    1    3    3    0    0 -0.18024682866E+02  0.60514873163E+02 -0.24884056081E+03  0.25672663237E+03  0.00000000000E+00 0.  1.
         11    1    3    3    0    0  0.28057178176E+02 -0.22779974101E+02 -0.12615343847E+03  0.13122813153E+03  0.00000000000E+00 0. -1.
        -13    1    4    4    0    0 -0.33586671957E+02 -0.43609051781E+02 -0.95279846795E+02  0.11003664451E+03  0.00000000000E+00 0. -1.
         13    1    4    4    0    0  0.19170373605E+02  0.31320970786E+02 -0.10217980217E+03  0.10857816727E+03  0.00000000000E+00 0.  1.
          3    1    1    2  501    0  0.43838030417E+01 -0.25446818068E+02 -0.17364040448E+02  0.31117007883E+02  0.00000000000E+00 0. -1.
<scales pt_clust_5="13000.00000" pt_clust_6="13000.00000" pt_clust_7="13000.00000" pt_clust_8="13000.00000" pt_clust_9="25.82166"></scales>
<clustering>
<clus scale="   25.822">  1  9  2 -1</clus>
<clus scale="   91.454">  5  6 -1 -1</clus>
<clus scale="   91.887">  7  8 -1 -1</clus>
<clus scale="   96.377">  2  5  1 -1</clus>
<clus scale="   25.822">  1  5  2 -1</clus>
</clustering>
</event>
<event>
 9    1  0.1426358E-005  0.9460579E+02  0.7546771E-02  0.1293618E+00
         21   -1    0    0  501  502  0.00000000000E+00  0.00000000000E+00  0.20536538036E+02  0.20536538036E+02  0.00000000000E+00 0. -1.
          1   -1    0    0  502    0 -0.00000000000E+00 -0.00000000000E+00 -0.77054774492E+03  0.77054774492E+03  0.00000000000E+00 0. -1.
         23    2    1    2    0    0  0.13542239296E+02  0.72601429014E+01 -0.32870534143E+03  0.34212569132E+03  0.93630578638E+02 0.  0.
         23    2    1    2    0    0  0.59542114275E+01  0.41690122482E+02 -0.23791061792E+03  0.25814439696E+03  0.90904062708E+02 0.  0.
        -13    1    4    4    0    0  0.14903300331E+02 -0.26959716363E+02 -0.79912376849E+02  0.85644162911E+02  0.00000000000E+00 0.  1.
         13    1    4    4    0    0 -0.89490889034E+01  0.68649838844E+02 -0.15799824107E+03  0.17250023405E+03  0.00000000000E+00 0. -1.
        -13    1    3    3    0    0 -0.31401141922E+01 -0.37462914988E+02 -0.74173029361E+02  0.83156290208E+02  0.00000000000E+00 0.  1.
         13    1    3    3    0    0  0.16682353488E+02  0.44723057889E+02 -0.25453231207E+03  0.25896940111E+03  0.00000000000E+00 0. -1.
          1    1    1    2  501    0 -0.19496450723E+02 -0.48950265383E+02 -0.18339524753E+03  0.19081419467E+03  0.00000000000E+00 0. -1.
<scales pt_clust_5="13000.00000" pt_clust_6="13000.00000" pt_clust_7="13000.00000" pt_clust_8="13000.00000" pt_clust_9="52.69006"></scales>
<clustering>
<clus scale="   52.690">  1  9  2 -1</clus>
<clus scale="   90.904">  5  6 -1 -1</clus>
<clus scale="   91.908">  1  5  2 -1</clus>
<clus scale="   93.631">  7  8 -1 -1</clus>
<clus scale="   52.690">  1  5  2 -1</clus>
</clustering>
</event>
<event>
 9    1  0.1426358E-005  0.1157068E+03  0.7546771E-02  0.1252813E+00
         21   -1    0    0  501  502  0.00000000000E+00  0.00000000000E+00  0.75435704793E+02  0.75435704793E+02  0.00000000000E+00 0. -1.
          1   -1    0    0  502    0 -0.00000000000E+00 -0.00000000000E+00 -0.51700636972E+03  0.51700636972E+03  0.00000000000E+00 0. -1.
         23    2    1    2    0    0 -0.88366677675E+01  0.72824344376E+02 -0.34836422647E+03  0.36671272214E+03  0.87972236901E+02 0.  0.
         23    2    1    2    0    0 -0.20842148530E+02 -0.52186438884E+02 -0.13249275216E+03  0.17234237152E+03  0.94814260998E+02 0.  0.
        -11    1    3    3    0    0 -0.30606304309E+02  0.21270897507E+02 -0.45957625569E+02  0.59171786284E+02  0.00000000000E+00 0.  1.
         11    1    3    3    0    0  0.21769636541E+02  0.51553446869E+02 -0.30240660090E+03  0.30754093586E+03  0.00000000000E+00 0. -1.
        -11    1    4    4    0    0 -0.27414616422E+02  0.25333434504E+00  0.23462303263E+01  0.27515998412E+02  0.00000000000E+00 0.  1.
         11    1    4    4    0    0  0.65724678926E+01 -0.52439773229E+02 -0.13483898249E+03  0.14482637311E+03  0.00000000000E+00 0. -1.
          1    1    1    2  501    0  0.29678816297E+02 -0.20637905492E+02  0.39286313703E+02  0.53386980850E+02  0.00000000000E+00 0. -1.
<scales pt_clust_5="13000.00000" pt_clust_6="13000.00000" pt_clust_7="13000.00000" pt_clust_8="13000.00000" pt_clust_9="36.14907"></scales>
<clustering>
<clus scale="   36.149">  1  9  2 -1</clus>
<clus scale="   87.972">  5  6 -1 -1</clus>
<clus scale="   94.814">  7  8 -1 -1</clus>
<clus scale="  110.170">  2  5  1 -1</clus>
<clus scale="   36.149">  1  5  2 -1</clus>
</clustering>
</event>
<event>
 9    1  0.1426358E-005  0.1261877E+03  0.7546771E-02  0.1233338E+00
         21   -1    0    0  501  502  0.00000000000E+00  0.00000000000E+00  0.38421892650E+03  0.38421892650E+03  0.00000000000E+00 0.  1.
          4   -1    0    0  502    0 -0.00000000000E+00 -0.00000000000E+00 -0.86844564967E+02  0.86844564967E+02  0.00000000000E+00 0. -1.
         23    2    1    2    0    0  0.41656330139E+02  0.77802970068E+02 -0.52665752223E+01  0.12659458105E+03  0.90608493773E+02 0.  0.
         23    2    1    2    0    0 -0.89403146502E+01 -0.89111090763E+02  0.21254404466E+03  0.24795123728E+03  0.91017193017E+02 0.  0.
        -11    1    3    3    0    0  0.63039643379E+02  0.24497338527E+02 -0.12264359589E+02  0.68735222036E+02  0.00000000000E+00 0.  1.
         11    1    3    3    0    0 -0.21383313239E+02  0.53305631541E+02  0.69977843670E+01  0.57859359011E+02  0.00000000000E+00 0. -1.
        -13    1    4    4    0    0  0.25855698334E+02 -0.16003460239E+02  0.12525436272E+03  0.12889252599E+03  0.00000000000E+00 0.  1.
         13    1    4    4    0    0 -0.34796012985E+02 -0.73107630524E+02  0.87289681943E+02  0.11905871129E+03  0.00000000000E+00 0. -1.
          4    1    1    2  501    0 -0.32716015489E+02  0.11308120695E+02  0.90096892095E+02  0.96517673140E+02  0.00000000000E+00 0. -1.
<scales pt_clust_5="13000.00000" pt_clust_6="13000.00000" pt_clust_7="13000.00000" pt_clust_8="13000.00000" pt_clust_9="34.61519"></scales>
<clustering>
<clus scale="   34.615">  1  9  2 -1</clus>
<clus scale="   90.608">  5  6 -1 -1</clus>
<clus scale="   91.017">  7  8 -1 -1</clus>
<clus scale="  125.893">  2  5  1 -1</clus>
<clus scale="   34.615">  1  5  2 -1</clus>
</clustering>
</event>
<event>
 9    1  0.1426358E-005  0.9837958E+02  0.7546771E-02  0.1289204E+00
         21   -1    0    0  501  502  0.00000000000E+00  0.00000000000E+00  0.81458730863E+02  0.81458730863E+02  0.00000000000E+00 0.  1.
         -1   -1    0    0    0  501 -0.00000000000E+00 -0.00000000000E+00 -0.17347089240E+03  0.17347089240E+03  0.00000000000E+00 0.  1.
         23    2    1    2    0    0 -0.23964293474E+02  0.98968507170E+01 -0.71323616555E+02  0.11157242853E+03  0.81787000885E+02 0.  0.
         23    2    1    2    0    0  0.47451710772E+02 -0.15284862741E+02 -0.40344434072E+02  0.11225987297E+03  0.92137472474E+02 0.  0.
        -11    1    3    3    0    0  0.75258151633E+01  0.36762358725E+02 -0.12316163602E+02  0.39494262858E+02  0.00000000000E+00 0. -1.
         11    1    3    3    0    0 -0.31490108637E+02 -0.26865508008E+02 -0.59007452953E+02  0.72078165671E+02  0.00000000000E+00 0.  1.
        -13    1    4    4    0    0  0.25096992474E+02  0.21937794766E+02 -0.56773660594E+02  0.65835965913E+02  0.00000000000E+00 0.  1.
         13    1    4    4    0    0  0.22354718298E+02 -0.37222657507E+02  0.16429226523E+02  0.46423907054E+02  0.00000000000E+00 0. -1.
         -1    1    1    2    0  502 -0.23487417298E+02  0.53880120238E+01  0.19655889091E+02  0.31097321764E+02  0.00000000000E+00 0.  1.
<scales pt_clust_5="13000.00000" pt_clust_6="13000.00000" pt_clust_7="13000.00000" pt_clust_8="13000.00000" pt_clust_9="24.09750"></scales>
<clustering>
<clus scale="   24.097">  1  9  2 -1</clus>
<clus scale="   81.787">  5  6 -1 -1</clus>
<clus scale="   88.760">  2  5  1 -1</clus>
<clus scale="   92.137">  7  8 -1 -1</clus>
<clus scale="   24.097">  1  5  2 -1</clus>
</clustering>
</event>
<event>
 9    1  0.1426358E-005  0.1451110E+03  0.7546771E-02  0.1209013E+00
          1   -1    0    0  502    0 -0.00000000000E+00  0.00000000000E+00  0.74075963427E+03  0.74075963427E+03  0.00000000000E+00 0. -1.
         21   -1    0    0  501  502  0.00000000000E+00 -0.00000000000E+00 -0.17422739965E+03  0.17422739965E+03  0.00000000000E+00 0. -1.
         23    2    1    2    0    0  0.79710364269E+02 -0.85484240910E+02  0.62032754435E+03  0.63780952809E+03  0.91287645569E+02 0.  0.
         23    2    1    2    0    0 -0.54979171237E+02  0.80026389121E+02  0.74919739759E+02  0.14599448857E+03  0.79211685129E+02 0.  0.
        -11    1    3    3    0    0 -0.45975496744E+01 -0.56530356425E+02  0.29977972435E+03  0.30509785609E+03  0.00000000000E+00 0.  1.
         11    1    3    3    0    0  0.84307913944E+02 -0.28953884485E+02  0.32054782000E+03  0.33271167200E+03  0.00000000000E+00 0. -1.
        -13    1    4    4    0    0 -0.43958960852E+02  0.54216384585E+02  0.90190604945E+02  0.11404451682E+03  0.00000000000E+00 0. -1.
         13    1    4    4    0    0 -0.11020210385E+02  0.25810004536E+02 -0.15270865186E+02  0.31949971747E+02  0.00000000000E+00 0.  1.
          1    1    1    2  501    0 -0.24731193032E+02  0.54578517893E+01 -0.12871504948E+03  0.13118301726E+03  0.00000000000E+00 0. -1.
<scales pt_clust_5="13000.00000" pt_clust_6="13000.00000" pt_clust_7="13000.00000" pt_clust_8="13000.00000" pt_clust_9="25.32627"></scales>
<clustering>
<clus scale="   25.326">  2  9  1 -1</clus>
<clus scale="   79.212">  7  8 -1 -1</clus>
<clus scale="   91.288">  5  6 -1 -1</clus>
<clus scale="  137.834">  2  7  1 -1</clus>
<clus scale="   25.326">  2  5  1 -1</clus>
</clustering>
</event>
<event>
 9    1  0.1426358E-005  0.9952046E+02  0.7546771E-02  0.1281935E+00
         21   -1    0    0  501  502  0.00000000000E+00  0.00000000000E+00  0.44724760607E+02  0.44724760607E+02  0.00000000000E+00 0.  1.
         -1   -1    0    0    0  501 -0.00000000000E+00 -0.00000000000E+00 -0.30270901240E+03  0.30270901240E+03  0.00000000000E+00 0.  1.
         23    2    1    2    0    0 -0.36867356351E+02 -0.21458657204E+02 -0.17097725580E+03  0.19795356274E+03  0.90181567222E+02 0.  0.
         23    2    1    2    0    0  0.44532922049E+02  0.13211637203E+01 -0.65639065236E+02  0.11913440321E+03  0.88879651908E+02 0.  0.
        -11    1    4    4    0    0 -0.76653493527E+01  0.28796826190E+02 -0.49836834204E+02  0.58066555114E+02  0.00000000000E+00 0. -1.
         11    1    4    4    0    0  0.52198271402E+02 -0.27475662470E+02 -0.15802231032E+02  0.61067848096E+02  0.00000000000E+00 0.  1.
        -13    1    3    3    0    0  0.29818734375E+02 -0.13027936401E+02 -0.56633513694E+02  0.65316452138E+02  0.00000000000E+00 0. -1.
         13    1    3    3    0    0 -0.66686090726E+02 -0.84307208021E+01 -0.11434374210E+03  0.13263711060E+03  0.00000000000E+00 0.  1.
         -1    1    1    2    0  502 -0.76655656979E+01  0.20137493483E+02 -0.21367930759E+02  0.30345807061E+02  0.00000000000E+00 0.  1.
<scales pt_clust_5="13000.00000" pt_clust_6="13000.00000" pt_clust_7="13000.00000" pt_clust_8="13000.00000" pt_clust_9="21.54715"></scales>
<clustering>
<clus scale="   21.547">  1  9  2 -1</clus>
<clus scale="   88.880">  5  6 -1 -1</clus>
<clus scale="   90.182">  7  8 -1 -1</clus>
<clus scale="   98.342">  1  5  2 -1</clus>
<clus scale="   21.547">  1  5  2 -1</clus>
</clustering>
</event>
<event>
 9    1  0.1453299E-005  0.1246227E+03  0.7546771E-02  0.1236522E+00
         21   -1    0    0  501  502  0.00000000000E+00  0.00000000000E+00  0.91085316479E+02  0.91085316479E+02  0.00000000000E+00 0.  1.
          1   -1    0    0  502    0 -0.00000000000E+00 -0.00000000000E+00 -0.62312692874E+03  0.62312692874E+03  0.00000000000E+00 0. -1.
         23    2    1    2    0    0  0.21477130697E+02 -0.73554036681E+02 -0.43823907807E+03  0.45412510957E+03  0.91129919017E+02 0.  0.
         23    2    1    2    0    0 -0.53895408786E+02  0.11951543321E+03 -0.13307091723E+02  0.16188881090E+03  0.94033262951E+02 0.  0.
        -11    1    4    4    0    0 -0.78659505853E+02  0.10849497177E+03 -0.78469872697E+01  0.13423878713E+03  0.00000000000E+00 0.  1.
         11    1    4    4    0    0  0.24764097067E+02  0.11020461435E+02 -0.54601044530E+01  0.27650023769E+02  0.00000000000E+00 0. -1.
        -13    1    3    3    0    0  0.53926200592E+02 -0.66492004366E+02 -0.32840745537E+03  0.33938279051E+03  0.00000000000E+00 0.  1.
         13    1    3    3    0    0 -0.32449069895E+02 -0.70620323151E+01 -0.10983162270E+03  0.11474231906E+03  0.00000000000E+00 0. -1.
          1    1    1    2  501    0  0.32418278089E+02 -0.45961396528E+02 -0.80495442467E+02  0.98198324747E+02  0.00000000000E+00 0. -1.
<scales pt_clust_5="13000.00000" pt_clust_6="13000.00000" pt_clust_7="13000.00000" pt_clust_8="13000.00000" pt_clust_9="56.24409"></scales>
<clustering>
<clus scale="   56.244">  1  9  2 -1</clus>
<clus scale="   91.130">  7  8 -1 -1</clus>
<clus scale="   94.033">  5  6 -1 -1</clus>
<clus scale="  122.447">  2  7  1 -1</clus>
<clus scale="   56.244">  1  5  2 -1</clus>
</clustering>
</event>
<event>
 9    1  0.1426358E-005  0.1939384E+03  0.7546771E-02  0.1156487E+00
          2   -1    0    0  502    0 -0.00000000000E+00  0.00000000000E+00  0.13102174809E+04  0.13102174809E+04  0.00000000000E+00 0. -1.
         21   -1    0    0  501  502  0.00000000000E+00 -0.00000000000E+00 -0.37507038041E+02  0.37507038041E+02  0.00000000000E+00 0.  1.
         23    2    1    2    0    0  0.18360432806E+02 -0.17307018610E+03  0.72826778893E+03  0.75425850137E+03  0.90782816061E+02 0.  0.
         23    2    1    2    0    0 -0.23064704684E+02  0.14966552248E+03  0.53830554876E+03  0.56881703153E+03  0.10415470375E+03 0.  0.
        -11    1    3    3    0    0  0.50372992072E+02 -0.80633208376E+02  0.42898053695E+03  0.43938986528E+03  0.00000000000E+00 0. -1.
         11    1    3    3    0    0 -0.32012559266E+02 -0.92436977728E+02  0.29928725197E+03  0.31486863610E+03  0.00000000000E+00 0.  1.
        -13    1    4    4    0    0 -0.32294967074E+02  0.15693557002E+01  0.14223368694E+03  0.14586243340E+03  0.00000000000E+00 0.  1.
         13    1    4    4    0    0  0.92302623903E+01  0.14809616678E+03  0.39607186183E+03  0.42295459814E+03  0.00000000000E+00 0. -1.
          2    1    1    2  501    0  0.47042718777E+01  0.23404663628E+02  0.61371051876E+01  0.24648986054E+02  0.00000000000E+00 0. -1.
<scales pt_clust_5="13000.00000" pt_clust_6="13000.00000" pt_clust_7="13000.00000" pt_clust_8="13000.00000" pt_clust_9="23.87276"></scales>
<clustering>
<clus scale="   23.873">  2  9  1 -1</clus>
<clus scale="   90.783">  5  6 -1 -1</clus>
<clus scale="  104.155">  7  8 -1 -1</clus>
<clus scale="  187.097">  1  5  2 -1</clus>
<clus scale="   23.873">  2  5  1 -1</clus>
</clustering>
</event>
<event>
 9    1  0.1426358E-005  0.1026847E+03  0.7546771E-02  0.1284837E+00
         21   -1    0    0  501  502  0.00000000000E+00  0.00000000000E+00  0.72225271567E+02  0.72225271567E+02  0.00000000000E+00 0.  1.
          3   -1    0    0  502    0 -0.00000000000E+00 -0.00000000000E+00 -0.21896053578E+03  0.21896053578E+03  0.00000000000E+00 0. -1.
         23    2    1    2    0    0 -0.26672050074E+02 -0.47472539072E+02 -0.11510750922E+03  0.14539444718E+03  0.70176679680E+02 0.  0.
         23    2    1    2    0    0  0.45382972424E+01  0.35975009013E+02 -0.54347014369E+02  0.11205323695E+03  0.91035885920E+02 0.  0.
        -11    1    3    3    0    0  0.16453384168E+01 -0.42856527707E+02 -0.22474549802E+02  0.48419980323E+02  0.00000000000E+00 0.  1.
         11    1    3    3    0    0 -0.28317388491E+02 -0.46160113645E+01 -0.92632959415E+02  0.96974466855E+02  0.00000000000E+00 0. -1.
        -11    1    4    4    0    0  0.37405537703E+02  0.45511531745E+02 -0.50539936006E+02  0.77619320431E+02  0.00000000000E+00 0. -1.
         11    1    4    4    0    0 -0.32867240461E+02 -0.95365227325E+01 -0.38070783635E+01  0.34433916521E+02  0.00000000000E+00 0.  1.
          3    1    1    2  501    0  0.22133752832E+02  0.11497530059E+02  0.22719259372E+02  0.33738123218E+02  0.00000000000E+00 0. -1.
<scales pt_clust_5="13000.00000" pt_clust_6="13000.00000" pt_clust_7="13000.00000" pt_clust_8="13000.00000" pt_clust_9="24.94186"></scales>
<clustering>
<clus scale="   24.942">  1  9  2 -1</clus>
<clus scale="   70.177">  5  6 -1 -1</clus>
<clus scale="   84.743">  2  5  1 -1</clus>
<clus scale="   91.036">  7  8 -1 -1</clus>
<clus scale="   24.942">  1  5  2 -1</clus>
</clustering>
</event>
<event>
 9    1  0.1426358E-005  0.9541378E+02  0.7546771E-02  0.1291641E+00
         -4   -1    0    0    0  501 -0.00000000000E+00  0.00000000000E+00  0.17538059318E+03  0.17538059318E+03  0.00000000000E+00 0.  1.
         21   -1    0    0  501  502  0.00000000000E+00 -0.00000000000E+00 -0.10396067960E+03  0.10396067960E+03  0.00000000000E+00 0. -1.
         23    2    1    2    0    0  0.27426399617E+02  0.11032505343E+02  0.11101344914E+03  0.14778572126E+03  0.92966176371E+02 0.  0.
         23    2    1    2    0    0  0.28442946755E+01  0.55317291553E+01 -0.24629135065E+02  0.93944089440E+02  0.90444500148E+02 0.  0.
        -13    1    3    3    0    0  0.84244454583E+01 -0.24332458767E+02  0.10386293273E+03  0.10700723633E+03  0.00000000000E+00 0.  1.
         13    1    3    3    0    0  0.19001954159E+02  0.35364964110E+02  0.71505164032E+01  0.40778484930E+02  0.00000000000E+00 0. -1.
        -13    1    4    4    0    0  0.45708639153E+02  0.12096992867E+02 -0.12095537764E+02  0.48804907166E+02  0.00000000000E+00 0.  1.
         13    1    4    4    0    0 -0.42864344478E+02 -0.65652637113E+01 -0.12533597302E+02  0.45139182274E+02  0.00000000000E+00 0. -1.
         -4    1    1    2    0  502 -0.30270694293E+02 -0.16564234498E+02 -0.14964400487E+02  0.37611462075E+02  0.00000000000E+00 0.  1.
<scales pt_clust_5="13000.00000" pt_clust_6="13000.00000" pt_clust_7="13000.00000" pt_clust_8="13000.00000" pt_clust_9="34.50636"></scales>
<clustering>
<clus scale="   34.506">  2  9  1 -1</clus>
<clus scale="   90.445">  7  8 -1 -1</clus>
<clus scale="   92.959">  2  7  1 -1</clus>
<clus scale="   92.966">  5  6 -1 -1</clus>
<clus scale="   34.506">  2  5  1 -1</clus>
</clustering>
</event>
<event>
 9    1  0.1426358E-005  0.1008931E+03  0.7546771E-02  0.1280206E+00
          2   -1    0    0  502    0 -0.00000000000E+00  0.00000000000E+00  0.36860679771E+03  0.36860679771E+03  0.00000000000E+00 0. -1.
         21   -1    0    0  501  502  0.00000000000E+00 -0.00000000000E+00 -0.69616200345E+02  0.69616200345E+02  0.00000000000E+00 0. -1.
         23    2    1    2    0    0 -0.32391807250E+02 -0.12826775195E+02  0.12515416397E+03  0.15992266815E+03  0.93262745458E+02 0.  0.
         23    2    1    2    0    0 -0.34615126565E+02  0.77237269542E+02  0.11292400435E+03  0.16717443295E+03  0.89619515066E+02 0.  0.
        -11    1    3    3    0    0  0.13012659150E+02 -0.34569047320E+02  0.17071866259E+02  0.40691484961E+02  0.00000000000E+00 0.  1.
         11    1    3    3    0    0 -0.45404466400E+02  0.21742272125E+02  0.10808229771E+03  0.11923118319E+03  0.00000000000E+00 0. -1.
        -11    1    4    4    0    0  0.95631310406E+01  0.76384403401E+02  0.86045465918E+02  0.11545498154E+03  0.00000000000E+00 0.  1.
         11    1    4    4    0    0 -0.44178257606E+02  0.85286614144E+00  0.26878538435E+02  0.51719451409E+02  0.00000000000E+00 0. -1.
          2    1    1    2  501    0  0.67006933815E+02 -0.64410494347E+02  0.60912429043E+02  0.11112589695E+03  0.00000000000E+00 0. -1.
<scales pt_clust_5="13000.00000" pt_clust_6="13000.00000" pt_clust_7="13000.00000" pt_clust_8="13000.00000" pt_clust_9="92.94429"></scales>
<clustering>
<clus scale="   89.620">  7  8 -1 -1</clus>
<clus scale="   92.944">  2  9  1 -1</clus>
<clus scale="   93.263">  5  6 -1 -1</clus>
<clus scale="   97.535">  2  7  1 -1</clus>
<clus scale="   92.944">  2  5  1 -1</clus>
</clustering>
</event>
<event>
 9    1  0.1426358E-005  0.1249889E+03  0.7546771E-02  0.1235296E+00
          1   -1    0    0  502    0 -0.00000000000E+00  0.00000000000E+00  0.13148614402E+03  0.13148614402E+03  0.00000000000E+00 0. -1.
         21   -1    0    0  501  502  0.00000000000E+00 -0.00000000000E+00 -0.18852143381E+03  0.18852143381E+03  0.00000000000E+00 0.  1.
         23    2    1    2    0    0  0.61911980077E+02  0.61107525950E+02 -0.24449387583E+02  0.12873062040E+03  0.91687387743E+02 0.  0.
         23    2    1    2    0    0 -0.11299503955E+02 -0.90517694202E+02 -0.25253208962E+02  0.13228247356E+03  0.92411019342E+02 0.  0.
        -11    1    3    3    0    0  0.13548284294E+02  0.56089977933E+02  0.21743183067E+02  0.61663665491E+02  0.00000000000E+00 0. -1.
         11    1    3    3    0    0  0.48363695784E+02  0.50175480165E+01 -0.46192570649E+02  0.67066954912E+02  0.00000000000E+00 0.  1.
        -13    1    4    4    0    0  0.34104115628E+02 -0.31071260267E+02 -0.33516623910E+02  0.57025239988E+02  0.00000000000E+00 0.  1.
         13    1    4    4    0    0 -0.45403619583E+02 -0.59446433934E+02  0.82634149479E+01  0.75257233575E+02  0.00000000000E+00 0. -1.
          1    1    1    2  501    0 -0.50612476122E+02  0.29410168252E+02 -0.73326932450E+01  0.58994483861E+02  0.00000000000E+00 0. -1.
<scales pt_clust_5="13000.00000" pt_clust_6="13000.00000" pt_clust_7="13000.00000" pt_clust_8="13000.00000" pt_clust_9="58.53703"></scales>
<clustering>
<clus scale="   58.537">  2  9  1 -1</clus>
<clus scale="   91.687">  5  6 -1 -1</clus>
<clus scale="   92.411">  7  8 -1 -1</clus>
<clus scale="  124.455">  1  5  2 -1</clus>
<clus scale="   58.537">  2  5  1 -1</clus>
</clustering>
</event>
<event>
 9    1  0.1426358E-005  0.1105174E+03  0.7546771E-02  0.1265208E+00
         -2   -1    0    0    0  501 -0.00000000000E+00  0.00000000000E+00  0.67035927738E+03  0.67035927738E+03  0.00000000000E+00 0.  1.
         21   -1    0    0  501  502  0.00000000000E+00 -0.00000000000E+00 -0.10532414266E+03  0.10532414266E+03  0.00000000000E+00 0.  1.
         23    2    1    2    0    0 -0.57311655783E+02  0.39002032019E+01  0.53156989732E+03  0.54268217271E+03  0.92938406300E+02 0.  0.
         23    2    1    2    0    0  0.70734059942E+02  0.44594915399E+02  0.98047613809E+02  0.15113049063E+03  0.78962503181E+02 0.  0.
        -11    1    4    4    0    0  0.56276814765E+02  0.15399242417E+02  0.12610992153E+02  0.59692995152E+02  0.00000000000E+00 0. -1.
         11    1    4    4    0    0  0.14457245176E+02  0.29195672982E+02  0.85436621655E+02  0.91437495475E+02  0.00000000000E+00 0.  1.
        -11    1    3    3    0    0 -0.27395423022E+02  0.48131931016E+02  0.24525654175E+03  0.25143182626E+03  0.00000000000E+00 0. -1.
         11    1    3    3    0    0 -0.29916232761E+02 -0.44231727814E+02  0.28631335556E+03  0.29125034644E+03  0.00000000000E+00 0.  1.
         -2    1    1    2    0  502 -0.13422404158E+02 -0.48495118601E+02 -0.64582376408E+02  0.81870756709E+02  0.00000000000E+00 0.  1.
<scales pt_clust_5="13000.00000" pt_clust_6="13000.00000" pt_clust_7="13000.00000" pt_clust_8="13000.00000" pt_clust_9="50.31836"></scales>
<clustering>
<clus scale="   50.318">  2  9  1 -1</clus>
<clus scale="   78.963">  5  6 -1 -1</clus>
<clus scale="   92.938">  7  8 -1 -1</clus>
<clus scale="   99.054">  2  5  1 -1</clus>
<clus scale="   50.318">  2  5  1 -1</clus>
</clustering>
</event>
<event>
 9    1  0.1426358E-005  0.1633654E+03  0.7546771E-02  0.1190091E+00
          1   -1    0    0  502    0 -0.00000000000E+00  0.00000000000E+00  0.80105302716E+03  0.80105302716E+03  0.00000000000E+00 0. -1.
         21   -1    0    0  501  502  0.00000000000E+00 -0.00000000000E+00 -0.54663356178E+02  0.54663356178E+02  0.00000000000E+00 0.  1.
         23    2    1    2    0    0 -0.11518360356E+03  0.60366867236E+02  0.56780528060E+03  0.59426402693E+03  0.11762429952E+03 0.  0.
         23    2    1    2    0    0  0.82971031642E+02 -0.27107330754E+01  0.10153877737E+03  0.15997375728E+03  0.91596613166E+02 0.  0.
        -13    1    3    3    0    0 -0.11462713585E+03  0.88463826581E+02  0.43323604915E+03  0.45679175033E+03  0.00000000000E+00 0.  1.
         13    1    3    3    0    0 -0.55646771400E+00 -0.28096959345E+02  0.13456923145E+03  0.13747227660E+03  0.00000000000E+00 0. -1.
        -13    1    4    4    0    0  0.96910346453E+02 -0.21858568268E+02  0.87862810128E+02  0.13262460428E+03  0.00000000000E+00 0.  1.
         13    1    4    4    0    0 -0.13939314811E+02  0.19147835193E+02  0.13675967241E+02  0.27349153002E+02  0.00000000000E+00 0. -1.
          1    1    1    2  501    0  0.32212571921E+02 -0.57656134161E+02  0.77045613013E+02  0.10147859913E+03  0.00000000000E+00 0. -1.
<scales pt_clust_5="13000.00000" pt_clust_6="13000.00000" pt_clust_7="13000.00000" pt_clust_8="13000.00000" pt_clust_9="66.04453"></scales>
<clustering>
<clus scale="   66.045">  2  9  1 -1</clus>
<clus scale="   91.597">  7  8 -1 -1</clus>
<clus scale="  117.624">  5  6 -1 -1</clus>
<clus scale="  145.749">  2  7  1 -1</clus>
<clus scale="   66.045">  2  5  1 -1</clus>
</clustering>
</event>
<event>
 9    1  0.1426358E-005  0.1782592E+03  0.7546771E-02  0.1169631E+00
          2   -1    0    0  502    0 -0.00000000000E+00  0.00000000000E+00  0.53678770717E+03  0.53678770717E+03  0.00000000000E+00 0. -1.
         21   -1    0    0  501  502  0.00000000000E+00 -0.00000000000E+00 -0.83197683253E+02  0.83197683253E+02  0.00000000000E+00 0.  1.
         23    2    1    2    0    0 -0.13644815856E+03 -0.58174458728E+02  0.29669947665E+03  0.34387796946E+03  0.90659311777E+02 0.  0.
         23    2    1    2    0    0  0.13895385283E+03  0.87365021819E+02  0.16070319791E+03  0.24656247584E+03  0.89591943963E+02 0.  0.
        -11    1    3    3    0    0 -0.87143791964E+02 -0.41189853801E+02  0.94212057150E+02  0.13478336784E+03  0.00000000000E+00 0.  1.
         11    1    3    3    0    0 -0.49304366598E+02 -0.16984604926E+02  0.20248741950E+03  0.20909460162E+03  0.00000000000E+00 0. -1.
        -11    1    4    4    0    0  0.12284420501E+03  0.29632305822E+02  0.11868342825E+03  0.17336241921E+03  0.00000000000E+00 0. -1.
         11    1    4    4    0    0  0.16109647818E+02  0.57732715997E+02  0.42019769663E+02  0.73200056637E+02  0.00000000000E+00 0.  1.
          2    1    1    2  501    0 -0.25056942670E+01 -0.29190563091E+02 -0.38126506408E+01  0.29544945121E+02  0.00000000000E+00 0. -1.
<scales pt_clust_5="13000.00000" pt_clust_6="13000.00000" pt_clust_7="13000.00000" pt_clust_8="13000.00000" pt_clust_9="29.29791"></scales>
<clustering>
<clus scale="   29.298">  2  9  1 -1</clus>
<clus scale="   89.592">  7  8 -1 -1</clus>
<clus scale="   90.659">  5  6 -1 -1</clus>
<clus scale="  177.719">  2  7  1 -1</clus>
<clus scale="   29.298">  2  5  1 -1</clus>
</clustering>
</event>
<event>
 9    1  0.1426358E-005  0.1028847E+03  0.7546771E-02  0.1278704E+00
          3   -1    0    0  502    0 -0.00000000000E+00  0.00000000000E+00  0.16980265705E+03  0.16980265705E+03  0.00000000000E+00 0. -1.
         21   -1    0    0  501  502  0.00000000000E+00 -0.00000000000E+00 -0.15921115029E+03  0.15921115029E+03  0.00000000000E+00 0.  1.
         23    2    1    2    0    0 -0.12881024439E+01  0.15052077478E+02  0.11809892367E+03  0.15153223260E+03  0.93735998962E+02 0.  0.
         23    2    1    2    0    0  0.27783474245E+02  0.54585418667E+01 -0.68805339787E+02  0.12629035473E+03  0.10204588083E+03 0.  0.
        -11    1    4    4    0    0  0.11305880634E+02  0.40973267214E+02 -0.75431436347E+02  0.86582522211E+02  0.00000000000E+00 0.  1.
         11    1    4    4    0    0  0.16477593611E+02 -0.35514725347E+02  0.66260965593E+01  0.39707832518E+02  0.00000000000E+00 0. -1.
        -11    1    3    3    0    0  0.38072332525E+02  0.33729697052E+02  0.71412646474E+02  0.87675316045E+02  0.00000000000E+00 0.  1.
         11    1    3    3    0    0 -0.39360434969E+02 -0.18677619574E+02  0.46686277194E+02  0.63856916557E+02  0.00000000000E+00 0. -1.
          3    1    1    2  501    0 -0.26495371801E+02 -0.20510619345E+02 -0.38702077114E+02  0.51191220006E+02  0.00000000000E+00 0. -1.
<scales pt_clust_5="13000.00000" pt_clust_6="13000.00000" pt_clust_7="13000.00000" pt_clust_8="13000.00000" pt_clust_9="33.50657"></scales>
<clustering>
<clus scale="   33.507">  2  9  1 -1</clus>
<clus scale="   93.736">  7  8 -1 -1</clus>
<clus scale="   94.649">  1  7  2 -1</clus>
<clus scale="  102.046">  5  6 -1 -1</clus>
<clus scale="   33.507">  2  5  1 -1</clus>
</clustering>
</event>
<event>
 9    1  0.1426358E-005  0.1124436E+03  0.7546771E-02  0.1256808E+00
         21   -1    0    0  501  502  0.00000000000E+00  0.00000000000E+00  0.57878653832E+02  0.57878653832E+02  0.00000000000E+00 0. -1.
          1   -1    0    0  502    0 -0.00000000000E+00 -0.00000000000E+00 -0.70510254362E+03  0.70510254362E+03  0.00000000000E+00 0. -1.
         23    2    1    2    0    0  0.32315853097E+02 -0.48119600182E+02 -0.38265306799E+03  0.39818170982E+03  0.93624213298E+02 0.  0.
         23    2    1    2    0    0 -0.21671336338E+02  0.66108745633E+02 -0.30128994333E+03  0.32254775420E+03  0.91768244634E+02 0.  0.
        -13    1    3    3    0    0 -0.25000240252E+02  0.17329675917E+01 -0.39941274122E+02  0.47152100354E+02  0.00000000000E+00 0. -1.
         13    1    3    3    0    0  0.57316093349E+02 -0.49852567774E+02 -0.34271179387E+03  0.35102960947E+03  0.00000000000E+00 0.  1.
        -13    1    4    4    0    0 -0.12254179962E+02 -0.22251085404E+02 -0.51524961779E+02  0.57446474344E+02  0.00000000000E+00 0.  1.
         13    1    4    4    0    0 -0.94171563759E+01  0.88359831037E+02 -0.24976498155E+03  0.26510127986E+03  0.00000000000E+00 0. -1.
          1    1    1    2  501    0 -0.10644516759E+02 -0.17989145451E+02  0.36719121530E+02  0.42251733421E+02  0.00000000000E+00 0. -1.
<scales pt_clust_5="13000.00000" pt_clust_6="13000.00000" pt_clust_7="13000.00000" pt_clust_8="13000.00000" pt_clust_9="20.90251"></scales>
<clustering>
<clus scale="   20.903">  1  9  2 -1</clus>
<clus scale="   91.768">  7  8 -1 -1</clus>
<clus scale="   93.624">  5  6 -1 -1</clus>
<clus scale="  110.903">  1  7  2 -1</clus>
<clus scale="   20.903">  1  5  2 -1</clus>
</clustering>
</event>
<event>
 9    1  0.1426358E-005  0.1115769E+03  0.7546771E-02  0.1259865E+00
         21   -1    0    0  501  502  0.00000000000E+00  0.00000000000E+00  0.11793104127E+03  0.11793104127E+03  0.00000000000E+00 0.  1.
         -1   -1    0    0    0  501 -0.00000000000E+00 -0.00000000000E+00 -0.27555801353E+03  0.27555801353E+03  0.00000000000E+00 0.  1.
         23    2    1    2    0    0  0.28780306900E+02  0.28660291384E+02 -0.81276349862E+02  0.12706661257E+03  0.88827701846E+02 0.  0.
         23    2    1    2    0    0 -0.11065205427E+03  0.16824841401E+02 -0.89831278490E+02  0.17179893347E+03  0.94436553002E+02 0.  0.
        -11    1    3    3    0    0  0.29385884619E+02  0.54629100624E+02 -0.79765909327E+02  0.10104686606E+03  0.00000000000E+00 0.  1.
         11    1    3    3    0    0 -0.60557771867E+00 -0.25968809240E+02 -0.15104405345E+01  0.26019746508E+02  0.00000000000E+00 0. -1.
        -11    1    4    4    0    0 -0.22383735389E+02  0.46965245706E+02 -0.22086573270E+02  0.56520639000E+02  0.00000000000E+00 0.  1.
         11    1    4    4    0    0 -0.88268318883E+02 -0.30140404305E+02 -0.67744705220E+02  0.11527829447E+03  0.00000000000E+00 0. -1.
         -1    1    1    2    0  502  0.81871747371E+02 -0.45485132784E+02  0.13480656091E+02  0.94623508763E+02  0.00000000000E+00 0.  1.
<scales pt_clust_5="13000.00000" pt_clust_6="13000.00000" pt_clust_7="13000.00000" pt_clust_8="13000.00000" pt_clust_9="93.65832"></scales>
<clustering>
<clus scale="   88.828">  5  6 -1 -1</clus>
<clus scale="   93.658">  1  9  2 -1</clus>
<clus scale="   94.437">  7  8 -1 -1</clus>
<clus scale="  106.871">  2  5  1 -1</clus>
<clus scale="   93.658">  1  5  2 -1</clus>
</clustering>
</event>
<event>
 9    1  0.1426358E-005  0.9267872E+02  0.7546771E-02  0.1298846E+00
         21   -1    0    0  501  502  0.00000000000E+00  0.00000000000E+00  0.38175956305E+02  0.38175956305E+02  0.00000000000E+00 0. -1.
         -3   -1    0    0    0  501 -0.00000000000E+00 -0.00000000000E+00 -0.35103796783E+03  0.35103796783E+03  0.00000000000E+00 0.  1.
         23    2    1    2    0    0  0.91531748633E+01 -0.16505200109E+02 -0.18009900065E+03  0.20327856435E+03  0.92359744733E+02 0.  0.
         23    2    1    2    0    0  0.99516149987E+01 -0.27206654388E+01 -0.13152366673E+03  0.15880303818E+03  0.88393966791E+02 0.  0.
        -11    1    3    3    0    0 -0.37287779710E+02 -0.11886002418E+01 -0.12073057314E+03  0.12636321686E+03  0.00000000000E+00 0.  1.
         11    1    3    3    0    0  0.46440954573E+02 -0.15316599867E+02 -0.59368427517E+02  0.76915347487E+02  0.00000000000E+00 0. -1.
        -13    1    4    4    0    0  0.68943665595E+01  0.30402699394E+02 -0.98944091030E+01  0.32707120818E+02  0.00000000000E+00 0. -1.
         13    1    4    4    0    0  0.30572484392E+01 -0.33123364833E+02 -0.12162925762E+03  0.12609591736E+03  0.00000000000E+00 0.  1.
         -3    1    1    2    0  502 -0.19104789862E+02  0.19225865548E+02 -0.12393441471E+01  0.27132321604E+02  0.00000000000E+00 0.  1.
<scales pt_clust_5="13000.00000" pt_clust_6="13000.00000" pt_clust_7="13000.00000" pt_clust_8="13000.00000" pt_clust_9="27.10400"></scales>
<clustering>
<clus scale="   27.104">  1  9  2 -1</clus>
<clus scale="   88.394">  7  8 -1 -1</clus>
<clus scale="   88.727">  1  7  2 -1</clus>
<clus scale="   92.360">  5  6 -1 -1</clus>
<clus scale="   27.104">  1  5  2 -1</clus>
</clustering>
</event>
<event>
 9    1  0.1426358E-005  0.9747064E+02  0.7546771E-02  0.1286245E+00
         21   -1    0    0  501  502  0.00000000000E+00  0.00000000000E+00  0.94989514242E+02  0.94989514242E+02  0.00000000000E+00 0. -1.
         -2   -1    0    0    0  501 -0.00000000000E+00 -0.00000000000E+00 -0.20390683553E+03  0.20390683553E+03  0.00000000000E+00 0.  1.
         23    2    1    2    0    0 -0.26580852015E+02  0.72713103786E+01 -0.87893295217E+02  0.12883870650E+03  0.90082003195E+02 0.  0.
         23    2    1    2    0    0  0.60248068786E+02  0.12663715465E+02  0.21724654242E+02  0.11210648790E+03  0.91135638177E+02 0.  0.
        -13    1    4    4    0    0 -0.19978706803E+02 -0.13573848024E+02 -0.25216684486E+01  0.24284910695E+02  0.00000000000E+00 0.  1.
         13    1    4    4    0    0  0.80226775589E+02  0.26237563489E+02  0.24246322691E+02  0.87821577208E+02  0.00000000000E+00 0. -1.
        -13    1    3    3    0    0  0.31681260496E+02  0.71438368759E+01 -0.15712522755E+02  0.36077971718E+02  0.00000000000E+00 0. -1.
         13    1    3    3    0    0 -0.58262112512E+02  0.12747350269E+00 -0.72180772462E+02  0.92760734780E+02  0.00000000000E+00 0.  1.
         -2    1    1    2    0  502 -0.33667216771E+02 -0.19935025843E+02 -0.42748680315E+02  0.57951155374E+02  0.00000000000E+00 0.  1.
<scales pt_clust_5="13000.00000" pt_clust_6="13000.00000" pt_clust_7="13000.00000" pt_clust_8="13000.00000" pt_clust_9="39.12657"></scales>
<clustering>
<clus scale="   39.127">  1  9  2 -1</clus>
<clus scale="   90.082">  7  8 -1 -1</clus>
<clus scale="   91.136">  5  6 -1 -1</clus>
<clus scale="   96.486">  2  7  1 -1</clus>
<clus scale="   39.127">  1  5  2 -1</clus>
</clustering>
</event>
<event>
 9    1  0.1426358E-005  0.1007063E+03  0.7546771E-02  0.1279175E+00
          1   -1    0    0  502    0 -0.00000000000E+00  0.00000000000E+00  0.11524132926E+03  0.11524132926E+03  0.00000000000E+00 0. -1.
         21   -1    0    0  501  502  0.00000000000E+00 -0.00000000000E+00 -0.28419335567E+03  0.28419335567E+03  0.00000000000E+00 0.  1.
         23    2    1    2    0    0 -0.28586488490E+02 -0.38902448500E+02  0.68276666649E+02  0.12359386146E+03  0.91011820977E+02 0.  0.
         23    2    1    2    0    0 -0.57479508333E+01  0.43594489915E+01 -0.15574205284E+03  0.18090850509E+03  0.91761955384E+02 0.  0.
        -11    1    4    4    0    0  0.39834104547E+02  0.18783146626E+02 -0.68810017491E+02  0.81696884820E+02  0.00000000000E+00 0. -1.
         11    1    4    4    0    0 -0.45582055380E+02 -0.14423697635E+02 -0.86932035350E+02  0.99211620268E+02  0.00000000000E+00 0.  1.
        -13    1    3    3    0    0 -0.39187902839E+02 -0.63026631114E+02  0.37743909008E+02  0.83262540351E+02  0.00000000000E+00 0.  1.
         13    1    3    3    0    0  0.10601414350E+02  0.24124182613E+02  0.30532757641E+02  0.40331321106E+02  0.00000000000E+00 0. -1.
          1    1    1    2  501    0  0.34334439323E+02  0.34542999509E+02 -0.81486640221E+02  0.94932318381E+02  0.00000000000E+00 0. -1.
<scales pt_clust_5="13000.00000" pt_clust_6="13000.00000" pt_clust_7="13000.00000" pt_clust_8="13000.00000" pt_clust_9="48.70393"></scales>
<clustering>
<clus scale="   48.704">  2  9  1 -1</clus>
<clus scale="   91.012">  7  8 -1 -1</clus>
<clus scale="   91.762">  5  6 -1 -1</clus>
<clus scale="  100.023">  1  7  2 -1</clus>
<clus scale="   48.704">  2  5  1 -1</clus>
</clustering>
</event>
<event>
 9    1  0.1426358E-005  0.1483993E+03  0.7546771E-02  0.1202597E+00
         21   -1    0    0  501  502  0.00000000000E+00  0.00000000000E+00  0.32229333557E+03  0.32229333557E+03  0.00000000000E+00 0. -1.
          1   -1    0    0  502    0 -0.00000000000E+00 -0.00000000000E+00 -0.24592625221E+03  0.24592625221E+03  0.00000000000E+00 0. -1.
         23    2    1    2    0    0 -0.10441769740E+03  0.46309782361E+02 -0.17390275359E+03  0.22735997537E+03  0.91666456359E+02 0.  0.
         23    2    1    2    0    0  0.99869929400E+02 -0.10278059133E+03  0.15409224492E+03  0.22923630092E+03  0.90923093674E+02 0.  0.
        -11    1    3    3    0    0  0.89554117727E+01  0.30743797657E+02 -0.37636000119E+02  0.49415068545E+02  0.00000000000E+00 0.  1.
         11    1    3    3    0    0 -0.11337310917E+03  0.15565984705E+02 -0.13626675347E+03  0.17794490683E+03  0.00000000000E+00 0. -1.
        -11    1    4    4    0    0  0.98034697440E+02 -0.43216406715E+02  0.11881141992E+03  0.15998316541E+03  0.00000000000E+00 0.  1.
         11    1    4    4    0    0  0.18352319603E+01 -0.59564184618E+02  0.35280824999E+02  0.69253135511E+02  0.00000000000E+00 0. -1.
          1    1    1    2  501    0  0.45477680005E+01  0.56470808971E+02  0.96177592023E+02  0.11162331149E+03  0.00000000000E+00 0. -1.
<scales pt_clust_5="13000.00000" pt_clust_6="13000.00000" pt_clust_7="13000.00000" pt_clust_8="13000.00000" pt_clust_9="56.65364"></scales>
<clustering>
<clus scale="   56.654">  1  9  2 -1</clus>
<clus scale="   90.923">  7  8 -1 -1</clus>
<clus scale="   91.666">  5  6 -1 -1</clus>
<clus scale="  147.941">  1  7  2 -1</clus>
<clus scale="   56.654">  1  5  2 -1</clus>
</clustering>
</event>
<event>
 9    1  0.1426358E-005  0.1459865E+03  0.7546771E-02  0.1205565E+00
         -1   -1    0    0    0  501 -0.00000000000E+00  0.00000000000E+00  0.69674506109E+03  0.69674506109E+03  0.00000000000E+00 0.  1.
         21   -1    0    0  501  502  0.00000000000E+00 -0.00000000000E+00 -0.43779797167E+02  0.43779797167E+02  0.00000000000E+00 0.  1.
         23    2    1    2    0    0  0.11758529188E+03 -0.16107271985E+02  0.40070116961E+03  0.42771229313E+03  0.91052914802E+02 0.  0.
         23    2    1    2    0    0 -0.10795181995E+03 -0.20726414263E+02  0.22256415326E+03  0.26452580997E+03  0.91410733222E+02 0.  0.
        -11    1    3    3    0    0  0.73408162829E+02 -0.51170563950E+02  0.28968442105E+03  0.30319011986E+03  0.00000000000E+00 0.  1.
         11    1    3    3    0    0  0.44177129054E+02  0.35063291965E+02  0.11101674856E+03  0.12452217327E+03  0.00000000000E+00 0. -1.
        -13    1    4    4    0    0 -0.54665078959E+02  0.34674827591E+02  0.83780631184E+02  0.10587638399E+03  0.00000000000E+00 0.  1.
         13    1    4    4    0    0 -0.53286740989E+02 -0.55401241854E+02  0.13878352208E+03  0.15864942598E+03  0.00000000000E+00 0. -1.
         -1    1    1    2    0  502 -0.96334719353E+01  0.36833686248E+02  0.29699941055E+02  0.48286755149E+02  0.00000000000E+00 0.  1.
<scales pt_clust_5="13000.00000" pt_clust_6="13000.00000" pt_clust_7="13000.00000" pt_clust_8="13000.00000" pt_clust_9="38.07262"></scales>
<clustering>
<clus scale="   38.073">  2  9  1 -1</clus>
<clus scale="   91.053">  5  6 -1 -1</clus>
<clus scale="   91.411">  7  8 -1 -1</clus>
<clus scale="  145.763">  1  5  2 -1</clus>
<clus scale="   38.073">  2  5  1 -1</clus>
</clustering>
</event>
<event>
 9    1  0.1426358E-005  0.9164235E+02  0.7546771E-02  0.1299611E+00
         -1   -1    0    0    0  501 -0.00000000000E+00  0.00000000000E+00  0.26014897132E+03  0.26014897132E+03  0.00000000000E+00 0.  1.
         21   -1    0    0  501  502  0.00000000000E+00 -0.00000000000E+00 -0.59335945977E+02  0.59335945977E+02  0.00000000000E+00 0. -1.
         23    2    1    2    0    0 -0.28968507862E+01  0.10966385613E+02  0.14462158867E+03  0.17047911393E+03  0.89549265872E+02 0.  0.
         23    2    1    2    0    0 -0.29764836096E+02 -0.86240230567E+01  0.64097655455E+02  0.11531929646E+03  0.90717757133E+02 0.  0.
        -11    1    4    4    0    0 -0.26488761125E+02 -0.41885363499E+02  0.65178376258E+02  0.81879538793E+02  0.00000000000E+00 0. -1.
         11    1    4    4    0    0 -0.32760749707E+01  0.33261340442E+02 -0.10807208031E+01  0.33439757664E+02  0.00000000000E+00 0.  1.
        -13    1    3    3    0    0  0.35929356328E+02  0.30083559818E+02  0.70671347826E+02  0.84796100270E+02  0.00000000000E+00 0.  1.
         13    1    3    3    0    0 -0.38826207115E+02 -0.19117174206E+02  0.73950240843E+02  0.85683013657E+02  0.00000000000E+00 0. -1.
         -1    1    1    2    0  502  0.32661686882E+02 -0.23423625560E+01 -0.79062187842E+01  0.33686506910E+02  0.00000000000E+00 0.  1.
<scales pt_clust_5="13000.00000" pt_clust_6="13000.00000" pt_clust_7="13000.00000" pt_clust_8="13000.00000" pt_clust_9="32.74557"></scales>
<clustering>
<clus scale="   32.746">  2  9  1 -1</clus>
<clus scale="   89.549">  7  8 -1 -1</clus>
<clus scale="   90.486">  1  7  2 -1</clus>
<clus scale="   90.718">  5  6 -1 -1</clus>
<clus scale="   32.746">  2  5  1 -1</clus>
</clustering>
</event>
<event>
 9    1  0.1426358E-005  0.1051583E+03  0.7546771E-02  0.1270007E+00
         21   -1    0    0  501  502  0.00000000000E+00  0.00000000000E+00  0.48171157221E+02  0.48171157221E+02  0.00000000000E+00 0. -1.
          1   -1    0    0  502    0 -0.00000000000E+00 -0.00000000000E+00 -0.63685210138E+03  0.63685210138E+03  0.00000000000E+00 0. -1.
         23    2    1    2    0    0 -0.72622922552E+00  0.45710620335E+02 -0.42803455187E+03  0.44000576252E+03  0.91112596496E+02 0.  0.
         23    2    1    2    0    0  0.68910786197E+01 -0.71758576098E+02 -0.17854410451E+03  0.21281765958E+03  0.90645346084E+02 0.  0.
        -11    1    3    3    0    0  0.44858892705E+02  0.17890167342E+02 -0.21838555910E+03  0.22366186703E+03  0.00000000000E+00 0.  1.
         11    1    3    3    0    0 -0.45585121931E+02  0.27820452993E+02 -0.20964899277E+03  0.21634389549E+03  0.00000000000E+00 0. -1.
        -13    1    4    4    0    0  0.28042808046E+02 -0.13968568360E+02 -0.92205850990E+01  0.32657911365E+02  0.00000000000E+00 0.  1.
         13    1    4    4    0    0 -0.21151729427E+02 -0.57790007737E+02 -0.16932351941E+03  0.18015974822E+03  0.00000000000E+00 0. -1.
          1    1    1    2  501    0 -0.61648493941E+01  0.26047955762E+02  0.17897712222E+02  0.32199836493E+02  0.00000000000E+00 0. -1.
<scales pt_clust_5="13000.00000" pt_clust_6="13000.00000" pt_clust_7="13000.00000" pt_clust_8="13000.00000" pt_clust_9="26.76754"></scales>
<clustering>
<clus scale="   26.768">  1  9  2 -1</clus>
<clus scale="   90.645">  7  8 -1 -1</clus>
<clus scale="   91.113">  5  6 -1 -1</clus>
<clus scale="  104.754">  1  7  2 -1</clus>
<clus scale="   26.768">  1  5  2 -1</clus>
</clustering>
</event>
<event>
 9    1  0.1426358E-005  0.9587777E+02  0.7546771E-02  0.1289406E+00
          1   -1    0    0  502    0 -0.00000000000E+00  0.00000000000E+00  0.37211304323E+03  0.37211304323E+03  0.00000000000E+00 0. -1.
         21   -1    0    0  501  502  0.00000000000E+00 -0.00000000000E+00 -0.32882033706E+02  0.32882033706E+02  0.00000000000E+00 0. -1.
         23    2    1    2    0    0 -0.17199557238E+02 -0.13588742580E+01  0.17140623702E+03  0.19519635201E+03  0.91781514699E+02 0.  0.
         23    2    1    2    0    0  0.37767375936E+02 -0.68436735875E+01  0.15454668751E+03  0.18397965255E+03  0.92144578676E+02 0.  0.
        -11    1    3    3    0    0 -0.28832518443E+02  0.27171722073E+02  0.27991342296E+02  0.48509090320E+02  0.00000000000E+00 0.  1.
         11    1    3    3    0    0  0.11632961205E+02 -0.28530596331E+02  0.14341489472E+03  0.14668726169E+03  0.00000000000E+00 0. -1.
        -13    1    4    4    0    0 -0.30137463721E+02  0.57672870853E+01  0.44430458316E+02  0.53996240110E+02  0.00000000000E+00 0.  1.
         13    1    4    4    0    0  0.67904839657E+02 -0.12610960673E+02  0.11011622920E+03  0.12998341244E+03  0.00000000000E+00 0. -1.
          1    1    1    2  501    0 -0.20567818698E+02  0.82025478455E+01  0.13278084992E+02  0.25819072373E+02  0.00000000000E+00 0. -1.
<scales pt_clust_5="13000.00000" pt_clust_6="13000.00000" pt_clust_7="13000.00000" pt_clust_8="13000.00000" pt_clust_9="22.14310"></scales>
<clustering>
<clus scale="   22.143">  2  9  1 -1</clus>
<clus scale="   91.782">  5  6 -1 -1</clus>
<clus scale="   92.145">  7  8 -1 -1</clus>
<clus scale="   95.529">  1  5  2 -1</clus>
<clus scale="   22.143">  2  5  1 -1</clus>
</clustering>
</event>
<event>
 9    1  0.1426358E-005  0.9631555E+02  0.7546771E-02  0.1288294E+00
         21   -1    0    0  501  502  0.00000000000E+00  0.00000000000E+00  0.52011789263E+02  0.52011789263E+02  0.00000000000E+00 0.  1.
          4   -1    0    0  502    0 -0.00000000000E+00 -0.00000000000E+00 -0.38342666074E+03  0.38342666074E+03  0.00000000000E+00 0. -1.
         23    2    1    2    0    0 -0.48579513864E+02 -0.37848295876E+02 -0.15410920490E+03  0.18963020424E+03  0.91746959939E+02 0.  0.
         23    2    1    2    0    0  0.65594990422E+01 -0.24468659730E+02 -0.10001726744E+03  0.13800016980E+03  0.91645243965E+02 0.  0.
        -11    1    3    3    0    0 -0.28856488097E+02 -0.66399851758E+02 -0.80601010267E+02  0.10834278968E+03  0.00000000000E+00 0.  1.
         11    1    3    3    0    0 -0.19723025767E+02  0.28551555882E+02 -0.73508194630E+02  0.81287414564E+02  0.00000000000E+00 0. -1.
        -13    1    4    4    0    0  0.26498930422E+02 -0.97607532663E+01  0.62162378043E+01  0.28915518848E+02  0.00000000000E+00 0.  1.
         13    1    4    4    0    0 -0.19939431379E+02 -0.14707906464E+02 -0.10623350525E+03  0.10908465095E+03  0.00000000000E+00 0. -1.
          4    1    1    2  501    0  0.42020014821E+02  0.62316955606E+02 -0.77288399139E+02  0.10780807596E+03  0.00000000000E+00 0. -1.
<scales pt_clust_5="13000.00000" pt_clust_6="13000.00000" pt_clust_7="13000.00000" pt_clust_8="13000.00000" pt_clust_9="75.16039"></scales>
<clustering>
<clus scale="   75.160">  1  9  2 -1</clus>
<clus scale="   91.645">  7  8 -1 -1</clus>
<clus scale="   91.747">  5  6 -1 -1</clus>
<clus scale="   96.219">  1  7  2 -1</clus>
<clus scale="   75.160">  1  5  2 -1</clus>
</clustering>
</event>
<event>
 9    1  0.1426358E-005  0.9216651E+02  0.7546771E-02  0.1301824E+00
         21   -1    0    0  501  502  0.00000000000E+00  0.00000000000E+00  0.10853393915E+03  0.10853393915E+03  0.00000000000E+00 0.  1.
          2   -1    0    0  502    0 -0.00000000000E+00 -0.00000000000E+00 -0.13571247094E+03  0.13571247094E+03  0.00000000000E+00 0. -1.
         23    2    1    2    0    0 -0.28697120605E+02 -0.10989032839E+02 -0.51919314956E+02  0.10903371789E+03  0.90820993157E+02 0.  0.
         23    2    1    2    0    0 -0.10645669012E+02 -0.13466808231E+02  0.23607181996E+02  0.88874497279E+02  0.83944577146E+02 0.  0.
        -11    1    3    3    0    0 -0.15630078112E+02 -0.30655601599E+02 -0.70853853514E+02  0.78767593647E+02  0.00000000000E+00 0. -1.
         11    1    3    3    0    0 -0.13067042492E+02  0.19666568761E+02  0.18934538559E+02  0.30266124244E+02  0.00000000000E+00 0.  1.
        -11    1    4    4    0    0 -0.38135129062E+02  0.17935004172E+02  0.27841324693E+01  0.42233918085E+02  0.00000000000E+00 0.  1.
         11    1    4    4    0    0  0.27489460050E+02 -0.31401812402E+02  0.20823049527E+02  0.46640579194E+02  0.00000000000E+00 0. -1.
          2    1    1    2  501    0  0.39342789617E+02  0.24455841070E+02  0.11336011679E+01  0.46338194925E+02  0.00000000000E+00 0. -1.
<scales pt_clust_5="13000.00000" pt_clust_6="13000.00000" pt_clust_7="13000.00000" pt_clust_8="13000.00000" pt_clust_9="46.32433"></scales>
<clustering>
<clus scale="   46.324">  1  9  2 -1</clus>
<clus scale="   83.945">  7  8 -1 -1</clus>
<clus scale="   85.399">  1  7  2 -1</clus>
<clus scale="   90.821">  5  6 -1 -1</clus>
<clus scale="   46.324">  1  5  2 -1</clus>
</clustering>
</event>
<event>
 9    1  0.1426358E-005  0.9627084E+02  0.7546771E-02  0.1298755E+00
         21   -1    0    0  501  502  0.00000000000E+00  0.00000000000E+00  0.18371783730E+03  0.18371783730E+03  0.00000000000E+00 0.  1.
          1   -1    0    0  502    0 -0.00000000000E+00 -0.00000000000E+00 -0.80358022782E+02  0.80358022782E+02  0.00000000000E+00 0. -1.
         23    2    1    2    0    0 -0.42404342214E+02 -0.14470577275E+02 -0.34391337204E+01  0.86401240376E+02  0.73795805114E+02 0.  0.
         23    2    1    2    0    0  0.12765702414E+01 -0.59115760027E+01  0.50188791739E+02  0.10479365087E+03  0.91794433841E+02 0.  0.
        -11    1    4    4    0    0  0.26642525228E+02  0.16331517593E+02 -0.12457068263E+02  0.33641063704E+02  0.00000000000E+00 0. -1.
         11    1    4    4    0    0 -0.25365954987E+02 -0.22243093596E+02  0.62645860002E+02  0.71152587167E+02  0.00000000000E+00 0.  1.
        -13    1    3    3    0    0 -0.11779038912E+01  0.27484333633E+02 -0.14232194790E+01  0.27546353779E+02  0.00000000000E+00 0. -1.
         13    1    3    3    0    0 -0.41226438322E+02 -0.41954910908E+02 -0.20159142414E+01  0.58854886597E+02  0.00000000000E+00 0.  1.
          1    1    1    2  501    0  0.41127771972E+02  0.20382153278E+02  0.56610156502E+02  0.72880968838E+02  0.00000000000E+00 0. -1.
<scales pt_clust_5="13000.00000" pt_clust_6="13000.00000" pt_clust_7="13000.00000" pt_clust_8="13000.00000" pt_clust_9="45.90126"></scales>
<clustering>
<clus scale="   45.901">  1  9  2 -1</clus>
<clus scale="   73.796">  7  8 -1 -1</clus>
<clus scale="   79.295">  2  7  1 -1</clus>
<clus scale="   91.794">  5  6 -1 -1</clus>
<clus scale="   45.901">  1  5  2 -1</clus>
</clustering>
</event>
<event>
 9    1  0.1426358E-005  0.1116518E+03  0.7546771E-02  0.1257565E+00
          2   -1    0    0  502    0 -0.00000000000E+00  0.00000000000E+00  0.22639034697E+03  0.22639034697E+03  0.00000000000E+00 0. -1.
         21   -1    0    0  501  502  0.00000000000E+00 -0.00000000000E+00 -0.54945307687E+03  0.54945307687E+03  0.00000000000E+00 0. -1.
         23    2    1    2    0    0 -0.58728295392E+02 -0.41670935922E+02  0.17728742033E+03  0.21228430646E+03  0.91914731034E+02 0.  0.
         23    2    1    2    0    0  0.34904137722E+02 -0.56422002451E+02 -0.10171077105E+03  0.15233755949E+03  0.91977768463E+02 0.  0.
        -11    1    3    3    0    0  0.21122155326E+02  0.57006383819E+01  0.20018335218E+02  0.29654282464E+02  0.00000000000E+00 0.  1.
         11    1    3    3    0    0 -0.79850450718E+02 -0.47371574304E+02  0.15726908511E+03  0.18263002400E+03  0.00000000000E+00 0. -1.
        -13    1    4    4    0    0  0.58860818291E+02 -0.64632447586E+02 -0.71636569633E+02  0.11302100389E+03  0.00000000000E+00 0. -1.
         13    1    4    4    0    0 -0.23956680569E+02  0.82104451352E+01 -0.30074201418E+02  0.39316555599E+02  0.00000000000E+00 0.  1.
          2    1    1    2  501    0  0.23824157669E+02  0.98092938374E+02 -0.39863937917E+03  0.41122155789E+03  0.00000000000E+00 0. -1.
<scales pt_clust_5="13000.00000" pt_clust_6="13000.00000" pt_clust_7="13000.00000" pt_clust_8="13000.00000" pt_clust_9="100.94461"></scales>
<clustering>
<clus scale="   91.915">  5  6 -1 -1</clus>
<clus scale="   91.978">  7  8 -1 -1</clus>
<clus scale="  100.945">  2  9  1 -1</clus>
<clus scale="  111.600">  1  5  2 -1</clus>
<clus scale="  100.945">  2  5  1 -1</clus>
</clustering>
</event>
<event>
 9    1  0.1426358E-005  0.1574169E+03  0.7546771E-02  0.1192816E+00
         21   -1    0    0  501  502  0.00000000000E+00  0.00000000000E+00  0.21723658559E+03  0.21723658559E+03  0.00000000000E+00 0. -1.
          1   -1    0    0  502    0 -0.00000000000E+00 -0.00000000000E+00 -0.64616243389E+03  0.64616243389E+03  0.00000000000E+00 0. -1.
         23    2    1    2    0    0 -0.94958037552E+02  0.82285419300E+02 -0.57861896385E+03  0.59995899914E+03  0.96762473085E+02 0.  0.
         23    2    1    2    0    0  0.11688195560E+03 -0.27586018045E+02  0.73614048034E+02  0.16720745209E+03  0.90093973322E+02 0.  0.
        -11    1    4    4    0    0  0.56487088373E+02 -0.54417318451E+02  0.17158592243E+02  0.80289806252E+02  0.00000000000E+00 0.  1.
         11    1    4    4    0    0  0.60394867227E+02  0.26831300406E+02  0.56455455791E+02  0.86917645834E+02  0.00000000000E+00 0. -1.
        -13    1    3    3    0    0 -0.81121553569E+02  0.90282321783E+01 -0.35411573413E+03  0.36340083735E+03  0.00000000000E+00 0. -1.
         13    1    3    3    0    0 -0.13836483983E+02  0.73257187121E+02 -0.22450322972E+03  0.23655816178E+03  0.00000000000E+00 0.  1.
          1    1    1    2  501    0 -0.21923918048E+02 -0.54699401255E+02  0.76079067508E+02  0.96232568256E+02  0.00000000000E+00 0. -1.
<scales pt_clust_5="13000.00000" pt_clust_6="13000.00000" pt_clust_7="13000.00000" pt_clust_8="13000.00000" pt_clust_9="58.92947"></scales>
<clustering>
<clus scale="   58.929">  1  9  2 -1</clus>
<clus scale="   90.094">  5  6 -1 -1</clus>
<clus scale="   96.762">  7  8 -1 -1</clus>
<clus scale="  153.408">  1  5  2 -1</clus>
<clus scale="   58.929">  1  5  2 -1</clus>
</clustering>
</event>
<event>
 9    1  0.1426358E-005  0.1099123E+03  0.7546771E-02  0.1262069E+00
         21   -1    0    0  501  502  0.00000000000E+00  0.00000000000E+00  0.77727239989E+02  0.77727239989E+02  0.00000000000E+00 0.  1.
          2   -1    0    0  502    0 -0.00000000000E+00 -0.00000000000E+00 -0.59794470317E+03  0.59794470317E+03  0.00000000000E+00 0.  1.
         23    2    1    2    0    0  0.63672077097E+02 -0.23108467965E+02 -0.36469690430E+03  0.38237743867E+03  0.92846857264E+02 0.  0.
         23    2    1    2    0    0 -0.47028605059E+02  0.78618003328E+01 -0.21062229745E+03  0.23374899561E+03  0.89461406040E+02 0.  0.
        -11    1    4    4    0    0 -0.11318942767E+02  0.19466993522E+02 -0.29515649617E+01  0.22711099442E+02  0.00000000000E+00 0.  1.
         11    1    4    4    0    0 -0.35709662293E+02 -0.11605193189E+02 -0.20767073249E+03  0.21103789617E+03  0.00000000000E+00 0. -1.
        -13    1    3    3    0    0  0.68272050411E+02 -0.44524610131E+02 -0.33876366986E+03  0.34843125261E+03  0.00000000000E+00 0.  1.
         13    1    3    3    0    0 -0.45999733137E+01  0.21416142166E+02 -0.25933234435E+02  0.33946186060E+02  0.00000000000E+00 0. -1.
          2    1    1    2  501    0 -0.16643472038E+02  0.15246667632E+02  0.55101738561E+02  0.59545508880E+02  0.00000000000E+00 0.  1.
<scales pt_clust_5="13000.00000" pt_clust_6="13000.00000" pt_clust_7="13000.00000" pt_clust_8="13000.00000" pt_clust_9="22.57135"></scales>
<clustering>
<clus scale="   22.571">  1  9  2 -1</clus>
<clus scale="   89.461">  5  6 -1 -1</clus>
<clus scale="   92.847">  7  8 -1 -1</clus>
<clus scale="  107.068">  1  5  2 -1</clus>
<clus scale="   22.571">  1  5  2 -1</clus>
</clustering>
</event>
<event>
 9    1  0.1426358E-005  0.1106795E+03  0.7546771E-02  0.1262198E+00
         21   -1    0    0  501  502  0.00000000000E+00  0.00000000000E+00  0.13961080151E+03  0.13961080151E+03  0.00000000000E+00 0.  1.
          1   -1    0    0  502    0 -0.00000000000E+00 -0.00000000000E+00 -0.17810390696E+03  0.17810390696E+03  0.00000000000E+00 0. -1.
         23    2    1    2    0    0  0.21957670518E+02 -0.51103113475E+02 -0.10801727949E+03  0.15258433837E+03  0.92306988598E+02 0.  0.
         23    2    1    2    0    0 -0.36719840289E+02  0.10402954969E+02  0.45073753945E+02  0.11540866859E+03  0.99151143957E+02 0.  0.
        -11    1    3    3    0    0 -0.34002009045E+02 -0.26069112443E+02 -0.25751336777E+02  0.49988664600E+02  0.00000000000E+00 0.  1.
         11    1    3    3    0    0  0.55959679564E+02 -0.25034001033E+02 -0.82265942715E+02  0.10259567377E+03  0.00000000000E+00 0. -1.
        -13    1    4    4    0    0  0.23463131769E+02 -0.18803298655E+02 -0.67156425702E+01  0.30808804713E+02  0.00000000000E+00 0. -1.
         13    1    4    4    0    0 -0.60182972059E+02  0.29206253624E+02  0.51789396515E+02  0.84599863877E+02  0.00000000000E+00 0.  1.
          1    1    1    2  501    0  0.14762169771E+02  0.40700158506E+02  0.24450420097E+02  0.49721701517E+02  0.00000000000E+00 0. -1.
<scales pt_clust_5="13000.00000" pt_clust_6="13000.00000" pt_clust_7="13000.00000" pt_clust_8="13000.00000" pt_clust_9="43.29463"></scales>
<clustering>
<clus scale="   43.295">  1  9  2 -1</clus>
<clus scale="   92.307">  5  6 -1 -1</clus>
<clus scale="   99.151">  7  8 -1 -1</clus>
<clus scale="  104.592">  2  5  1 -1</clus>
<clus scale="   43.295">  1  5  2 -1</clus>
</clustering>
</event>
<event>
 9    1  0.1426358E-005  0.1061194E+03  0.7546771E-02  0.1269305E+00
          2   -1    0    0  502    0 -0.00000000000E+00  0.00000000000E+00  0.31317594600E+03  0.31317594600E+03  0.00000000000E+00 0. -1.
         21   -1    0    0  501  502  0.00000000000E+00 -0.00000000000E+00 -0.64087328005E+02  0.64087328005E+02  0.00000000000E+00 0.  1.
         23    2    1    2    0    0  0.49764173780E+02 -0.17243476383E+02  0.22527018543E+03  0.24930670257E+03  0.92915903011E+02 0.  0.
         23    2    1    2    0    0 -0.49533891984E+02 -0.51304253170E+01  0.14146578606E+02  0.10358057370E+03  0.89715560757E+02 0.  0.
        -11    1    4    4    0    0 -0.38777502208E+02 -0.32604414713E+02 -0.23418668771E+02  0.55813766969E+02  0.00000000000E+00 0.  1.
         11    1    4    4    0    0 -0.10756389776E+02  0.27473989396E+02  0.37565247377E+02  0.47766806727E+02  0.00000000000E+00 0. -1.
        -11    1    3    3    0    0  0.42670330338E+02 -0.45819973764E+02  0.82701221727E+02  0.10372906614E+03  0.00000000000E+00 0. -1.
         11    1    3    3    0    0  0.70938434420E+01  0.28576497381E+02  0.14256896370E+03  0.14557763643E+03  0.00000000000E+00 0.  1.
          2    1    1    2  501    0 -0.23028179616E+00  0.22373901700E+02  0.96718539665E+01  0.24375997747E+02  0.00000000000E+00 0. -1.
<scales pt_clust_5="13000.00000" pt_clust_6="13000.00000" pt_clust_7="13000.00000" pt_clust_8="13000.00000" pt_clust_9="22.37509"></scales>
<clustering>
<clus scale="   22.375">  2  9  1 -1</clus>
<clus scale="   89.716">  5  6 -1 -1</clus>
<clus scale="   92.916">  7  8 -1 -1</clus>
<clus scale="  103.329">  2  5  1 -1</clus>
<clus scale="   22.375">  2  5  1 -1</clus>
</clustering>
</event>
<event>
 9    1  0.1426358E-005  0.9665072E+02  0.7546771E-02  0.1288284E+00
          1   -1    0    0  502    0 -0.00000000000E+00  0.00000000000E+00  0.37376900605E+03  0.37376900605E+03  0.00000000000E+00 0. -1.
         21   -1    0    0  501  502  0.00000000000E+00 -0.00000000000E+00 -0.82653460443E+02  0.82653460443E+02  0.00000000000E+00 0. -1.
         23    2    1    2    0    0 -0.38415869862E+02 -0.60680653263E+01  0.14193967641E+03  0.17384609093E+03  0.92536431297E+02 0.  0.
         23    2    1    2    0    0 -0.32158775463E+02  0.49668282179E+02  0.16557884808E+03  0.19801387095E+03  0.91060491220E+02 0.  0.
        -11    1    4    4    0    0  0.23746210077E+02 -0.61873878541E+01  0.68938233187E+02  0.73175448454E+02  0.00000000000E+00 0.  1.
         11    1    4    4    0    0 -0.55904985541E+02  0.55855670033E+02  0.96640614894E+02  0.12483842249E+03  0.00000000000E+00 0. -1.
        -13    1    3    3    0    0 -0.40312740452E+02  0.32016767022E+02  0.11821026188E+03  0.12893353492E+03  0.00000000000E+00 0. -1.
         13    1    3    3    0    0  0.18968705903E+01 -0.38084832349E+02  0.23729414528E+02  0.44912556005E+02  0.00000000000E+00 0.  1.
          1    1    1    2  501    0  0.70574645325E+02 -0.43600216852E+02 -0.16402978880E+02  0.84562504625E+02  0.00000000000E+00 0. -1.
<scales pt_clust_5="13000.00000" pt_clust_6="13000.00000" pt_clust_7="13000.00000" pt_clust_8="13000.00000" pt_clust_9="82.95637"></scales>
<clustering>
<clus scale="   82.956">  2  9  1 -1</clus>
<clus scale="   91.060">  5  6 -1 -1</clus>
<clus scale="   92.536">  7  8 -1 -1</clus>
<clus scale="   95.239">  2  5  1 -1</clus>
<clus scale="   82.956">  2  5  1 -1</clus>
</clustering>
</event>
<event>
 9    1  0.1426358E-005  0.9793001E+02  0.7546771E-02  0.1285320E+00
         21   -1    0    0  501  502  0.00000000000E+00  0.00000000000E+00  0.17357678762E+03  0.17357678762E+03  0.00000000000E+00 0. -1.
          3   -1    0    0  502    0 -0.00000000000E+00 -0.00000000000E+00 -0.15113928198E+03  0.15113928198E+03  0.00000000000E+00 0. -1.
         23    2    1    2    0    0 -0.24789493128E+02  0.42912168296E+02 -0.38664898361E+02  0.10956969415E+03  0.89747258198E+02 0.  0.
         23    2    1    2    0    0  0.25083730609E+02  0.27463341022E+02  0.95311980518E+02  0.13689617408E+03  0.90954715142E+02 0.  0.
        -13    1    4    4    0    0  0.33631882175E+01  0.51648569606E+02  0.90192710474E+02  0.10398851283E+03  0.00000000000E+00 0. -1.
         13    1    4    4    0    0  0.21720542392E+02 -0.24185228584E+02  0.51192700437E+01  0.32907661254E+02  0.00000000000E+00 0.  1.
        -13    1    3    3    0    0 -0.37280545671E+02 -0.14734965235E+02 -0.20391943352E+01  0.40138716964E+02  0.00000000000E+00 0.  1.
         13    1    3    3    0    0  0.12491052543E+02  0.57647133531E+02 -0.36625704026E+02  0.69430977189E+02  0.00000000000E+00 0. -1.
          3    1    1    2  501    0 -0.29423748062E+00 -0.70375509318E+02 -0.34209576521E+02  0.78250201362E+02  0.00000000000E+00 0. -1.
<scales pt_clust_5="13000.00000" pt_clust_6="13000.00000" pt_clust_7="13000.00000" pt_clust_8="13000.00000" pt_clust_9="70.37616"></scales>
<clustering>
<clus scale="   70.376">  1  9  2 -1</clus>
<clus scale="   89.747">  7  8 -1 -1</clus>
<clus scale="   90.955">  5  6 -1 -1</clus>
<clus scale="   96.810">  2  7  1 -1</clus>
<clus scale="   70.376">  1  5  2 -1</clus>
</clustering>
</event>
<event>
 9    1  0.1426358E-005  0.2187323E+03  0.7546771E-02  0.1136265E+00
          4   -1    0    0  502    0 -0.00000000000E+00  0.00000000000E+00  0.44752098611E+03  0.44752098611E+03  0.00000000000E+00 0. -1.
         21   -1    0    0  501  502  0.00000000000E+00 -0.00000000000E+00 -0.25864242290E+03  0.25864242290E+03  0.00000000000E+00 0.  1.
         23    2    1    2    0    0 -0.12850194317E+03  0.15206782558E+03  0.31956647238E+03  0.38716942855E+03  0.90222298572E+02 0.  0.
         23    2    1    2    0    0  0.15087085429E+03 -0.79772376840E+02 -0.47908113366E+02  0.20683563399E+03  0.10658398276E+03 0.  0.
        -11    1    4    4    0    0  0.25318657409E+02 -0.40085571676E+02  0.27786050955E+02  0.54954090815E+02  0.00000000000E+00 0. -1.
         11    1    4    4    0    0  0.12555219688E+03 -0.39686805164E+02 -0.75694164321E+02  0.15188154317E+03  0.00000000000E+00 0.  1.
        -11    1    3    3    0    0 -0.93100973798E+01  0.52779647096E+02  0.13981053207E+03  0.14973093848E+03  0.00000000000E+00 0.  1.
         11    1    3    3    0    0 -0.11919184579E+03  0.99288178485E+02  0.17975594031E+03  0.23743849007E+03  0.00000000000E+00 0. -1.
          4    1    1    2  501    0 -0.22368911115E+02 -0.72295448740E+02 -0.82779795800E+02  0.11215834648E+03  0.00000000000E+00 0. -1.
<scales pt_clust_5="13000.00000" pt_clust_6="13000.00000" pt_clust_7="13000.00000" pt_clust_8="13000.00000" pt_clust_9="75.67695"></scales>
<clustering>
<clus scale="   75.677">  2  9  1 -1</clus>
<clus scale="   90.222">  7  8 -1 -1</clus>
<clus scale="  106.584">  5  6 -1 -1</clus>
<clus scale="  211.243">  1  7  2 -1</clus>
<clus scale="   75.677">  2  5  1 -1</clus>
</clustering>
</event>
<event>
 9    1  0.1708763E-005  0.9791757E+02  0.7546771E-02  0.1285112E+00
         21   -1    0    0  501  502  0.00000000000E+00  0.00000000000E+00  0.11194896733E+03  0.11194896733E+03  0.00000000000E+00 0. -1.
          3   -1    0    0  502    0 -0.00000000000E+00 -0.00000000000E+00 -0.39286232203E+03  0.39286232203E+03  0.00000000000E+00 0. -1.
         23    2    1    2    0    0 -0.34350844856E+02  0.39497938136E+01 -0.35214783016E+03  0.36568447039E+03  0.92311733734E+02 0.  0.
         23    2    1    2    0    0  0.12430408663E+02 -0.35989861411E+01  0.39533641254E+02  0.10058370703E+03  0.91578958114E+02 0.  0.
        -11    1    3    3    0    0 -0.11252526662E+01  0.44088342925E+02 -0.12243151739E+03  0.13013271927E+03  0.00000000000E+00 0.  1.
         11    1    3    3    0    0 -0.33225592190E+02 -0.40138549111E+02 -0.22971631278E+03  0.23555175112E+03  0.00000000000E+00 0. -1.
        -13    1    4    4    0    0  0.50397674752E+02  0.27550999372E+01  0.35857134179E+02  0.61913247916E+02  0.00000000000E+00 0. -1.
         13    1    4    4    0    0 -0.37967266089E+02 -0.63540860783E+01  0.36765070756E+01  0.38670459118E+02  0.00000000000E+00 0.  1.
          3    1    1    2  501    0  0.21920436193E+02 -0.35080767256E+00  0.31700834202E+02  0.38543111940E+02  0.00000000000E+00 0. -1.
<scales pt_clust_5="13000.00000" pt_clust_6="13000.00000" pt_clust_7="13000.00000" pt_clust_8="13000.00000" pt_clust_9="21.92324"></scales>
<clustering>
<clus scale="   21.923">  1  9  2 -1</clus>
<clus scale="   91.579">  7  8 -1 -1</clus>
<clus scale="   92.312">  5  6 -1 -1</clus>
<clus scale="   97.227">  1  7  2 -1</clus>
<clus scale="   21.923">  1  5  2 -1</clus>
</clustering>
</event>
<event>
 9    1  0.1426358E-005  0.9852626E+02  0.7546771E-02  0.1285189E+00
         -3   -1    0    0    0  501 -0.00000000000E+00  0.00000000000E+00  0.29883104138E+03  0.29883104138E+03  0.00000000000E+00 0.  1.
         21   -1    0    0  501  502  0.00000000000E+00 -0.00000000000E+00 -0.52982510975E+02  0.52982510975E+02  0.00000000000E+00 0. -1.
         23    2    1    2    0    0  0.10899280769E+02  0.15386569518E+02  0.15389481297E+03  0.18192567911E+03  0.95172466711E+02 0.  0.
         23    2    1    2    0    0 -0.36422647269E+02 -0.11875807265E+02  0.10176189777E+03  0.14232035448E+03  0.91825679579E+02 0.  0.
        -13    1    3    3    0    0  0.44016141127E+02 -0.14935475027E+02  0.47570351978E+02  0.66508852653E+02  0.00000000000E+00 0.  1.
         13    1    3    3    0    0 -0.33116860358E+02  0.30322044545E+02  0.10632446099E+03  0.11541682646E+03  0.00000000000E+00 0. -1.
        -13    1    4    4    0    0 -0.45132325453E+02 -0.40839484464E+02  0.92425236722E+02  0.11066713458E+03  0.00000000000E+00 0.  1.
         13    1    4    4    0    0  0.87096781836E+01  0.28963677199E+02  0.93366610473E+01  0.31653219907E+02  0.00000000000E+00 0. -1.
         -3    1    1    2    0  502  0.25523366500E+02 -0.35107622529E+01 -0.98081803314E+01  0.27567518759E+02  0.00000000000E+00 0.  1.
<scales pt_clust_5="13000.00000" pt_clust_6="13000.00000" pt_clust_7="13000.00000" pt_clust_8="13000.00000" pt_clust_9="25.76369"></scales>
<clustering>
<clus scale="   25.764">  2  9  1 -1</clus>
<clus scale="   91.826">  7  8 -1 -1</clus>
<clus scale="   95.172">  5  6 -1 -1</clus>
<clus scale="   95.297">  2  7  1 -1</clus>
<clus scale="   25.764">  2  5  1 -1</clus>
</clustering>
</event>
<event>
 9    1  0.1426358E-005  0.1286299E+03  0.7546771E-02  0.1229753E+00
         21   -1    0    0  501  502  0.00000000000E+00  0.00000000000E+00  0.35276114881E+03  0.35276114881E+03  0.00000000000E+00 0.  1.
          3   -1    0    0  502    0 -0.00000000000E+00 -0.00000000000E+00 -0.11114524360E+03  0.11114524360E+03  0.00000000000E+00 0. -1.
         23    2    1    2    0    0  0.40834077714E+01 -0.88015639316E+02 -0.47874807033E+02  0.13807141241E+03  0.94912016065E+02 0.  0.
         23    2    1    2    0    0 -0.23909388875E+02  0.78638493178E+02  0.22006194559E+03  0.25302458214E+03  0.94013338341E+02 0.  0.
        -13    1    3    3    0    0 -0.39630794166E+02 -0.17322290738E+02 -0.31117100463E+02  0.53281662360E+02  0.00000000000E+00 0.  1.
         13    1    3    3    0    0  0.43714201937E+02 -0.70693348578E+02 -0.16757706570E+02  0.84789750051E+02  0.00000000000E+00 0. -1.
        -13    1    4    4    0    0 -0.49457651280E+02  0.73138402588E+02  0.20415948693E+03  0.22243286921E+03  0.00000000000E+00 0.  1.
         13    1    4    4    0    0  0.25548262405E+02  0.55000905898E+01  0.15902458657E+02  0.30591712926E+02  0.00000000000E+00 0. -1.
          3    1    1    2  501    0  0.19825981104E+02  0.93771461383E+01  0.69428766663E+02  0.72810397862E+02  0.00000000000E+00 0. -1.
<scales pt_clust_5="13000.00000" pt_clust_6="13000.00000" pt_clust_7="13000.00000" pt_clust_8="13000.00000" pt_clust_9="21.93172"></scales>
<clustering>
<clus scale="   21.932">  1  9  2 -1</clus>
<clus scale="   94.013">  7  8 -1 -1</clus>
<clus scale="   94.912">  5  6 -1 -1</clus>
<clus scale="  127.968">  1  7  2 -1</clus>
<clus scale="   21.932">  1  5  2 -1</clus>
</clustering>
</event>
<event>
 9    1  0.1426358E-005  0.1021258E+03  0.7546771E-02  0.1276932E+00
         21   -1    0    0  501  502  0.00000000000E+00  0.00000000000E+00  0.16396975412E+03  0.16396975412E+03  0.00000000000E+00 0. -1.
         -1   -1    0    0    0  501 -0.00000000000E+00 -0.00000000000E+00 -0.13599653719E+03  0.13599653719E+03  0.00000000000E+00 0.  1.
         23    2    1    2    0    0 -0.24424328588E+02 -0.23507788581E+02 -0.70340153297E+02  0.12195682050E+03  0.93683322684E+02 0.  0.
         23    2    1    2    0    0  0.42452511971E+02  0.47740449808E+02  0.52930605707E+02  0.12349495365E+03  0.91476708707E+02 0.  0.
        -13    1    4    4    0    0  0.69777645495E+01  0.26774811614E+02 -0.23736542099E+02  0.36455495688E+02  0.00000000000E+00 0.  1.
         13    1    4    4    0    0  0.35474747421E+02  0.20965638194E+02  0.76667147806E+02  0.87039457961E+02  0.00000000000E+00 0. -1.
        -13    1    3    3    0    0 -0.31513038522E+02  0.17125524527E+01 -0.85881197283E+02  0.91496363204E+02  0.00000000000E+00 0. -1.
         13    1    3    3    0    0  0.70887099347E+01 -0.25220341033E+02  0.15541043986E+02  0.30460457294E+02  0.00000000000E+00 0.  1.
         -1    1    1    2    0  502 -0.18028183383E+02 -0.24232661228E+02  0.45382764521E+02  0.54514517166E+02  0.00000000000E+00 0.  1.
<scales pt_clust_5="13000.00000" pt_clust_6="13000.00000" pt_clust_7="13000.00000" pt_clust_8="13000.00000" pt_clust_9="30.20327"></scales>
<clustering>
<clus scale="   30.203">  1  9  2 -1</clus>
<clus scale="   91.477">  5  6 -1 -1</clus>
<clus scale="   93.683">  7  8 -1 -1</clus>
<clus scale="  100.105">  1  5  2 -1</clus>
<clus scale="   30.203">  1  5  2 -1</clus>
</clustering>
</event>
<event>
 9    1  0.1426358E-005  0.9885755E+02  0.7546771E-02  0.1282937E+00
          1   -1    0    0  502    0 -0.00000000000E+00  0.00000000000E+00  0.36706074234E+03  0.36706074234E+03  0.00000000000E+00 0. -1.
         21   -1    0    0  501  502  0.00000000000E+00 -0.00000000000E+00 -0.51385536934E+02  0.51385536934E+02  0.00000000000E+00 0.  1.
         23    2    1    2    0    0  0.23816515964E+02  0.23455622504E+02  0.26270308914E+03  0.28014316469E+03  0.91377716214E+02 0.  0.
         23    2    1    2    0    0 -0.23056089902E+02 -0.45941600009E+02  0.44740643031E+02  0.11434576532E+03  0.91820558782E+02 0.  0.
        -11    1    3    3    0    0  0.47104294008E+02  0.22235029616E+02  0.24601115247E+03  0.25146510334E+03  0.00000000000E+00 0. -1.
         11    1    3    3    0    0 -0.23287778044E+02  0.12205928875E+01  0.16691936664E+02  0.28678061350E+02  0.00000000000E+00 0.  1.
        -13    1    4    4    0    0  0.87464908639E+01 -0.49887560054E+02 -0.93215753170E+01  0.51499140934E+02  0.00000000000E+00 0.  1.
         13    1    4    4    0    0 -0.31802580766E+02  0.39459600455E+01  0.54062218348E+02  0.62846624386E+02  0.00000000000E+00 0. -1.
          1    1    1    2  501    0 -0.76042606191E+00  0.22485977505E+02  0.82314732396E+01  0.23957349266E+02  0.00000000000E+00 0. -1.
<scales pt_clust_5="13000.00000" pt_clust_6="13000.00000" pt_clust_7="13000.00000" pt_clust_8="13000.00000" pt_clust_9="22.49883"></scales>
<clustering>
<clus scale="   22.499">  2  9  1 -1</clus>
<clus scale="   91.378">  5  6 -1 -1</clus>
<clus scale="   91.821">  7  8 -1 -1</clus>
<clus scale="   98.446">  1  5  2 -1</clus>
<clus scale="   22.499">  2  5  1 -1</clus>
</clustering>
</event>
<event>
 9    1  0.1617984E-005  0.1004315E+03  0.7546771E-02  0.1279498E+00
          3   -1    0    0  502    0 -0.00000000000E+00  0.00000000000E+00  0.14742719532E+03  0.14742719532E+03  0.00000000000E+00 0. -1.
         21   -1    0    0  501  502  0.00000000000E+00 -0.00000000000E+00 -0.34872592082E+03  0.34872592082E+03  0.00000000000E+00 0. -1.
         23    2    1    2    0    0  0.54647328845E+01 -0.48858343618E+02  0.11207693646E+03  0.15144883990E+03  0.89210483540E+02 0.  0.
         23    2    1    2    0    0 -0.36559418053E+01  0.19798055387E+02 -0.13025771619E+03  0.15928595421E+03  0.89440559455E+02 0.  0.
        -11    1    3    3    0    0 -0.26085651151E+02 -0.62309952267E+02  0.73228787311E+02  0.99626535815E+02  0.00000000000E+00 0.  1.
         11    1    3    3    0    0  0.31550384036E+02  0.13451608649E+02  0.38848149153E+02  0.51822304085E+02  0.00000000000E+00 0. -1.
        -13    1    4    4    0    0  0.15713004934E+02  0.46096133027E+02 -0.11138010375E+03  0.12156183412E+03  0.00000000000E+00 0.  1.
         13    1    4    4    0    0 -0.19368946739E+02 -0.26298077640E+02 -0.18877612443E+02  0.37724120094E+02  0.00000000000E+00 0. -1.
          3    1    1    2  501    0 -0.18087910792E+01  0.29060288230E+02 -0.18311794578E+03  0.18541832203E+03  0.00000000000E+00 0. -1.
<scales pt_clust_5="13000.00000" pt_clust_6="13000.00000" pt_clust_7="13000.00000" pt_clust_8="13000.00000" pt_clust_9="29.11653"></scales>
<clustering>
<clus scale="   29.117">  2  9  1 -1</clus>
<clus scale="   89.210">  5  6 -1 -1</clus>
<clus scale="   89.441">  7  8 -1 -1</clus>
<clus scale="  100.227">  1  5  2 -1</clus>
<clus scale="   29.117">  2  5  1 -1</clus>
</clustering>
</event>
<event>
 9    1  0.1426358E-005  0.3660807E+03  0.7546771E-02  0.1056204E+00
         21   -1    0    0  501  502  0.00000000000E+00  0.00000000000E+00  0.92323007709E+02  0.92323007709E+02  0.00000000000E+00 0. -1.
          2   -1    0    0  502    0 -0.00000000000E+00 -0.00000000000E+00 -0.20742507386E+04  0.20742507386E+04  0.00000000000E+00 0. -1.
         23    2    1    2    0    0 -0.17164577652E+03  0.31199620762E+03 -0.12436011687E+04  0.12967674661E+04  0.90874024496E+02 0.  0.
         23    2    1    2    0    0  0.10805802348E+03 -0.33959294612E+03 -0.69969658922E+03  0.79045102121E+03  0.90761194774E+02 0.  0.
        -11    1    4    4    0    0  0.79319980968E+02 -0.18288235109E+03 -0.30021606633E+03  0.36037105905E+03  0.00000000000E+00 0. -1.
         11    1    4    4    0    0  0.28738042512E+02 -0.15671059503E+03 -0.39948052289E+03  0.43007996216E+03  0.00000000000E+00 0.  1.
        -13    1    3    3    0    0 -0.80239870674E+02  0.12174014850E+03 -0.66690642718E+03  0.68265898017E+03  0.00000000000E+00 0.  1.
         13    1    3    3    0    0 -0.91405905845E+02  0.19025605912E+03 -0.57669474147E+03  0.61410848594E+03  0.00000000000E+00 0. -1.
          2    1    1    2  501    0  0.63587753039E+02  0.27596738497E+02 -0.38629973009E+02  0.79355258975E+02  0.00000000000E+00 0. -1.
<scales pt_clust_5="13000.00000" pt_clust_6="13000.00000" pt_clust_7="13000.00000" pt_clust_8="13000.00000" pt_clust_9="69.31798"></scales>
<clustering>
<clus scale="   69.318">  1  9  2 -1</clus>
<clus scale="   90.761">  5  6 -1 -1</clus>
<clus scale="   90.874">  7  8 -1 -1</clus>
<clus scale="  366.053">  1  5  2 -1</clus>
<clus scale="   69.318">  1  5  2 -1</clus>
</clustering>
</event>
<event>
 9    1  0.1426358E-005  0.1068936E+03  0.7546771E-02  0.1269963E+00
          1   -1    0    0  502    0 -0.00000000000E+00  0.00000000000E+00  0.39058830608E+03  0.39058830608E+03  0.00000000000E+00 0. -1.
         21   -1    0    0  501  502  0.00000000000E+00 -0.00000000000E+00 -0.98525955207E+02  0.98525955207E+02  0.00000000000E+00 0.  1.
         23    2    1    2    0    0  0.41805508017E+02  0.23799853794E+02  0.28593144258E+03  0.30280254096E+03  0.87283763759E+02 0.  0.
         23    2    1    2    0    0 -0.27305928176E+02 -0.54456328419E+02 -0.47652866559E+02  0.12272908363E+03  0.95291798485E+02 0.  0.
        -11    1    3    3    0    0  0.26459349220E+02  0.51634698417E+02  0.24021504221E+03  0.24712245091E+03  0.00000000000E+00 0. -1.
         11    1    3    3    0    0  0.15346158796E+02 -0.27834844623E+02  0.45716400373E+02  0.55680090050E+02  0.00000000000E+00 0.  1.
        -13    1    4    4    0    0 -0.60932559640E+02 -0.49880047735E+02 -0.38072923667E+02  0.87466242076E+02  0.00000000000E+00 0.  1.
         13    1    4    4    0    0  0.33626631464E+02 -0.45762806841E+01 -0.95799428918E+01  0.35262841552E+02  0.00000000000E+00 0. -1.
          1    1    1    2  501    0 -0.14499579840E+02  0.30656474625E+02  0.53783774856E+02  0.63582636700E+02  0.00000000000E+00 0. -1.
<scales pt_clust_5="13000.00000" pt_clust_6="13000.00000" pt_clust_7="13000.00000" pt_clust_8="13000.00000" pt_clust_9="33.91251"></scales>
<clustering>
<clus scale="   33.913">  2  9  1 -1</clus>
<clus scale="   87.284">  5  6 -1 -1</clus>
<clus scale="   95.292">  7  8 -1 -1</clus>
<clus scale="   99.821">  1  5  2 -1</clus>
<clus scale="   33.913">  2  5  1 -1</clus>
</clustering>
</event>
<event>
 9    1  0.1426358E-005  0.1043568E+03  0.7546771E-02  0.1272043E+00
          2   -1    0    0  502    0 -0.00000000000E+00  0.00000000000E+00  0.24301770653E+03  0.24301770653E+03  0.00000000000E+00 0. -1.
         21   -1    0    0  501  502  0.00000000000E+00 -0.00000000000E+00 -0.10683532201E+03  0.10683532201E+03  0.00000000000E+00 0. -1.
         23    2    1    2    0    0 -0.51278598979E+02  0.43180339621E+02  0.11553584891E+03  0.16222717801E+03  0.92060243628E+02 0.  0.
         23    2    1    2    0    0  0.20646213007E+02 -0.23854795299E+02  0.75380273241E+02  0.12199352794E+03  0.90581001843E+02 0.  0.
        -13    1    3    3    0    0 -0.14773078473E+02 -0.21957117044E+02  0.22675891451E+01  0.26561264974E+02  0.00000000000E+00 0.  1.
         13    1    3    3    0    0 -0.36505520506E+02  0.65137456665E+02  0.11326825977E+03  0.13566591303E+03  0.00000000000E+00 0. -1.
        -13    1    4    4    0    0  0.49807032822E+02  0.34464267707E+01  0.20167796281E+02  0.53845690476E+02  0.00000000000E+00 0. -1.
         13    1    4    4    0    0 -0.29160819815E+02 -0.27301222070E+02  0.55212476961E+02  0.68147837463E+02  0.00000000000E+00 0.  1.
          2    1    1    2  501    0  0.30632385972E+02 -0.19325544322E+02 -0.54733737639E+02  0.65632322598E+02  0.00000000000E+00 0. -1.
<scales pt_clust_5="13000.00000" pt_clust_6="13000.00000" pt_clust_7="13000.00000" pt_clust_8="13000.00000" pt_clust_9="36.21905"></scales>
<clustering>
<clus scale="   36.219">  2  9  1 -1</clus>
<clus scale="   90.581">  7  8 -1 -1</clus>
<clus scale="   92.060">  5  6 -1 -1</clus>
<clus scale="  103.054">  2  7  1 -1</clus>
<clus scale="   36.219">  2  5  1 -1</clus>
</clustering>
</event>
<event>
 9    1  0.1426358E-005  0.1806912E+03  0.7546771E-02  0.1194301E+00
         -4   -1    0    0    0  501 -0.00000000000E+00  0.00000000000E+00  0.60835306844E+02  0.60835306844E+02  0.00000000000E+00 0.  1.
         21   -1    0    0  501  502  0.00000000000E+00 -0.00000000000E+00 -0.96577057430E+03  0.96577057430E+03  0.00000000000E+00 0.  1.
         23    2    1    2    0    0  0.21430277339E+02  0.68317608561E+01 -0.73289056074E+02  0.12251994484E+03  0.95571551212E+02 0.  0.
         23    2    1    2    0    0 -0.67899580057E+02  0.14088351492E+03 -0.30479700814E+03  0.35495090577E+03  0.92900008557E+02 0.  0.
        -11    1    3    3    0    0 -0.21849302643E+01 -0.42842043317E+02 -0.27523437992E+02  0.50968168838E+02  0.00000000000E+00 0.  1.
         11    1    3    3    0    0  0.23615207603E+02  0.49673804173E+02 -0.45765618081E+02  0.71551776005E+02  0.00000000000E+00 0. -1.
        -13    1    4    4    0    0 -0.54572603798E+02  0.18523006472E+02 -0.79017945449E+02  0.97801362757E+02  0.00000000000E+00 0. -1.
         13    1    4    4    0    0 -0.13326976259E+02  0.12236050845E+03 -0.22577906269E+03  0.25714954302E+03  0.00000000000E+00 0.  1.
         -4    1    1    2    0  502  0.46469302718E+02 -0.14771527578E+03 -0.52684920324E+03  0.54913503053E+03  0.00000000000E+00 0.  1.
<scales pt_clust_5="13000.00000" pt_clust_6="13000.00000" pt_clust_7="13000.00000" pt_clust_8="13000.00000" pt_clust_9="154.98031"></scales>
<clustering>
<clus scale="   92.900">  7  8 -1 -1</clus>
<clus scale="   95.572">  5  6 -1 -1</clus>
<clus scale="   98.183">  1  5  2 -1</clus>
<clus scale="  154.980">  2  9  1 -1</clus>
<clus scale="  154.980">  2  5  1 -1</clus>
</clustering>
</event>
<event>
 9    1  0.1426358E-005  0.1858106E+03  0.7546771E-02  0.1174793E+00
         -3   -1    0    0    0  501 -0.00000000000E+00  0.00000000000E+00  0.39260653803E+03  0.39260653803E+03  0.00000000000E+00 0.  1.
         21   -1    0    0  501  502  0.00000000000E+00 -0.00000000000E+00 -0.21619081889E+03  0.21619081889E+03  0.00000000000E+00 0. -1.
         23    2    1    2    0    0 -0.40808790881E+02  0.96480668293E+02 -0.28513055228E+02  0.14239259549E+03  0.92134576383E+02 0.  0.
         23    2    1    2    0    0 -0.92198403608E+02 -0.18230568461E+03  0.21313027510E+03  0.30789888827E+03  0.87414546635E+02 0.  0.
        -11    1    4    4    0    0 -0.95285385836E+02 -0.10722897046E+03  0.16513048138E+03  0.21873598867E+03  0.00000000000E+00 0. -1.
         11    1    4    4    0    0  0.30869822281E+01 -0.75076714155E+02  0.47999793723E+02  0.89162899600E+02  0.00000000000E+00 0.  1.
        -13    1    3    3    0    0 -0.70342355436E+02  0.71607546512E+02 -0.26044674275E+02  0.10370155613E+03  0.00000000000E+00 0. -1.
         13    1    3    3    0    0  0.29533564555E+02  0.24873121781E+02 -0.24683809529E+01  0.38691039363E+02  0.00000000000E+00 0.  1.
         -3    1    1    2    0  502  0.13300719449E+03  0.85825016318E+02 -0.82015007338E+01  0.15850587316E+03  0.00000000000E+00 0.  1.
<scales pt_clust_5="13000.00000" pt_clust_6="13000.00000" pt_clust_7="13000.00000" pt_clust_8="13000.00000" pt_clust_9="163.96420"></scales>
<clustering>
<clus scale="   87.415">  5  6 -1 -1</clus>
<clus scale="   92.135">  7  8 -1 -1</clus>
<clus scale="  139.509">  1  7  2 -1</clus>
<clus scale="  163.964">  2  9  1 -1</clus>
<clus scale="  163.964">  2  5  1 -1</clus>
</clustering>
</event>
<event>
 9    1  0.1426358E-005  0.1177949E+03  0.7546771E-02  0.1250152E+00
         21   -1    0    0  501  502  0.00000000000E+00  0.00000000000E+00  0.56438539508E+02  0.56438539508E+02  0.00000000000E+00 0.  1.
          1   -1    0    0  502    0 -0.00000000000E+00 -0.00000000000E+00 -0.28979761323E+03  0.28979761323E+03  0.00000000000E+00 0. -1.
         23    2    1    2    0    0 -0.37910986565E+02  0.34313077597E+02 -0.12001823402E+03  0.16582108145E+03  0.10236026748E+03 0.  0.
         23    2    1    2    0    0  0.58071993347E+02 -0.32621446769E+02 -0.11169725286E+03  0.16011656920E+03  0.93405161715E+02 0.  0.
        -11    1    4    4    0    0 -0.20883053494E+02 -0.40971729471E+01 -0.11576911461E+01  0.21312648784E+02  0.00000000000E+00 0.  1.
         11    1    4    4    0    0  0.78955046841E+02 -0.28524273822E+02 -0.11053956171E+03  0.13880392042E+03  0.00000000000E+00 0. -1.
        -13    1    3    3    0    0 -0.57976032588E+02  0.15224517174E+02 -0.21815720060E+02  0.63788180093E+02  0.00000000000E+00 0.  1.
         13    1    3    3    0    0  0.20065046023E+02  0.19088560423E+02 -0.98202513959E+02  0.10203290135E+03  0.00000000000E+00 0. -1.
          1    1    1    2  501    0 -0.20161006782E+02 -0.16916308276E+01 -0.16435868389E+01  0.20298502088E+02  0.00000000000E+00 0. -1.
<scales pt_clust_5="13000.00000" pt_clust_6="13000.00000" pt_clust_7="13000.00000" pt_clust_8="13000.00000" pt_clust_9="20.23185"></scales>
<clustering>
<clus scale="   20.232">  1  9  2 -1</clus>
<clus scale="   93.405">  5  6 -1 -1</clus>
<clus scale="  102.360">  7  8 -1 -1</clus>
<clus scale="  110.102">  1  5  2 -1</clus>
<clus scale="   20.232">  1  5  2 -1</clus>
</clustering>
</event>
<event>
 9    1  0.1426358E-005  0.9424159E+02  0.7546771E-02  0.1293870E+00
         21   -1    0    0  501  502  0.00000000000E+00  0.00000000000E+00  0.23488639985E+03  0.23488639985E+03  0.00000000000E+00 0.  1.
          1   -1    0    0  502    0 -0.00000000000E+00 -0.00000000000E+00 -0.23484724698E+03  0.23484724698E+03  0.00000000000E+00 0. -1.
         23    2    1    2    0    0 -0.11499688704E+02  0.15190461536E+02 -0.20002728027E+03  0.22099419991E+03  0.92002883543E+02 0.  0.
         23    2    1    2    0    0  0.53056332204E+02 -0.72433493962E+01  0.13266201313E+03  0.16915636426E+03  0.90261981708E+02 0.  0.
        -13    1    3    3    0    0 -0.24624536856E+02 -0.21349870011E+02 -0.23328194653E+02  0.40079788306E+02  0.00000000000E+00 0.  1.
         13    1    3    3    0    0  0.13124848152E+02  0.36540331546E+02 -0.17669908562E+03  0.18091441161E+03  0.00000000000E+00 0. -1.
        -13    1    4    4    0    0  0.32749752847E+02 -0.42528643155E+02  0.11039621879E+03  0.12275405053E+03  0.00000000000E+00 0.  1.
         13    1    4    4    0    0  0.20306579357E+02  0.35285293759E+02  0.22265794349E+02  0.46402313722E+02  0.00000000000E+00 0. -1.
          1    1    1    2  501    0 -0.41556643500E+02 -0.79471121393E+01  0.67404420006E+02  0.79583082667E+02  0.00000000000E+00 0. -1.
<scales pt_clust_5="13000.00000" pt_clust_6="13000.00000" pt_clust_7="13000.00000" pt_clust_8="13000.00000" pt_clust_9="42.30971"></scales>
<clustering>
<clus scale="   42.310">  1  9  2 -1</clus>
<clus scale="   90.262">  7  8 -1 -1</clus>
<clus scale="   92.003">  5  6 -1 -1</clus>
<clus scale="   92.543">  1  7  2 -1</clus>
<clus scale="   42.310">  1  5  2 -1</clus>
</clustering>
</event>
<event>
 9    1  0.1426358E-005  0.9666536E+02  0.7546771E-02  0.1288389E+00
         21   -1    0    0  501  502  0.00000000000E+00  0.00000000000E+00  0.43413026131E+03  0.43413026131E+03  0.00000000000E+00 0. -1.
         -3   -1    0    0    0  501 -0.00000000000E+00 -0.00000000000E+00 -0.40862882402E+02  0.40862882402E+02  0.00000000000E+00 0.  1.
         23    2    1    2    0    0  0.22581341626E+02  0.50194041172E+01  0.50833659836E+02  0.10743734425E+03  0.91780229683E+02 0.  0.
         23    2    1    2    0    0 -0.16922155034E+02 -0.36019270866E+02  0.24828482548E+03  0.26827321138E+03  0.93495530239E+02 0.  0.
        -11    1    3    3    0    0 -0.17010693615E+02 -0.17185244389E+02 -0.14265115882E+02  0.28074719110E+02  0.00000000000E+00 0.  1.
         11    1    3    3    0    0  0.39592035241E+02  0.22204648506E+02  0.65098775718E+02  0.79362625144E+02  0.00000000000E+00 0. -1.
        -13    1    4    4    0    0 -0.55331063153E+02 -0.22255489923E+02  0.16686296033E+03  0.17720067977E+03  0.00000000000E+00 0.  1.
         13    1    4    4    0    0  0.38408908119E+02 -0.13763780943E+02  0.81421865151E+02  0.91072531607E+02  0.00000000000E+00 0. -1.
         -3    1    1    2    0  502 -0.56591865922E+01  0.30999866749E+02  0.94148893596E+02  0.99282588084E+02  0.00000000000E+00 0.  1.
<scales pt_clust_5="13000.00000" pt_clust_6="13000.00000" pt_clust_7="13000.00000" pt_clust_8="13000.00000" pt_clust_9="31.51219"></scales>
<clustering>
<clus scale="   31.512">  1  9  2 -1</clus>
<clus scale="   91.780">  5  6 -1 -1</clus>
<clus scale="   93.496">  7  8 -1 -1</clus>
<clus scale="   95.007">  2  5  1 -1</clus>
<clus scale="   31.512">  1  5  2 -1</clus>
</clustering>
</event>
<event>
 9    1  0.1426358E-005  0.1079405E+03  0.7546771E-02  0.1264507E+00
         21   -1    0    0  501  502  0.00000000000E+00  0.00000000000E+00  0.56382359769E+02  0.56382359769E+02  0.00000000000E+00 0.  1.
          1   -1    0    0  502    0 -0.00000000000E+00 -0.00000000000E+00 -0.32755596794E+03  0.32755596794E+03  0.00000000000E+00 0. -1.
         23    2    1    2    0    0  0.58639291495E+02 -0.27458659469E+02 -0.21784704130E+03  0.24514864703E+03  0.91912900348E+02 0.  0.
         23    2    1    2    0    0 -0.30649748070E+02  0.22873093608E+02 -0.45915081423E+02  0.10947463212E+03  0.91727394534E+02 0.  0.
        -11    1    3    3    0    0  0.38591882731E+02  0.11377621329E+02 -0.24905163204E+02  0.47318609807E+02  0.00000000000E+00 0.  1.
         11    1    3    3    0    0  0.20047408764E+02 -0.38836280798E+02 -0.19294187810E+03  0.19783003723E+03  0.00000000000E+00 0. -1.
        -13    1    4    4    0    0 -0.35898061294E+02  0.54124152198E+02 -0.42467697146E+02  0.77598968786E+02  0.00000000000E+00 0. -1.
         13    1    4    4    0    0  0.52483132239E+01 -0.31251058590E+02 -0.34473842773E+01  0.31875663335E+02  0.00000000000E+00 0.  1.
          1    1    1    2  501    0 -0.27989543425E+02  0.45855658617E+01 -0.74114854476E+01  0.29315048558E+02  0.00000000000E+00 0. -1.
<scales pt_clust_5="13000.00000" pt_clust_6="13000.00000" pt_clust_7="13000.00000" pt_clust_8="13000.00000" pt_clust_9="28.36269"></scales>
<clustering>
<clus scale="   28.363">  1  9  2 -1</clus>
<clus scale="   91.727">  7  8 -1 -1</clus>
<clus scale="   91.913">  5  6 -1 -1</clus>
<clus scale="  107.783">  1  7  2 -1</clus>
<clus scale="   28.363">  1  5  2 -1</clus>
</clustering>
</event>
<event>
 9    1  0.1426358E-005  0.1703004E+03  0.7546771E-02  0.1178214E+00
         21   -1    0    0  501  502  0.00000000000E+00  0.00000000000E+00  0.78095753593E+02  0.78095753593E+02  0.00000000000E+00 0.  1.
          2   -1    0    0  502    0 -0.00000000000E+00 -0.00000000000E+00 -0.90994936194E+03  0.90994936194E+03  0.00000000000E+00 0. -1.
         23    2    1    2    0    0 -0.40212386524E+02  0.11622856481E+03 -0.49931910521E+03  0.52225854940E+03  0.91149922071E+02 0.  0.
         23    2    1    2    0    0  0.69364433380E+02 -0.17379094657E+03 -0.34111432049E+03  0.40069522342E+03  0.95827786678E+02 0.  0.
        -13    1    4    4    0    0 -0.14655644489E+02 -0.26937743268E+02 -0.11048396967E+03  0.11466096756E+03  0.00000000000E+00 0.  1.
         13    1    4    4    0    0  0.84020077868E+02 -0.14685320330E+03 -0.23063035081E+03  0.28603425585E+03  0.00000000000E+00 0. -1.
        -13    1    3    3    0    0 -0.46639138369E+02  0.25012687748E+02 -0.10634738150E+03  0.11878808580E+03  0.00000000000E+00 0.  1.
         13    1    3    3    0    0  0.64267518453E+01  0.91215877062E+02 -0.39297172371E+03  0.40347046360E+03  0.00000000000E+00 0. -1.
          2    1    1    2  501    0 -0.29152046856E+02  0.57562381761E+02  0.85798173503E+01  0.65091342709E+02  0.00000000000E+00 0. -1.
<scales pt_clust_5="13000.00000" pt_clust_6="13000.00000" pt_clust_7="13000.00000" pt_clust_8="13000.00000" pt_clust_9="64.52340"></scales>
<clustering>
<clus scale="   64.523">  1  9  2 -1</clus>
<clus scale="   91.150">  7  8 -1 -1</clus>
<clus scale="   95.828">  5  6 -1 -1</clus>
<clus scale="  167.713">  2  7  1 -1</clus>
<clus scale="   64.523">  1  5  2 -1</clus>
</clustering>
</event>
<event>
 9    1  0.1426358E-005  0.1124610E+03  0.7546771E-02  0.1257824E+00
          1   -1    0    0  502    0 -0.00000000000E+00  0.00000000000E+00  0.37134547219E+03  0.37134547219E+03  0.00000000000E+00 0. -1.
         21   -1    0    0  501  502  0.00000000000E+00 -0.00000000000E+00 -0.52658928367E+02  0.52658928367E+02  0.00000000000E+00 0. -1.
         23    2    1    2    0    0 -0.51062972285E+02 -0.61123660252E+02  0.22056862542E+03  0.25247926304E+03  0.93550685542E+02 0.  0.
         23    2    1    2    0    0  0.29180293058E+02  0.23095855296E+02  0.73377999057E+02  0.12115620652E+03  0.88935862275E+02 0.  0.
        -11    1    4    4    0    0 -0.25942252730E+02 -0.14400544601E+02  0.20489760468E+02  0.36058375526E+02  0.00000000000E+00 0.  1.
         11    1    4    4    0    0  0.55122545787E+02  0.37496399897E+02  0.52888238589E+02  0.85097830997E+02  0.00000000000E+00 0. -1.
        -13    1    3    3    0    0  0.21383992169E+02 -0.10704752208E+02  0.13682174210E+02  0.27551202007E+02  0.00000000000E+00 0.  1.
         13    1    3    3    0    0 -0.72446964454E+02 -0.50418908044E+02  0.20688645121E+03  0.22492806103E+03  0.00000000000E+00 0. -1.
          1    1    1    2  501    0  0.21882679227E+02  0.38027804955E+02  0.24739919343E+02  0.50368930989E+02  0.00000000000E+00 0. -1.
<scales pt_clust_5="13000.00000" pt_clust_6="13000.00000" pt_clust_7="13000.00000" pt_clust_8="13000.00000" pt_clust_9="43.87443"></scales>
<clustering>
<clus scale="   43.874">  2  9  1 -1</clus>
<clus scale="   88.936">  5  6 -1 -1</clus>
<clus scale="   93.551">  7  8 -1 -1</clus>
<clus scale="  108.652">  2  5  1 -1</clus>
<clus scale="   43.874">  2  5  1 -1</clus>
</clustering>
</event>
<event>
 9    1  0.1426358E-005  0.1035823E+03  0.7546771E-02  0.1273614E+00
         21   -1    0    0  501  502  0.00000000000E+00  0.00000000000E+00  0.12232992585E+03  0.12232992585E+03  0.00000000000E+00 0.  1.
         -1   -1    0    0    0  501 -0.00000000000E+00 -0.00000000000E+00 -0.52148967378E+03  0.52148967378E+03  0.00000000000E+00 0.  1.
         23    2    1    2    0    0 -0.28449200549E+02 -0.27804893066E+02 -0.38796675817E+03  0.40062762149E+03  0.91661423526E+02 0.  0.
         23    2    1    2    0    0  0.78369804869E+02  0.71591124715E+02 -0.68758496261E+02  0.15531087462E+03  0.90147775971E+02 0.  0.
        -11    1    3    3    0    0  0.93592882580E+01  0.28736379098E+02 -0.87966733600E+02  0.93013558047E+02  0.00000000000E+00 0. -1.
         11    1    3    3    0    0 -0.37808488807E+02 -0.56541272164E+02 -0.30000002457E+03  0.30761406344E+03  0.00000000000E+00 0.  1.
        -13    1    4    4    0    0  0.26846083229E+02  0.44354331828E+00 -0.61573485538E+02  0.67172933811E+02  0.00000000000E+00 0. -1.
         13    1    4    4    0    0  0.51523721640E+02  0.71147581397E+02 -0.71850107227E+01  0.88137940805E+02  0.00000000000E+00 0.  1.
         -1    1    1    2    0  502 -0.49920604320E+02 -0.43786231649E+02  0.57565506503E+02  0.87881103524E+02  0.00000000000E+00 0.  1.
<scales pt_clust_5="13000.00000" pt_clust_6="13000.00000" pt_clust_7="13000.00000" pt_clust_8="13000.00000" pt_clust_9="66.40257"></scales>
<clustering>
<clus scale="   66.403">  1  9  2 -1</clus>
<clus scale="   90.148">  7  8 -1 -1</clus>
<clus scale="   91.661">  5  6 -1 -1</clus>
<clus scale="  102.245">  1  7  2 -1</clus>
<clus scale="   66.403">  1  5  2 -1</clus>
</clustering>
</event>
<event>
 9    1  0.1426358E-005  0.1977112E+03  0.7546771E-02  0.1151898E+00
          1   -1    0    0  502    0 -0.00000000000E+00  0.00000000000E+00  0.14449558631E+03  0.14449558631E+03  0.00000000000E+00 0. -1.
         21   -1    0    0  501  502  0.00000000000E+00 -0.00000000000E+00 -0.66915728891E+03  0.66915728891E+03  0.00000000000E+00 0.  1.
         23    2    1    2    0    0 -0.88477691282E+02  0.15049197206E+03  0.39287137118E+02  0.20003702381E+03  0.89415861249E+02 0.  0.
         23    2    1    2    0    0  0.11796108778E+03 -0.13855668719E+03 -0.52616868764E+03  0.56422899501E+03  0.91586555576E+02 0.  0.
        -11    1    3    3    0    0  0.58543809350E+01  0.74867090085E+02  0.18758360180E+02  0.77403042774E+02  0.00000000000E+00 0.  1.
         11    1    3    3    0    0 -0.94332072217E+02  0.75624881975E+02  0.20528776938E+02  0.12263398104E+03  0.00000000000E+00 0. -1.
        -11    1    4    4    0    0  0.17296207100E+02  0.12734063772E+02 -0.69098261812E+02  0.72359415045E+02  0.00000000000E+00 0. -1.
         11    1    4    4    0    0  0.10066488068E+03 -0.15129075096E+03 -0.45707042583E+03  0.49186957997E+03  0.00000000000E+00 0.  1.
          1    1    1    2  501    0 -0.29483396500E+02 -0.11935284871E+02 -0.37780152075E+02  0.49386856398E+02  0.00000000000E+00 0. -1.
<scales pt_clust_5="13000.00000" pt_clust_6="13000.00000" pt_clust_7="13000.00000" pt_clust_8="13000.00000" pt_clust_9="31.80757"></scales>
<clustering>
<clus scale="   31.808">  2  9  1 -1</clus>
<clus scale="   89.416">  5  6 -1 -1</clus>
<clus scale="   91.587">  7  8 -1 -1</clus>
<clus scale="  196.715">  1  5  2 -1</clus>
<clus scale="   31.808">  2  5  1 -1</clus>
</clustering>
</event>
<event>
 9    1  0.1426358E-005  0.1139693E+03  0.7546771E-02  0.1256174E+00
         21   -1    0    0  501  502  0.00000000000E+00  0.00000000000E+00  0.17856315100E+03  0.17856315100E+03  0.00000000000E+00 0.  1.
          3   -1    0    0  502    0 -0.00000000000E+00 -0.00000000000E+00 -0.99197370214E+02  0.99197370214E+02  0.00000000000E+00 0. -1.
         23    2    1    2    0    0  0.36175706921E+02 -0.30823996801E+02  0.73828686055E+01  0.10350478630E+03  0.91651151045E+02 0.  0.
         23    2    1    2    0    0 -0.48067545093E+02  0.50557862767E+02  0.27281075809E+02  0.12396562201E+03  0.98775664838E+02 0.  0.
        -11    1    3    3    0    0  0.46614132715E+02  0.18112856356E+02 -0.90825280358E+01  0.50827603226E+02  0.00000000000E+00 0. -1.
         11    1    3    3    0    0 -0.10438425794E+02 -0.48936853157E+02  0.16465396641E+02  0.52677183074E+02  0.00000000000E+00 0.  1.
        -13    1    4    4    0    0 -0.29584000551E+02 -0.25917790704E+02  0.22106344898E+02  0.45118016893E+02  0.00000000000E+00 0.  1.
         13    1    4    4    0    0 -0.18483544541E+02  0.76475653471E+02  0.51747309111E+01  0.78847605117E+02  0.00000000000E+00 0. -1.
          3    1    1    2  501    0  0.11891838172E+02 -0.19733865966E+02  0.44701836367E+02  0.50290112902E+02  0.00000000000E+00 0. -1.
<scales pt_clust_5="13000.00000" pt_clust_6="13000.00000" pt_clust_7="13000.00000" pt_clust_8="13000.00000" pt_clust_9="23.03999"></scales>
<clustering>
<clus scale="   23.040">  1  9  2 -1</clus>
<clus scale="   91.651">  5  6 -1 -1</clus>
<clus scale="   98.776">  7  8 -1 -1</clus>
<clus scale="  107.853">  2  5  1 -1</clus>
<clus scale="   23.040">  1  5  2 -1</clus>
</clustering>
</event>
<event>
 9    1  0.1426358E-005  0.1545536E+03  0.7546771E-02  0.1195290E+00
         21   -1    0    0  501  502  0.00000000000E+00  0.00000000000E+00  0.13130235034E+03  0.13130235034E+03  0.00000000000E+00 0. -1.
          2   -1    0    0  502    0 -0.00000000000E+00 -0.00000000000E+00 -0.66910007804E+03  0.66910007804E+03  0.00000000000E+00 0. -1.
         23    2    1    2    0    0 -0.10183552134E+03  0.11693840621E+03 -0.46504027997E+03  0.49845436458E+03  0.90273070822E+02 0.  0.
         23    2    1    2    0    0  0.82075467954E+02 -0.29611236932E+02 -0.14080902951E+03  0.18948690612E+03  0.92004874919E+02 0.  0.
        -11    1    3    3    0    0 -0.10100176327E+03  0.54118749861E+02 -0.33451113294E+03  0.35359283552E+03  0.00000000000E+00 0. -1.
         11    1    3    3    0    0 -0.83375807651E+00  0.62819656348E+02 -0.13052914703E+03  0.14486152906E+03  0.00000000000E+00 0.  1.
        -13    1    4    4    0    0  0.39846711296E+01 -0.45058862885E+02 -0.35640621725E+02  0.57588476672E+02  0.00000000000E+00 0.  1.
         13    1    4    4    0    0  0.78090796824E+02  0.15447625953E+02 -0.10516840778E+03  0.13189842945E+03  0.00000000000E+00 0. -1.
          2    1    1    2  501    0  0.19760053388E+02 -0.87327169277E+02  0.68051581777E+02  0.11246115768E+03  0.00000000000E+00 0. -1.
<scales pt_clust_5="13000.00000" pt_clust_6="13000.00000" pt_clust_7="13000.00000" pt_clust_8="13000.00000" pt_clust_9="89.53488"></scales>
<clustering>
<clus scale="   89.535">  1  9  2 -1</clus>
<clus scale="   90.273">  5  6 -1 -1</clus>
<clus scale="   92.005">  7  8 -1 -1</clus>
<clus scale="  153.529">  2  5  1 -1</clus>
<clus scale="   89.535">  1  5  2 -1</clus>
</clustering>
</event>
<event>
 9    1  0.1426358E-005  0.9936114E+02  0.7546771E-02  0.1282280E+00
         21   -1    0    0  501  502  0.00000000000E+00  0.00000000000E+00  0.42199510977E+03  0.42199510977E+03  0.00000000000E+00 0. -1.
         -1   -1    0    0    0  501 -0.00000000000E+00 -0.00000000000E+00 -0.93652901130E+02  0.93652901130E+02  0.00000000000E+00 0.  1.
         23    2    1    2    0    0  0.29519747754E+01 -0.36918558187E+02 -0.55115992675E+02  0.11274022072E+03  0.91109223604E+02 0.  0.
         23    2    1    2    0    0 -0.25078601220E+02  0.28926365591E+02  0.30271849189E+03  0.31881044529E+03  0.92390171696E+02 0.  0.
        -11    1    4    4    0    0 -0.44646509455E+02  0.52777314756E+02  0.20574421404E+03  0.21704708560E+03  0.00000000000E+00 0.  1.
         11    1    4    4    0    0  0.19567908235E+02 -0.23850949165E+02  0.96974277855E+02  0.10176335968E+03  0.00000000000E+00 0. -1.
        -13    1    3    3    0    0  0.38146562335E+02 -0.11003431058E+01  0.22401750141E-01  0.38162435389E+02  0.00000000000E+00 0.  1.
         13    1    3    3    0    0 -0.35194587560E+02 -0.35818215081E+02 -0.55138394425E+02  0.74577785331E+02  0.00000000000E+00 0. -1.
         -1    1    1    2    0  502  0.22126626445E+02  0.79921925964E+01  0.80739709424E+02  0.84097344894E+02  0.00000000000E+00 0.  1.
<scales pt_clust_5="13000.00000" pt_clust_6="13000.00000" pt_clust_7="13000.00000" pt_clust_8="13000.00000" pt_clust_9="23.52579"></scales>
<clustering>
<clus scale="   23.526">  1  9  2 -1</clus>
<clus scale="   91.109">  7  8 -1 -1</clus>
<clus scale="   92.390">  5  6 -1 -1</clus>
<clus scale="   98.171">  2  7  1 -1</clus>
<clus scale="   23.526">  1  5  2 -1</clus>
</clustering>
</event>
<event>
 9    1  0.1426358E-005  0.1231346E+03  0.7546771E-02  0.1238849E+00
         21   -1    0    0  501  502  0.00000000000E+00  0.00000000000E+00  0.24701715590E+03  0.24701715590E+03  0.00000000000E+00 0.  1.
          1   -1    0    0  502    0 -0.00000000000E+00 -0.00000000000E+00 -0.10440950141E+03  0.10440950141E+03  0.00000000000E+00 0. -1.
         23    2    1    2    0    0 -0.34919020997E+02  0.76539949333E+02 -0.17479181224E+02  0.12457119088E+03  0.90192893005E+02 0.  0.
         23    2    1    2    0    0  0.11105578014E+02 -0.74841256196E+02  0.82063000752E+02  0.14526083152E+03  0.92961419901E+02 0.  0.
        -11    1    4    4    0    0 -0.39645182806E+02 -0.25977197211E+02  0.46273563220E+02  0.66240455521E+02  0.00000000000E+00 0. -1.
         11    1    4    4    0    0  0.50750760820E+02 -0.48864058985E+02  0.35789437532E+02  0.79020376000E+02  0.00000000000E+00 0.  1.
        -13    1    3    3    0    0  0.11016402787E+02  0.66538226059E+02 -0.32972210240E+02  0.75072387104E+02  0.00000000000E+00 0. -1.
         13    1    3    3    0    0 -0.45935423784E+02  0.10001723274E+02  0.15493029016E+02  0.49498803771E+02  0.00000000000E+00 0.  1.
          1    1    1    2  501    0  0.23813442983E+02 -0.16986931369E+01  0.78023834964E+02  0.81594634919E+02  0.00000000000E+00 0. -1.
<scales pt_clust_5="13000.00000" pt_clust_6="13000.00000" pt_clust_7="13000.00000" pt_clust_8="13000.00000" pt_clust_9="23.87395"></scales>
<clustering>
<clus scale="   23.874">  1  9  2 -1</clus>
<clus scale="   90.193">  7  8 -1 -1</clus>
<clus scale="   92.961">  5  6 -1 -1</clus>
<clus scale="  121.058">  2  7  1 -1</clus>
<clus scale="   23.874">  1  5  2 -1</clus>
</clustering>
</event>
<event>
 9    1  0.1426358E-005  0.1077895E+03  0.7546771E-02  0.1265122E+00
         21   -1    0    0  501  502  0.00000000000E+00  0.00000000000E+00  0.47265766945E+02  0.47265766945E+02  0.00000000000E+00 0.  1.
          2   -1    0    0  502    0 -0.00000000000E+00 -0.00000000000E+00 -0.31561813314E+03  0.31561813314E+03  0.00000000000E+00 0. -1.
         23    2    1    2    0    0  0.55851187428E+02  0.13623431936E+02 -0.16277741204E+03  0.19559768299E+03  0.91962028497E+02 0.  0.
         23    2    1    2    0    0 -0.52208320897E+02  0.73395387747E+01 -0.97102046197E+02  0.14438410394E+03  0.92942909875E+02 0.  0.
        -13    1    4    4    0    0 -0.10964628665E+02  0.34994147603E+02 -0.15560616746E+01  0.36704696922E+02  0.00000000000E+00 0.  1.
         13    1    4    4    0    0 -0.41243692232E+02 -0.27654608828E+02 -0.95545984522E+02  0.10767940702E+03  0.00000000000E+00 0. -1.
        -13    1    3    3    0    0 -0.13764424306E+02  0.22043210475E+02 -0.10647645079E+02  0.28084423623E+02  0.00000000000E+00 0.  1.
         13    1    3    3    0    0  0.69615611734E+02 -0.84197785387E+01 -0.15212976696E+03  0.16751325937E+03  0.00000000000E+00 0. -1.
          2    1    1    2  501    0 -0.36428665302E+01 -0.20962970711E+02 -0.84729079575E+01  0.22902113152E+02  0.00000000000E+00 0. -1.
<scales pt_clust_5="13000.00000" pt_clust_6="13000.00000" pt_clust_7="13000.00000" pt_clust_8="13000.00000" pt_clust_9="21.27714"></scales>
<clustering>
<clus scale="   21.277">  1  9  2 -1</clus>
<clus scale="   91.962">  7  8 -1 -1</clus>
<clus scale="   92.943">  5  6 -1 -1</clus>
<clus scale="  106.945">  2  7  1 -1</clus>
<clus scale="   21.277">  1  5  2 -1</clus>
</clustering>
</event>
<event>
 9    1  0.1426358E-005  0.1457262E+03  0.7546771E-02  0.1206704E+00
          3   -1    0    0  502    0 -0.00000000000E+00  0.00000000000E+00  0.50198241667E+03  0.50198241667E+03  0.00000000000E+00 0. -1.
         21   -1    0    0  501  502  0.00000000000E+00 -0.00000000000E+00 -0.59205070716E+02  0.59205070716E+02  0.00000000000E+00 0. -1.
         23    2    1    2    0    0  0.90293709103E+02  0.65640478341E+02  0.25824387396E+03  0.29733782616E+03  0.96219842675E+02 0.  0.
         23    2    1    2    0    0 -0.60622890977E+02 -0.92557909519E+02  0.16601699705E+03  0.21971616608E+03  0.92040473718E+02 0.  0.
        -11    1    4    4    0    0 -0.46990012807E+01 -0.79500749325E+02  0.62110826815E+02  0.10099606212E+03  0.00000000000E+00 0.  1.
         11    1    4    4    0    0 -0.55923889696E+02 -0.13057160194E+02  0.10390617024E+03  0.11872010396E+03  0.00000000000E+00 0. -1.
        -13    1    3    3    0    0  0.98877902918E+02  0.31910456762E+02  0.14171493378E+03  0.17572205153E+03  0.00000000000E+00 0. -1.
         13    1    3    3    0    0 -0.85841938149E+01  0.33730021578E+02  0.11652894018E+03  0.12161577463E+03  0.00000000000E+00 0.  1.
          3    1    1    2  501    0 -0.29670818126E+02  0.26917431178E+02  0.18516474937E+02  0.44133495144E+02  0.00000000000E+00 0. -1.
<scales pt_clust_5="13000.00000" pt_clust_6="13000.00000" pt_clust_7="13000.00000" pt_clust_8="13000.00000" pt_clust_9="40.06127"></scales>
<clustering>
<clus scale="   40.061">  2  9  1 -1</clus>
<clus scale="   92.040">  5  6 -1 -1</clus>
<clus scale="   96.220">  7  8 -1 -1</clus>
<clus scale="  143.001">  2  5  1 -1</clus>
<clus scale="   40.061">  2  5  1 -1</clus>
</clustering>
</event>
<event>
 9    1  0.1426358E-005  0.1287929E+03  0.7546771E-02  0.1229626E+00
          2   -1    0    0  502    0 -0.00000000000E+00  0.00000000000E+00  0.33998867570E+03  0.33998867570E+03  0.00000000000E+00 0. -1.
         21   -1    0    0  501  502  0.00000000000E+00 -0.00000000000E+00 -0.19210512187E+03  0.19210512187E+03  0.00000000000E+00 0. -1.
         23    2    1    2    0    0  0.32619076742E+02  0.92835203229E+02  0.23974300628E+03  0.27463245077E+03  0.90905966954E+02 0.  0.
         23    2    1    2    0    0 -0.22785068962E+02 -0.70670969711E+02  0.40305608470E+02  0.12309035186E+03  0.89516184673E+02 0.  0.
        -13    1    3    3    0    0 -0.21202531387E+02  0.34730193970E+02  0.14770691888E+03  0.15320922817E+03  0.00000000000E+00 0.  1.
         13    1    3    3    0    0  0.53821608128E+02  0.58105009259E+02  0.92036087397E+02  0.12142322260E+03  0.00000000000E+00 0. -1.
        -13    1    4    4    0    0 -0.45195202042E+02 -0.11298853529E+02 -0.23184522584E+01  0.46643816306E+02  0.00000000000E+00 0. -1.
         13    1    4    4    0    0  0.22410133080E+02 -0.59372116182E+02  0.42624060728E+02  0.76446535550E+02  0.00000000000E+00 0.  1.
          2    1    1    2  501    0 -0.98340077794E+01 -0.22164233518E+02 -0.13216506092E+03  0.13437099495E+03  0.00000000000E+00 0. -1.
<scales pt_clust_5="13000.00000" pt_clust_6="13000.00000" pt_clust_7="13000.00000" pt_clust_8="13000.00000" pt_clust_9="24.24791"></scales>
<clustering>
<clus scale="   24.248">  2  9  1 -1</clus>
<clus scale="   89.516">  7  8 -1 -1</clus>
<clus scale="   90.906">  5  6 -1 -1</clus>
<clus scale="  127.816">  2  7  1 -1</clus>
<clus scale="   24.248">  2  5  1 -1</clus>
</clustering>
</event>
<event>
 9    1  0.1426358E-005  0.1100583E+03  0.7546771E-02  0.1260705E+00
          1   -1    0    0  502    0 -0.00000000000E+00  0.00000000000E+00  0.42909849330E+03  0.42909849330E+03  0.00000000000E+00 0. -1.
         21   -1    0    0  501  502  0.00000000000E+00 -0.00000000000E+00 -0.57401096118E+02  0.57401096118E+02  0.00000000000E+00 0. -1.
         23    2    1    2    0    0 -0.56908595283E+02 -0.22281732271E+02  0.29358054809E+03  0.31317409056E+03  0.90296228998E+02 0.  0.
         23    2    1    2    0    0  0.50014438999E+02  0.49909223776E+02  0.32678093339E+02  0.11970192007E+03  0.90930287352E+02 0.  0.
        -11    1    3    3    0    0 -0.44822807352E+01 -0.31590017186E+02  0.28445866522E+02  0.42745612039E+02  0.00000000000E+00 0.  1.
         11    1    3    3    0    0 -0.52426314548E+02  0.93082849152E+01  0.26513468156E+03  0.27042847852E+03  0.00000000000E+00 0. -1.
        -13    1    4    4    0    0  0.35356318672E+02 -0.20583929493E+02  0.23330976868E+02  0.47096729239E+02  0.00000000000E+00 0.  1.
         13    1    4    4    0    0  0.14658120327E+02  0.70493153269E+02  0.93471164703E+01  0.72605190831E+02  0.00000000000E+00 0. -1.
          1    1    1    2  501    0  0.68941562840E+01 -0.27627491505E+02  0.45438755761E+02  0.53623578795E+02  0.00000000000E+00 0. -1.
<scales pt_clust_5="13000.00000" pt_clust_6="13000.00000" pt_clust_7="13000.00000" pt_clust_8="13000.00000" pt_clust_9="28.47470"></scales>
<clustering>
<clus scale="   28.475">  2  9  1 -1</clus>
<clus scale="   90.296">  5  6 -1 -1</clus>
<clus scale="   90.930">  7  8 -1 -1</clus>
<clus scale="  109.535">  1  5  2 -1</clus>
<clus scale="   28.475">  2  5  1 -1</clus>
</clustering>
</event>
<event>
 9    1  0.1426358E-005  0.1139283E+03  0.7546771E-02  0.1254093E+00
         21   -1    0    0  501  502  0.00000000000E+00  0.00000000000E+00  0.13225255966E+03  0.13225255966E+03  0.00000000000E+00 0.  1.
         -3   -1    0    0    0  501 -0.00000000000E+00 -0.00000000000E+00 -0.29868126910E+03  0.29868126910E+03  0.00000000000E+00 0.  1.
         23    2    1    2    0    0  0.67372676084E+02 -0.88540942246E+01 -0.13574345975E+03  0.17770999380E+03  0.92396334159E+02 0.  0.
         23    2    1    2    0    0 -0.56317252702E+02 -0.69616016301E+02 -0.88496304503E+02  0.15513255761E+03  0.90644866616E+02 0.  0.
        -11    1    4    4    0    0 -0.25475705112E+02 -0.76652395557E+00  0.13046226738E+02  0.28632204631E+02  0.00000000000E+00 0. -1.
         11    1    4    4    0    0 -0.30841547590E+02 -0.68849492345E+02 -0.10154253124E+03  0.12650035298E+03  0.00000000000E+00 0.  1.
        -11    1    3    3    0    0 -0.16435996443E+02 -0.15939088911E+02 -0.70252489231E+01  0.23948917655E+02  0.00000000000E+00 0. -1.
         11    1    3    3    0    0  0.83808672528E+02  0.70849946861E+01 -0.12871821082E+03  0.15376107615E+03  0.00000000000E+00 0.  1.
         -3    1    1    2    0  502 -0.11055423382E+02  0.78470110525E+02  0.57811054811E+02  0.98091277341E+02  0.00000000000E+00 0.  1.
<scales pt_clust_5="13000.00000" pt_clust_6="13000.00000" pt_clust_7="13000.00000" pt_clust_8="13000.00000" pt_clust_9="79.24507"></scales>
<clustering>
<clus scale="   79.245">  1  9  2 -1</clus>
<clus scale="   90.645">  5  6 -1 -1</clus>
<clus scale="   92.396">  7  8 -1 -1</clus>
<clus scale="  112.513">  1  5  2 -1</clus>
<clus scale="   79.245">  1  5  2 -1</clus>
</clustering>
</event>
<event>
 9    1  0.1426358E-005  0.1029492E+03  0.7546771E-02  0.1274480E+00
         -1   -1    0    0    0  501 -0.00000000000E+00  0.00000000000E+00  0.63915625977E+02  0.63915625977E+02  0.00000000000E+00 0.  1.
         21   -1    0    0  501  502  0.00000000000E+00 -0.00000000000E+00 -0.22592180374E+03  0.22592180374E+03  0.00000000000E+00 0. -1.
         23    2    1    2    0    0 -0.47433226093E+02  0.19826381214E+02 -0.38900265307E+02  0.11137919851E+03  0.90824550042E+02 0.  0.
         23    2    1    2    0    0  0.28977037408E+02 -0.34041221772E+02 -0.79932890374E+02  0.12940109688E+03  0.91416100512E+02 0.  0.
        -11    1    4    4    0    0  0.17894887292E+02  0.15482593172E+02 -0.74729458851E+02  0.78386412743E+02  0.00000000000E+00 0. -1.
         11    1    4    4    0    0  0.11082150116E+02 -0.49523814943E+02 -0.52034315228E+01  0.51014684134E+02  0.00000000000E+00 0.  1.
        -13    1    3    3    0    0  0.62408387048E+01  0.36153342831E+02  0.88124095754E+01  0.37731562758E+02  0.00000000000E+00 0. -1.
         13    1    3    3    0    0 -0.53674064798E+02 -0.16326961617E+02 -0.47712674883E+02  0.73647635753E+02  0.00000000000E+00 0.  1.
         -1    1    1    2    0  502  0.18456188685E+02  0.14214840557E+02 -0.43173022082E+02  0.49057134329E+02  0.00000000000E+00 0.  1.
<scales pt_clust_5="13000.00000" pt_clust_6="13000.00000" pt_clust_7="13000.00000" pt_clust_8="13000.00000" pt_clust_9="23.29576"></scales>
<clustering>
<clus scale="   23.296">  2  9  1 -1</clus>
<clus scale="   90.825">  7  8 -1 -1</clus>
<clus scale="   91.416">  5  6 -1 -1</clus>
<clus scale="  102.424">  1  7  2 -1</clus>
<clus scale="   23.296">  2  5  1 -1</clus>
</clustering>
</event>
<event>
 9    1  0.1426358E-005  0.1293890E+03  0.7546771E-02  0.1243009E+00
         -4   -1    0    0    0  501 -0.00000000000E+00  0.00000000000E+00  0.30424673373E+03  0.30424673373E+03  0.00000000000E+00 0.  1.
         21   -1    0    0  501  502  0.00000000000E+00 -0.00000000000E+00 -0.88646592344E+02  0.88646592344E+02  0.00000000000E+00 0.  1.
         23    2    1    2    0    0 -0.17958647766E+02 -0.24033201997E+02  0.26652852846E+02  0.99532831158E+02  0.91084038589E+02 0.  0.
         23    2    1    2    0    0 -0.81559132682E+02  0.24110873392E+02  0.98469403525E+02  0.15886126691E+03  0.91145226720E+02 0.  0.
        -13    1    4    4    0    0  0.70592572567E+01  0.34501605407E+02  0.32196801680E+02  0.47716118106E+02  0.00000000000E+00 0. -1.
         13    1    4    4    0    0 -0.88618389939E+02 -0.10390732015E+02  0.66272601845E+02  0.11114514880E+03  0.00000000000E+00 0.  1.
        -13    1    3    3    0    0  0.37007921800E+02 -0.13119230205E+02  0.16454069790E+02  0.42572724716E+02  0.00000000000E+00 0. -1.
         13    1    3    3    0    0 -0.54966569565E+02 -0.10913971792E+02  0.10198783056E+02  0.56960106442E+02  0.00000000000E+00 0.  1.
         -4    1    1    2    0  502  0.99517780448E+02 -0.77671395501E-01  0.90477885019E+02  0.13449922801E+03  0.00000000000E+00 0.  1.
<scales pt_clust_5="13000.00000" pt_clust_6="13000.00000" pt_clust_7="13000.00000" pt_clust_8="13000.00000" pt_clust_9="91.83723"></scales>
<clustering>
<clus scale="   91.084">  7  8 -1 -1</clus>
<clus scale="   91.145">  5  6 -1 -1</clus>
<clus scale="   95.898">  1  7  2 -1</clus>
<clus scale="   91.837">  2  9  1 -1</clus>
<clus scale="   91.837">  2  5  1 -1</clus>
</clustering>
</event>
<event>
 9    1  0.1426358E-005  0.1113957E+03  0.7546771E-02  0.1267315E+00
          2   -1    0    0  502    0 -0.00000000000E+00  0.00000000000E+00  0.25820030244E+03  0.25820030244E+03  0.00000000000E+00 0. -1.
         21   -1    0    0  501  502  0.00000000000E+00 -0.00000000000E+00 -0.15590477176E+03  0.15590477176E+03  0.00000000000E+00 0.  1.
         23    2    1    2    0    0 -0.38519151224E+00 -0.21022340332E+02  0.20794555061E+03  0.22794041733E+03  0.90958202862E+02 0.  0.
         23    2    1    2    0    0  0.24021895205E+02 -0.10648488888E+02 -0.86502075197E+02  0.14225134485E+03  0.10982893214E+03 0.  0.
        -11    1    4    4    0    0 -0.24075392940E+02  0.15313796382E+02  0.10914338254E+02  0.30549299245E+02  0.00000000000E+00 0. -1.
         11    1    4    4    0    0  0.48097288145E+02 -0.25962285269E+02 -0.97416413451E+02  0.11170204561E+03  0.00000000000E+00 0.  1.
        -13    1    3    3    0    0 -0.33812763941E+02  0.10193480822E+02  0.37696634761E+02  0.51655070698E+02  0.00000000000E+00 0. -1.
         13    1    3    3    0    0  0.33427572428E+02 -0.31215821154E+02  0.17024891585E+03  0.17628534663E+03  0.00000000000E+00 0.  1.
          2    1    1    2  501    0 -0.23636703693E+02  0.31670829219E+02 -0.19147944736E+02  0.43913312019E+02  0.00000000000E+00 0. -1.
<scales pt_clust_5="13000.00000" pt_clust_6="13000.00000" pt_clust_7="13000.00000" pt_clust_8="13000.00000" pt_clust_9="39.51880"></scales>
<clustering>
<clus scale="   39.519">  2  9  1 -1</clus>
<clus scale="   90.958">  7  8 -1 -1</clus>
<clus scale="   92.844">  1  7  2 -1</clus>
<clus scale="  109.829">  5  6 -1 -1</clus>
<clus scale="   39.519">  2  5  1 -1</clus>
</clustering>
</event>
<event>
 9    1  0.1426358E-005  0.1035629E+03  0.7546771E-02  0.1273552E+00
         21   -1    0    0  501  502  0.00000000000E+00  0.00000000000E+00  0.66109636668E+02  0.66109636668E+02  0.00000000000E+00 0. -1.
          1   -1    0    0  502    0 -0.00000000000E+00 -0.00000000000E+00 -0.60864250700E+03  0.60864250700E+03  0.00000000000E+00 0. -1.
         23    2    1    2    0    0  0.59258501107E+02  0.30025362529E+02 -0.43404314917E+03  0.44805166771E+03  0.89127713095E+02 0.  0.
         23    2    1    2    0    0 -0.23823706834E+02  0.21322115674E+02 -0.12924581708E+03  0.16095092326E+03  0.90435152676E+02 0.  0.
        -11    1    3    3    0    0  0.10446632771E+02 -0.24523492193E+02 -0.46003283003E+02  0.53167996508E+02  0.00000000000E+00 0.  1.
         11    1    3    3    0    0  0.48811868336E+02  0.54548854722E+02 -0.38803986617E+03  0.39488367120E+03  0.00000000000E+00 0. -1.
        -13    1    4    4    0    0 -0.81131716759E+01  0.56626937830E+02 -0.74048540457E+02  0.93571469939E+02  0.00000000000E+00 0. -1.
         13    1    4    4    0    0 -0.15710535158E+02 -0.35304822156E+02 -0.55197276627E+02  0.67379453318E+02  0.00000000000E+00 0.  1.
          1    1    1    2  501    0 -0.35434794274E+02 -0.51347478203E+02  0.20756095923E+02  0.65749552706E+02  0.00000000000E+00 0. -1.
<scales pt_clust_5="13000.00000" pt_clust_6="13000.00000" pt_clust_7="13000.00000" pt_clust_8="13000.00000" pt_clust_9="62.38740"></scales>
<clustering>
<clus scale="   62.387">  1  9  2 -1</clus>
<clus scale="   89.128">  5  6 -1 -1</clus>
<clus scale="   90.435">  7  8 -1 -1</clus>
<clus scale="  102.423">  2  5  1 -1</clus>
<clus scale="   62.387">  1  5  2 -1</clus>
</clustering>
</event>
<event>
 9    1  0.1426358E-005  0.2185300E+03  0.7546771E-02  0.1136818E+00
          2   -1    0    0  502    0 -0.00000000000E+00  0.00000000000E+00  0.10075911696E+04  0.10075911696E+04  0.00000000000E+00 0. -1.
         21   -1    0    0  501  502  0.00000000000E+00 -0.00000000000E+00 -0.19932038174E+03  0.19932038174E+03  0.00000000000E+00 0.  1.
         23    2    1    2    0    0 -0.18020575936E+03  0.57296225227E+02  0.93018207642E+03  0.95582443374E+03  0.11227056481E+03 0.  0.
         23    2    1    2    0    0  0.16058050596E+03 -0.41485617712E+02 -0.12240482267E+03  0.22588058162E+03  0.92368507445E+02 0.  0.
        -11    1    3    3    0    0 -0.15583205238E+02  0.20869696504E+02  0.28889578737E+02  0.38897149989E+02  0.00000000000E+00 0.  1.
         11    1    3    3    0    0 -0.16462255412E+03  0.36426528723E+02  0.90129249768E+03  0.91692728376E+03  0.00000000000E+00 0. -1.
        -13    1    4    4    0    0  0.99098068418E+02 -0.27859188204E+02 -0.12611985110E+03  0.16279673944E+03  0.00000000000E+00 0.  1.
         13    1    4    4    0    0  0.61482437540E+02 -0.13626429508E+02  0.37150284315E+01  0.63083842173E+02  0.00000000000E+00 0. -1.
          2    1    1    2  501    0  0.19625253397E+02 -0.15810607515E+02  0.49353413275E+00  0.25206535994E+02  0.00000000000E+00 0. -1.
<scales pt_clust_5="13000.00000" pt_clust_6="13000.00000" pt_clust_7="13000.00000" pt_clust_8="13000.00000" pt_clust_9="25.20170"></scales>
<clustering>
<clus scale="   25.202">  2  9  1 -1</clus>
<clus scale="   92.369">  7  8 -1 -1</clus>
<clus scale="  112.271">  5  6 -1 -1</clus>
<clus scale="  209.004">  2  7  1 -1</clus>
<clus scale="   25.202">  2  5  1 -1</clus>
</clustering>
</event>
<event>
 9    1  0.1426358E-005  0.9378682E+02  0.7546771E-02  0.1307634E+00
         21   -1    0    0  501  502  0.00000000000E+00  0.00000000000E+00  0.61686477456E+02  0.61686477456E+02  0.00000000000E+00 0.  1.
          1   -1    0    0  502    0 -0.00000000000E+00 -0.00000000000E+00 -0.16532697514E+03  0.16532697514E+03  0.00000000000E+00 0. -1.
         23    2    1    2    0    0 -0.23430527955E+02 -0.31885115406E+02 -0.62553634396E+02  0.11722182884E+03  0.90897468366E+02 0.  0.
         23    2    1    2    0    0  0.10233686995E+02  0.28577774578E+01 -0.28107349172E+02  0.75364733887E+02  0.69115300729E+02 0.  0.
        -11    1    4    4    0    0  0.96377546230E+01 -0.26111127576E+02  0.81030879518E+01  0.28988572435E+02  0.00000000000E+00 0.  1.
         11    1    4    4    0    0  0.59593237148E+00  0.28968905034E+02 -0.36210437124E+02  0.46376161452E+02  0.00000000000E+00 0. -1.
        -13    1    3    3    0    0  0.18393950601E+02 -0.49899864971E+02 -0.28336690723E+02  0.60260285296E+02  0.00000000000E+00 0.  1.
         13    1    3    3    0    0 -0.41824478556E+02  0.18014749565E+02 -0.34216943674E+02  0.56961543543E+02  0.00000000000E+00 0. -1.
          1    1    1    2  501    0  0.13196840961E+02  0.29027337948E+02 -0.12979514120E+02  0.34426889876E+02  0.00000000000E+00 0. -1.
<scales pt_clust_5="13000.00000" pt_clust_6="13000.00000" pt_clust_7="13000.00000" pt_clust_8="13000.00000" pt_clust_9="31.88641"></scales>
<clustering>
<clus scale="   31.886">  1  9  2 -1</clus>
<clus scale="   69.115">  5  6 -1 -1</clus>
<clus scale="   72.873">  1  5  2 -1</clus>
<clus scale="   90.897">  7  8 -1 -1</clus>
<clus scale="   31.886">  1  5  2 -1</clus>
</clustering>
</event>
<event>
 9    1  0.1426358E-005  0.1788888E+03  0.7546771E-02  0.1196372E+00
         21   -1    0    0  501  502  0.00000000000E+00  0.00000000000E+00  0.27515666871E+03  0.27515666871E+03  0.00000000000E+00 0. -1.
          4   -1    0    0  502    0 -0.00000000000E+00 -0.00000000000E+00 -0.52965344919E+03  0.52965344919E+03  0.00000000000E+00 0. -1.
         23    2    1    2    0    0  0.25237172601E+02  0.24186362892E+02 -0.67874198863E+02  0.11813939546E+03  0.90156058357E+02 0.  0.
         23    2    1    2    0    0  0.11576070455E+03  0.47250237732E+02 -0.39596780806E+03  0.42435600095E+03  0.87489341279E+02 0.  0.
        -13    1    4    4    0    0  0.22201023822E+02 -0.11404651388E+02 -0.18500218539E+02  0.31067822873E+02  0.00000000000E+00 0.  1.
         13    1    4    4    0    0  0.93559680732E+02  0.58654889120E+02 -0.37746758952E+03  0.39328817808E+03  0.00000000000E+00 0. -1.
        -13    1    3    3    0    0  0.58389657278E+02  0.23256600138E+02 -0.37631365668E+02  0.73255315227E+02  0.00000000000E+00 0. -1.
         13    1    3    3    0    0 -0.33152484677E+02  0.92976275460E+00 -0.30242833195E+02  0.44884080237E+02  0.00000000000E+00 0.  1.
          4    1    1    2  501    0 -0.14099787716E+03 -0.71436600624E+02  0.20934522644E+03  0.26231472148E+03  0.00000000000E+00 0. -1.
<scales pt_clust_5="13000.00000" pt_clust_6="13000.00000" pt_clust_7="13000.00000" pt_clust_8="13000.00000" pt_clust_9="156.03467"></scales>
<clustering>
<clus scale="   87.489">  5  6 -1 -1</clus>
<clus scale="   90.156">  7  8 -1 -1</clus>
<clus scale="   96.695">  2  7  1 -1</clus>
<clus scale="  156.035">  1  9  2 -1</clus>
<clus scale="  156.035">  1  5  2 -1</clus>
</clustering>
</event>
<event>
 9    1  0.1426358E-005  0.1085595E+03  0.7546771E-02  0.1263559E+00
         21   -1    0    0  501  502  0.00000000000E+00  0.00000000000E+00  0.23782325870E+03  0.23782325870E+03  0.00000000000E+00 0.  1.
          1   -1    0    0  502    0 -0.00000000000E+00 -0.00000000000E+00 -0.10585906872E+03  0.10585906872E+03  0.00000000000E+00 0. -1.
         23    2    1    2    0    0  0.51451743876E+02 -0.83207904989E+01 -0.96433103135E+01  0.10607689324E+03  0.91884690469E+02 0.  0.
         23    2    1    2    0    0 -0.63852363730E+02 -0.92844793054E+01  0.20664400754E+02  0.11476018916E+03  0.92625901605E+02 0.  0.
        -13    1    3    3    0    0 -0.22191436585E+02 -0.21168465356E+02 -0.58767509109E+01  0.31226590984E+02  0.00000000000E+00 0.  1.
         13    1    3    3    0    0  0.73643180461E+02  0.12847674857E+02 -0.37665594026E+01  0.74850302253E+02  0.00000000000E+00 0. -1.
        -13    1    4    4    0    0 -0.80715586943E+02  0.10935597590E+02  0.30033788190E+02  0.86813718405E+02  0.00000000000E+00 0.  1.
         13    1    4    4    0    0  0.16863223214E+02 -0.20220076896E+02 -0.93693874361E+01  0.27946470757E+02  0.00000000000E+00 0. -1.
          1    1    1    2  501    0  0.12400619854E+02  0.17605269804E+02  0.12094309954E+03  0.12284524502E+03  0.00000000000E+00 0. -1.
<scales pt_clust_5="13000.00000" pt_clust_6="13000.00000" pt_clust_7="13000.00000" pt_clust_8="13000.00000" pt_clust_9="21.53418"></scales>
<clustering>
<clus scale="   21.534">  1  9  2 -1</clus>
<clus scale="   91.885">  5  6 -1 -1</clus>
<clus scale="   92.626">  7  8 -1 -1</clus>
<clus scale="  107.928">  2  5  1 -1</clus>
<clus scale="   21.534">  1  5  2 -1</clus>
</clustering>
</event>
<event>
 9    1  0.1426358E-005  0.1084416E+03  0.7546771E-02  0.1266106E+00
         -2   -1    0    0    0  501 -0.00000000000E+00  0.00000000000E+00  0.41851932579E+03  0.41851932579E+03  0.00000000000E+00 0.  1.
         21   -1    0    0  501  502  0.00000000000E+00 -0.00000000000E+00 -0.79741440999E+02  0.79741440999E+02  0.00000000000E+00 0. -1.
         23    2    1    2    0    0 -0.41716695390E+02  0.37075092593E+02  0.33687243967E+03  0.35444852961E+03  0.95057216283E+02 0.  0.
         23    2    1    2    0    0  0.33646716989E+02 -0.15421296578E+01 -0.25319980791E+02  0.98326637014E+02  0.88840004453E+02 0.  0.
        -11    1    4    4    0    0  0.43253023603E+02 -0.33985882947E+02 -0.32283352872E+02  0.63781495460E+02  0.00000000000E+00 0.  1.
         11    1    4    4    0    0 -0.96063066139E+01  0.32443753289E+02  0.69633720807E+01  0.34545141554E+02  0.00000000000E+00 0. -1.
        -11    1    3    3    0    0 -0.29180453093E+02 -0.26784398231E+02  0.77487015812E+02  0.87023792441E+02  0.00000000000E+00 0. -1.
         11    1    3    3    0    0 -0.12536242297E+02  0.63859490825E+02  0.25938542386E+03  0.26742473717E+03  0.00000000000E+00 0.  1.
         -2    1    1    2    0  502  0.80699784003E+01 -0.35532962936E+02  0.27225425913E+02  0.45485600166E+02  0.00000000000E+00 0.  1.
<scales pt_clust_5="13000.00000" pt_clust_6="13000.00000" pt_clust_7="13000.00000" pt_clust_8="13000.00000" pt_clust_9="36.43784"></scales>
<clustering>
<clus scale="   36.438">  2  9  1 -1</clus>
<clus scale="   88.840">  5  6 -1 -1</clus>
<clus scale="   95.057">  7  8 -1 -1</clus>
<clus scale="  103.035">  2  5  1 -1</clus>
<clus scale="   36.438">  2  5  1 -1</clus>
</clustering>
</event>
<event>
 9    1  0.1426358E-005  0.9303947E+02  0.7546771E-02  0.1295961E+00
         21   -1    0    0  501  502  0.00000000000E+00  0.00000000000E+00  0.53299242071E+02  0.53299242071E+02  0.00000000000E+00 0. -1.
          1   -1    0    0  502    0 -0.00000000000E+00 -0.00000000000E+00 -0.37540279480E+03  0.37540279480E+03  0.00000000000E+00 0. -1.
         23    2    1    2    0    0  0.45334652144E+01 -0.26267409697E+02 -0.13280082441E+03  0.16313803564E+03  0.90925412232E+02 0.  0.
         23    2    1    2    0    0 -0.40042669141E+02 -0.19329692477E+02 -0.45395781202E+02  0.11048592825E+03  0.90384241035E+02 0.  0.
        -13    1    4    4    0    0 -0.36887139737E+02  0.29101381981E+02 -0.48310909793E+01  0.47232308341E+02  0.00000000000E+00 0. -1.
         13    1    4    4    0    0 -0.31555294049E+01 -0.48431074458E+02 -0.40564690223E+02  0.63253619911E+02  0.00000000000E+00 0.  1.
        -13    1    3    3    0    0 -0.26570076923E+02 -0.40692682117E+02 -0.36102540039E+02  0.60541364065E+02  0.00000000000E+00 0. -1.
         13    1    3    3    0    0  0.31103542138E+02  0.14425272420E+02 -0.96698284374E+02  0.10259667158E+03  0.00000000000E+00 0.  1.
          1    1    1    2  501    0  0.35509203927E+02  0.45597102174E+02 -0.14390694711E+03  0.15507807297E+03  0.00000000000E+00 0. -1.
<scales pt_clust_5="13000.00000" pt_clust_6="13000.00000" pt_clust_7="13000.00000" pt_clust_8="13000.00000" pt_clust_9="57.79276"></scales>
<clustering>
<clus scale="   57.793">  1  9  2 -1</clus>
<clus scale="   90.384">  5  6 -1 -1</clus>
<clus scale="   90.925">  7  8 -1 -1</clus>
<clus scale="   92.511">  1  5  2 -1</clus>
<clus scale="   57.793">  1  5  2 -1</clus>
</clustering>
</event>
<event>
 9    1  0.1426358E-005  0.1072568E+03  0.7546771E-02  0.1267784E+00
         21   -1    0    0  501  502  0.00000000000E+00  0.00000000000E+00  0.12659083303E+03  0.12659083303E+03  0.00000000000E+00 0.  1.
          3   -1    0    0  502    0 -0.00000000000E+00 -0.00000000000E+00 -0.12937618003E+03  0.12937618003E+03  0.00000000000E+00 0. -1.
         23    2    1    2    0    0  0.49804058385E+02 -0.61515334548E+01 -0.48256553926E+02  0.11362772712E+03  0.89801335061E+02 0.  0.
         23    2    1    2    0    0 -0.52289470054E+02 -0.18564440310E+02  0.32796002661E+02  0.11445170029E+03  0.94576882940E+02 0.  0.
        -11    1    3    3    0    0  0.28907302654E+02  0.18788481813E+02 -0.67521937320E+02  0.75814584448E+02  0.00000000000E+00 0.  1.
         11    1    3    3    0    0  0.20896755731E+02 -0.24940015268E+02  0.19265383393E+02  0.37813142675E+02  0.00000000000E+00 0. -1.
        -11    1    4    4    0    0  0.33052558928E+01 -0.45873401481E+02  0.24039269966E+02  0.51895858992E+02  0.00000000000E+00 0.  1.
         11    1    4    4    0    0 -0.55594725947E+02  0.27308961171E+02  0.87567326954E+01  0.62555841300E+02  0.00000000000E+00 0. -1.
          3    1    1    2  501    0  0.24854116683E+01  0.24715973765E+02  0.12675204259E+02  0.27887585649E+02  0.00000000000E+00 0. -1.
<scales pt_clust_5="13000.00000" pt_clust_6="13000.00000" pt_clust_7="13000.00000" pt_clust_8="13000.00000" pt_clust_9="24.84062"></scales>
<clustering>
<clus scale="   24.841">  1  9  2 -1</clus>
<clus scale="   89.801">  5  6 -1 -1</clus>
<clus scale="   94.577">  7  8 -1 -1</clus>
<clus scale="  103.070">  2  5  1 -1</clus>
<clus scale="   24.841">  1  5  2 -1</clus>
</clustering>
</event>
<event>
 9    1  0.1789204E-005  0.9501199E+02  0.7546771E-02  0.1291443E+00
         -1   -1    0    0    0  501 -0.00000000000E+00  0.00000000000E+00  0.16612570653E+03  0.16612570653E+03  0.00000000000E+00 0.  1.
         21   -1    0    0  501  502  0.00000000000E+00 -0.00000000000E+00 -0.33582552560E+03  0.33582552560E+03  0.00000000000E+00 0. -1.
         23    2    1    2    0    0 -0.17496541616E+02 -0.24322885087E+02  0.12000376248E+03  0.15359467582E+03  0.91064206597E+02 0.  0.
         23    2    1    2    0    0 -0.89825433541E+01 -0.20540389574E+02 -0.28031786110E+03  0.29542313490E+03  0.90521443278E+02 0.  0.
        -11    1    4    4    0    0  0.23918117262E+02  0.23678107254E+02 -0.15349800570E+03  0.15714441400E+03  0.00000000000E+00 0.  1.
         11    1    4    4    0    0 -0.32900660616E+02 -0.44218496828E+02 -0.12681985539E+03  0.13827872090E+03  0.00000000000E+00 0. -1.
        -13    1    3    3    0    0 -0.48458309535E+02 -0.71999930822E+01  0.10359280162E+03  0.11459282792E+03  0.00000000000E+00 0.  1.
         13    1    3    3    0    0  0.30961767920E+02 -0.17122892005E+02  0.16410960866E+02  0.39001847903E+02  0.00000000000E+00 0. -1.
         -1    1    1    2    0  502  0.26479084970E+02  0.44863274661E+02 -0.93857204636E+01  0.52933421416E+02  0.00000000000E+00 0.  1.
<scales pt_clust_5="13000.00000" pt_clust_6="13000.00000" pt_clust_7="13000.00000" pt_clust_8="13000.00000" pt_clust_9="52.09470"></scales>
<clustering>
<clus scale="   52.095">  2  9  1 -1</clus>
<clus scale="   90.521">  5  6 -1 -1</clus>
<clus scale="   91.064">  7  8 -1 -1</clus>
<clus scale="   94.492">  2  5  1 -1</clus>
<clus scale="   52.095">  2  5  1 -1</clus>
</clustering>
</event>
<event>
 9    1  0.1426358E-005  0.1971771E+03  0.7546771E-02  0.1152387E+00
          2   -1    0    0  502    0 -0.00000000000E+00  0.00000000000E+00  0.25063660373E+03  0.25063660373E+03  0.00000000000E+00 0. -1.
         21   -1    0    0  501  502  0.00000000000E+00 -0.00000000000E+00 -0.35231424257E+03  0.35231424257E+03  0.00000000000E+00 0.  1.
         23    2    1    2    0    0 -0.12872809421E+03  0.13931052318E+03  0.12075580226E+03  0.24249159841E+03  0.90784731151E+02 0.  0.
         23    2    1    2    0    0  0.14042678477E+03 -0.30329487839E+02 -0.15973820674E+03  0.23418804040E+03  0.93210427873E+02 0.  0.
        -11    1    4    4    0    0  0.26573239303E+02  0.34163368082E+01 -0.95479668506E+02  0.99167411494E+02  0.00000000000E+00 0.  1.
         11    1    4    4    0    0  0.11385354546E+03 -0.33745824648E+02 -0.64258538229E+02  0.13502062891E+03  0.00000000000E+00 0. -1.
        -13    1    3    3    0    0 -0.41290368943E+02  0.74425144258E+02  0.75886078692E+01  0.85449304471E+02  0.00000000000E+00 0.  1.
         13    1    3    3    0    0 -0.87437725271E+02  0.64885378926E+02  0.11316719439E+03  0.15704229394E+03  0.00000000000E+00 0. -1.
          2    1    1    2  501    0 -0.11698690552E+02 -0.10898103534E+03 -0.62695234369E+02  0.12627120748E+03  0.00000000000E+00 0. -1.
<scales pt_clust_5="13000.00000" pt_clust_6="13000.00000" pt_clust_7="13000.00000" pt_clust_8="13000.00000" pt_clust_9="109.60714"></scales>
<clustering>
<clus scale="   90.785">  7  8 -1 -1</clus>
<clus scale="   93.210">  5  6 -1 -1</clus>
<clus scale="  109.607">  2  9  1 -1</clus>
<clus scale="  196.042">  1  7  2 -1</clus>
<clus scale="  109.607">  2  5  1 -1</clus>
</clustering>
</event>
<event>
 9    1  0.1426358E-005  0.1122227E+03  0.7546771E-02  0.1257463E+00
          1   -1    0    0  502    0 -0.00000000000E+00  0.00000000000E+00  0.57291694956E+03  0.57291694956E+03  0.00000000000E+00 0. -1.
         21   -1    0    0  501  502  0.00000000000E+00 -0.00000000000E+00 -0.29802243408E+02  0.29802243408E+02  0.00000000000E+00 0.  1.
         23    2    1    2    0    0  0.57236892374E-02  0.69105852819E+02  0.21916818894E+03  0.24696827883E+03  0.90460028637E+02 0.  0.
         23    2    1    2    0    0 -0.22507723875E+02 -0.54242833759E+02  0.19377283459E+03  0.22281319565E+03  0.92999602594E+02 0.  0.
        -11    1    3    3    0    0  0.32983467252E+02  0.57743289101E+02  0.82737677784E+02  0.10614951659E+03  0.00000000000E+00 0.  1.
         11    1    3    3    0    0 -0.32977743563E+02  0.11362563718E+02  0.13643051115E+03  0.14081876224E+03  0.00000000000E+00 0. -1.
        -13    1    4    4    0    0  0.30896410707E+02 -0.40161232507E+02  0.12309183911E+03  0.13311316105E+03  0.00000000000E+00 0.  1.
         13    1    4    4    0    0 -0.53404134582E+02 -0.14081601252E+02  0.70680995488E+02  0.89700034601E+02  0.00000000000E+00 0. -1.
          1    1    1    2  501    0  0.22502000186E+02 -0.14863019060E+02  0.13017368262E+03  0.13293771848E+03  0.00000000000E+00 0. -1.
<scales pt_clust_5="13000.00000" pt_clust_6="13000.00000" pt_clust_7="13000.00000" pt_clust_8="13000.00000" pt_clust_9="26.96757"></scales>
<clustering>
<clus scale="   26.968">  2  9  1 -1</clus>
<clus scale="   90.460">  5  6 -1 -1</clus>
<clus scale="   93.000">  7  8 -1 -1</clus>
<clus scale="  110.127">  1  5  2 -1</clus>
<clus scale="   26.968">  2  5  1 -1</clus>
</clustering>
</event>
<event>
 9    1  0.1426358E-005  0.9772526E+02  0.7546771E-02  0.1285348E+00
         21   -1    0    0  501  502  0.00000000000E+00  0.00000000000E+00  0.95399290870E+02  0.95399290870E+02  0.00000000000E+00 0.  1.
         -1   -1    0    0    0  501 -0.00000000000E+00 -0.00000000000E+00 -0.13872187260E+03  0.13872187260E+03  0.00000000000E+00 0.  1.
         23    2    1    2    0    0 -0.28113766531E+02 -0.92267241668E+01 -0.44257629421E+02  0.10583268503E+03  0.91467497788E+02 0.  0.
         23    2    1    2    0    0  0.41574961581E+02 -0.12649106539E+02 -0.56660579129E+01  0.10176810257E+03  0.91848599126E+02 0.  0.
        -11    1    4    4    0    0  0.51307866360E+02  0.11623218620E+02  0.27636244636E+02  0.59425233521E+02  0.00000000000E+00 0.  1.
         11    1    4    4    0    0 -0.97329047783E+01 -0.24272325159E+02 -0.33302302549E+02  0.42342869047E+02  0.00000000000E+00 0. -1.
        -11    1    3    3    0    0 -0.49785971195E+02  0.23655096028E+02 -0.35270985099E+02  0.65438894290E+02  0.00000000000E+00 0.  1.
         11    1    3    3    0    0  0.21672204665E+02 -0.32881820195E+02 -0.89866443219E+01  0.40393790742E+02  0.00000000000E+00 0. -1.
         -1    1    1    2    0  502 -0.13461195051E+02  0.21875830706E+02  0.66011056015E+01  0.26520375873E+02  0.00000000000E+00 0.  1.
<scales pt_clust_5="13000.00000" pt_clust_6="13000.00000" pt_clust_7="13000.00000" pt_clust_8="13000.00000" pt_clust_9="25.68571"></scales>
<clustering>
<clus scale="   25.686">  1  9  2 -1</clus>
<clus scale="   91.467">  7  8 -1 -1</clus>
<clus scale="   91.849">  5  6 -1 -1</clus>
<clus scale="   97.367">  2  7  1 -1</clus>
<clus scale="   25.686">  1  5  2 -1</clus>
</clustering>
</event>
<event>
 9    1  0.1426358E-005  0.1536511E+03  0.7546771E-02  0.1197184E+00
         21   -1    0    0  501  502  0.00000000000E+00  0.00000000000E+00  0.24055747127E+03  0.24055747127E+03  0.00000000000E+00 0. -1.
          1   -1    0    0  502    0 -0.00000000000E+00 -0.00000000000E+00 -0.40071845290E+03  0.40071845290E+03  0.00000000000E+00 0. -1.
         23    2    1    2    0    0  0.10163944279E+03  0.96750052727E+02 -0.23420220958E+03  0.28789523115E+03  0.91333674583E+02 0.  0.
         23    2    1    2    0    0 -0.63462775345E+02 -0.67385635584E+02 -0.10340156510E+03  0.16951750546E+03  0.97344508093E+02 0.  0.
        -11    1    3    3    0    0  0.72566190238E+02  0.30610296527E+02 -0.59077714475E+02  0.98453128780E+02  0.00000000000E+00 0.  1.
         11    1    3    3    0    0  0.29073252554E+02  0.66139756200E+02 -0.17512449511E+03  0.18944210237E+03  0.00000000000E+00 0. -1.
        -13    1    4    4    0    0  0.19241877685E+02 -0.39680708336E+02 -0.18584812610E+02  0.47856073080E+02  0.00000000000E+00 0.  1.
         13    1    4    4    0    0 -0.82704653030E+02 -0.27704927248E+02 -0.84816752491E+02  0.12166143238E+03  0.00000000000E+00 0. -1.
          1    1    1    2  501    0 -0.38176667447E+02 -0.29364417143E+02  0.17744279306E+03  0.18386318756E+03  0.00000000000E+00 0. -1.
<scales pt_clust_5="13000.00000" pt_clust_6="13000.00000" pt_clust_7="13000.00000" pt_clust_8="13000.00000" pt_clust_9="48.16354"></scales>
<clustering>
<clus scale="   48.164">  1  9  2 -1</clus>
<clus scale="   91.334">  5  6 -1 -1</clus>
<clus scale="   97.345">  7  8 -1 -1</clus>
<clus scale="  149.915">  2  5  1 -1</clus>
<clus scale="   48.164">  1  5  2 -1</clus>
</clustering>
</event>
<event>
 9    1  0.1426358E-005  0.1278504E+03  0.7546771E-02  0.1231014E+00
          1   -1    0    0  502    0 -0.00000000000E+00  0.00000000000E+00  0.78963644598E+03  0.78963644598E+03  0.00000000000E+00 0. -1.
         21   -1    0    0  501  502  0.00000000000E+00 -0.00000000000E+00 -0.35331125824E+02  0.35331125824E+02  0.00000000000E+00 0.  1.
         23    2    1    2    0    0 -0.68933392953E+02  0.63292125596E+02  0.40388289793E+03  0.42461501799E+03  0.91754086776E+02 0.  0.
         23    2    1    2    0    0  0.15692152626E+02 -0.93130458795E+02  0.26289342914E+03  0.29364603840E+03  0.90529082481E+02 0.  0.
        -13    1    3    3    0    0 -0.21572651666E+02  0.73672888407E+02  0.18255887105E+03  0.19804245804E+03  0.00000000000E+00 0.  1.
         13    1    3    3    0    0 -0.47360741287E+02 -0.10380762811E+02  0.22132402688E+03  0.22657255995E+03  0.00000000000E+00 0. -1.
        -13    1    4    4    0    0 -0.35211090246E+01 -0.10316364475E+03  0.24383306981E+03  0.26478236675E+03  0.00000000000E+00 0.  1.
         13    1    4    4    0    0  0.19213261651E+02  0.10033185952E+02  0.19060359322E+02  0.28863671650E+02  0.00000000000E+00 0. -1.
          1    1    1    2  501    0  0.53241240327E+02  0.29838333199E+02  0.87528993094E+02  0.10670651541E+03  0.00000000000E+00 0. -1.
<scales pt_clust_5="13000.00000" pt_clust_6="13000.00000" pt_clust_7="13000.00000" pt_clust_8="13000.00000" pt_clust_9="61.03242"></scales>
<clustering>
<clus scale="   61.032">  2  9  1 -1</clus>
<clus scale="   90.529">  7  8 -1 -1</clus>
<clus scale="   91.754">  5  6 -1 -1</clus>
<clus scale="  126.974">  2  7  1 -1</clus>
<clus scale="   61.032">  2  5  1 -1</clus>
</clustering>
</event>
<event>
 9    1  0.1426358E-005  0.2772011E+03  0.7546771E-02  0.1132508E+00
          1   -1    0    0  502    0 -0.00000000000E+00  0.00000000000E+00  0.70307260105E+03  0.70307260105E+03  0.00000000000E+00 0. -1.
         21   -1    0    0  501  502  0.00000000000E+00 -0.00000000000E+00 -0.45809257748E+03  0.45809257748E+03  0.00000000000E+00 0. -1.
         23    2    1    2    0    0 -0.46317886379E+02  0.60178140848E+02  0.21773731599E+03  0.24565162358E+03  0.84666558656E+02 0.  0.
         23    2    1    2    0    0  0.19960391377E+03  0.15619966376E+03  0.38568657717E+03  0.46964589726E+03  0.87023420147E+02 0.  0.
        -11    1    3    3    0    0  0.87264210855E+01  0.46031708599E+02  0.15044086935E+03  0.15756752138E+03  0.00000000000E+00 0.  1.
         11    1    3    3    0    0 -0.55044307464E+02  0.14146432250E+02  0.67296446645E+02  0.88084102201E+02  0.00000000000E+00 0. -1.
        -13    1    4    4    0    0  0.98342309871E+02  0.24275044006E+02  0.13401875329E+03  0.16799260074E+03  0.00000000000E+00 0.  1.
         13    1    4    4    0    0  0.10126160390E+03  0.13192461975E+03  0.25166782389E+03  0.30165329652E+03  0.00000000000E+00 0. -1.
          1    1    1    2  501    0 -0.15328602739E+03 -0.21637780461E+03 -0.35844386960E+03  0.44586765769E+03  0.00000000000E+00 0. -1.
<scales pt_clust_5="13000.00000" pt_clust_6="13000.00000" pt_clust_7="13000.00000" pt_clust_8="13000.00000" pt_clust_9="263.18692"></scales>
<clustering>
<clus scale="   84.667">  5  6 -1 -1</clus>
<clus scale="   87.023">  7  8 -1 -1</clus>
<clus scale="  113.733">  1  5  2 -1</clus>
<clus scale="  263.187">  2  9  1 -1</clus>
<clus scale="  263.187">  2  5  1 -1</clus>
</clustering>
</event>
<event>
 9    1  0.1426358E-005  0.1054330E+03  0.7546771E-02  0.1269308E+00
         21   -1    0    0  501  502  0.00000000000E+00  0.00000000000E+00  0.10499491711E+03  0.10499491711E+03  0.00000000000E+00 0.  1.
          1   -1    0    0  502    0 -0.00000000000E+00 -0.00000000000E+00 -0.20698086126E+03  0.20698086126E+03  0.00000000000E+00 0. -1.
         23    2    1    2    0    0 -0.32625771029E+01  0.49424443176E+02 -0.13008062210E+03  0.16649457573E+03  0.91356748555E+02 0.  0.
         23    2    1    2    0    0  0.29578017228E+02 -0.61322101175E+02  0.22485851847E+02  0.11606155639E+03  0.91265613151E+02 0.  0.
        -11    1    4    4    0    0 -0.21938621527E+01 -0.30100505198E+02 -0.33123550694E+02  0.44810970252E+02  0.00000000000E+00 0. -1.
         11    1    4    4    0    0  0.31771879381E+02 -0.31221595977E+02  0.55609402541E+02  0.71250586143E+02  0.00000000000E+00 0.  1.
        -13    1    3    3    0    0 -0.34488876705E+02  0.11760169204E+02 -0.10575299888E+03  0.11185473154E+03  0.00000000000E+00 0. -1.
         13    1    3    3    0    0  0.31226299602E+02  0.37664273972E+02 -0.24327623223E+02  0.54639844183E+02  0.00000000000E+00 0.  1.
          1    1    1    2  501    0 -0.26315440125E+02  0.11897657999E+02  0.56088261034E+01  0.29419646244E+02  0.00000000000E+00 0. -1.
<scales pt_clust_5="13000.00000" pt_clust_6="13000.00000" pt_clust_7="13000.00000" pt_clust_8="13000.00000" pt_clust_9="28.88004"></scales>
<clustering>
<clus scale="   28.880">  1  9  2 -1</clus>
<clus scale="   91.266">  5  6 -1 -1</clus>
<clus scale="   91.357">  7  8 -1 -1</clus>
<clus scale="  105.354">  1  5  2 -1</clus>
<clus scale="   28.880">  1  5  2 -1</clus>
</clustering>
</event>
<event>
 9    1  0.1426358E-005  0.1254942E+03  0.7546771E-02  0.1234586E+00
         21   -1    0    0  501  502  0.00000000000E+00  0.00000000000E+00  0.15947533975E+03  0.15947533975E+03  0.00000000000E+00 0. -1.
         -1   -1    0    0    0  501 -0.00000000000E+00 -0.00000000000E+00 -0.26211010116E+03  0.26211010116E+03  0.00000000000E+00 0.  1.
         23    2    1    2    0    0 -0.77199522261E+02 -0.37836012846E+02 -0.17059545721E+03  0.21094335952E+03  0.89459268934E+02 0.  0.
         23    2    1    2    0    0  0.10284833869E+03 -0.30965836920E+01  0.82817676226E+02  0.16010428255E+03  0.90483391813E+02 0.  0.
        -11    1    4    4    0    0  0.28776378259E+02 -0.43662420779E+02  0.26776605347E+02  0.58749242786E+02  0.00000000000E+00 0.  1.
         11    1    4    4    0    0  0.74071960432E+02  0.40565837087E+02  0.56041070879E+02  0.10135503977E+03  0.00000000000E+00 0. -1.
        -11    1    3    3    0    0 -0.33626946527E+02 -0.78139033495E+01 -0.23833737864E+01  0.34605044269E+02  0.00000000000E+00 0. -1.
         11    1    3    3    0    0 -0.43572575734E+02 -0.30022109496E+02 -0.16821208342E+03  0.17633831525E+03  0.00000000000E+00 0.  1.
         -1    1    1    2    0  502 -0.25648816431E+02  0.40932596538E+02 -0.14856980430E+02  0.50537798836E+02  0.00000000000E+00 0.  1.
<scales pt_clust_5="13000.00000" pt_clust_6="13000.00000" pt_clust_7="13000.00000" pt_clust_8="13000.00000" pt_clust_9="48.30467"></scales>
<clustering>
<clus scale="   48.305">  1  9  2 -1</clus>
<clus scale="   89.459">  7  8 -1 -1</clus>
<clus scale="   90.483">  5  6 -1 -1</clus>
<clus scale="  124.758">  2  7  1 -1</clus>
<clus scale="   48.305">  1  5  2 -1</clus>
</clustering>
</event>
<event>
 9    1  0.1426358E-005  0.1251998E+03  0.7546771E-02  0.1235092E+00
         21   -1    0    0  501  502  0.00000000000E+00  0.00000000000E+00  0.10643916192E+03  0.10643916192E+03  0.00000000000E+00 0. -1.
         -3   -1    0    0    0  501 -0.00000000000E+00 -0.00000000000E+00 -0.30988044135E+03  0.30988044135E+03  0.00000000000E+00 0.  1.
         23    2    1    2    0    0  0.21578482891E+02  0.85031906029E+02 -0.22220833621E+03  0.25611923940E+03  0.92328024684E+02 0.  0.
         23    2    1    2    0    0  0.38248681572E+01 -0.77010798153E+02 -0.11414800385E+02  0.11994352696E+03  0.91163914702E+02 0.  0.
        -11    1    4    4    0    0  0.28191159915E+02 -0.22711302381E+01 -0.27783429582E+02  0.39646166135E+02  0.00000000000E+00 0.  1.
         11    1    4    4    0    0 -0.24366291758E+02 -0.74739667915E+02  0.16368629197E+02  0.80297360827E+02  0.00000000000E+00 0. -1.
        -13    1    3    3    0    0  0.33080112837E+02  0.28017859718E+02 -0.17761554340E+03  0.18282936193E+03  0.00000000000E+00 0.  1.
         13    1    3    3    0    0 -0.11501629946E+02  0.57014046311E+02 -0.44592792814E+02  0.73289877466E+02  0.00000000000E+00 0. -1.
         -3    1    1    2    0  502 -0.25403351048E+02 -0.80211078761E+01  0.30181857162E+02  0.40256836907E+02  0.00000000000E+00 0.  1.
<scales pt_clust_5="13000.00000" pt_clust_6="13000.00000" pt_clust_7="13000.00000" pt_clust_8="13000.00000" pt_clust_9="26.63960"></scales>
<clustering>
<clus scale="   26.640">  1  9  2 -1</clus>
<clus scale="   91.164">  5  6 -1 -1</clus>
<clus scale="   92.328">  7  8 -1 -1</clus>
<clus scale="  124.344">  1  5  2 -1</clus>
<clus scale="   26.640">  1  5  2 -1</clus>
</clustering>
</event>
<event>
 9    1  0.1426358E-005  0.9516015E+02  0.7546771E-02  0.1291519E+00
         -3   -1    0    0    0  501 -0.00000000000E+00  0.00000000000E+00  0.35219651817E+03  0.35219651817E+03  0.00000000000E+00 0.  1.
         21   -1    0    0  501  502  0.00000000000E+00 -0.00000000000E+00 -0.11240251356E+03  0.11240251356E+03  0.00000000000E+00 0.  1.
         23    2    1    2    0    0 -0.92518263536E+01 -0.52221496639E+02  0.21418798075E+03  0.23764519497E+03  0.88238691003E+02 0.  0.
         23    2    1    2    0    0 -0.17570791907E+00  0.20901713988E+01  0.10158231346E+03  0.13544195364E+03  0.89560910600E+02 0.  0.
        -11    1    4    4    0    0  0.35493043675E+02  0.23422495325E+02  0.27943506686E+02  0.50884270678E+02  0.00000000000E+00 0. -1.
         11    1    4    4    0    0 -0.35668751594E+02 -0.21332323926E+02  0.73638806773E+02  0.84557682958E+02  0.00000000000E+00 0.  1.
        -13    1    3    3    0    0  0.26054109986E+02 -0.35701936956E+02  0.18140808282E+03  0.18671458824E+03  0.00000000000E+00 0.  1.
         13    1    3    3    0    0 -0.35305936340E+02 -0.16519559683E+02  0.32779897931E+02  0.50930606725E+02  0.00000000000E+00 0. -1.
         -3    1    1    2    0  502  0.94275342726E+01  0.50131325240E+02 -0.75976289602E+02  0.91511883133E+02  0.00000000000E+00 0.  1.
<scales pt_clust_5="13000.00000" pt_clust_6="13000.00000" pt_clust_7="13000.00000" pt_clust_8="13000.00000" pt_clust_9="51.01008"></scales>
<clustering>
<clus scale="   51.010">  2  9  1 -1</clus>
<clus scale="   88.239">  7  8 -1 -1</clus>
<clus scale="   89.561">  5  6 -1 -1</clus>
<clus scale="   93.917">  1  7  2 -1</clus>
<clus scale="   51.010">  2  5  1 -1</clus>
</clustering>
</event>
<event>
 9    1  0.1426358E-005  0.9590052E+02  0.7546771E-02  0.1289795E+00
          2   -1    0    0  502    0 -0.00000000000E+00  0.00000000000E+00  0.72238372715E+03  0.72238372715E+03  0.00000000000E+00 0. -1.
         21   -1    0    0  501  502  0.00000000000E+00 -0.00000000000E+00 -0.26152997780E+02  0.26152997780E+02  0.00000000000E+00 0. -1.
         23    2    1    2    0    0  0.12814722336E+02  0.56577066888E+01  0.43244259155E+03  0.44252406813E+03  0.92869419828E+02 0.  0.
         23    2    1    2    0    0 -0.29626302276E+02  0.97885985628E+01  0.26523941203E+03  0.28313638606E+03  0.94025171990E+02 0.  0.
        -11    1    3    3    0    0 -0.32946603823E+02 -0.22641598603E+02  0.17254342036E+03  0.17711395372E+03  0.00000000000E+00 0. -1.
         11    1    3    3    0    0  0.45761326160E+02  0.28299305292E+02  0.25989917119E+03  0.26541011442E+03  0.00000000000E+00 0.  1.
        -13    1    4    4    0    0  0.33592071249E+02  0.17732908340E-03  0.69183393383E+02  0.76907536502E+02  0.00000000000E+00 0.  1.
         13    1    4    4    0    0 -0.63218373526E+02  0.97884212337E+01  0.19605601865E+03  0.20622884956E+03  0.00000000000E+00 0. -1.
          2    1    1    2  501    0  0.16811579940E+02 -0.15446305252E+02 -0.14512742097E+01  0.22876270737E+02  0.00000000000E+00 0. -1.
<scales pt_clust_5="13000.00000" pt_clust_6="13000.00000" pt_clust_7="13000.00000" pt_clust_8="13000.00000" pt_clust_9="22.83019"></scales>
<clustering>
<clus scale="   22.830">  2  9  1 -1</clus>
<clus scale="   92.869">  5  6 -1 -1</clus>
<clus scale="   94.025">  7  8 -1 -1</clus>
<clus scale="   94.768">  1  5  2 -1</clus>
<clus scale="   22.830">  2  5  1 -1</clus>
</clustering>
</event>
<event>
 9    1  0.1426358E-005  0.1426390E+03  0.7546771E-02  0.1222931E+00
          4   -1    0    0  502    0 -0.00000000000E+00  0.00000000000E+00  0.19615385196E+03  0.19615385196E+03  0.00000000000E+00 0. -1.
         21   -1    0    0  501  502  0.00000000000E+00 -0.00000000000E+00 -0.50818459691E+03  0.50818459691E+03  0.00000000000E+00 0.  1.
         23    2    1    2    0    0  0.29797689056E+02  0.54669773556E+02  0.81360488538E+02  0.13532271699E+03  0.88408270111E+02 0.  0.
         23    2    1    2    0    0 -0.71785392846E+02  0.80930751856E+02 -0.40304404920E+03  0.42673556245E+03  0.89195321853E+02 0.  0.
        -11    1    4    4    0    0 -0.15636960898E+02  0.78866494479E+02 -0.28288473248E+03  0.29408877974E+03  0.00000000000E+00 0.  1.
         11    1    4    4    0    0 -0.56148431948E+02  0.20642573768E+01 -0.12015931672E+03  0.13264678271E+03  0.00000000000E+00 0. -1.
        -13    1    3    3    0    0 -0.14355913183E+02 -0.14579174724E+02  0.11015636393E+01  0.20490437316E+02  0.00000000000E+00 0.  1.
         13    1    3    3    0    0  0.44153602239E+02  0.69248948281E+02  0.80258924899E+02  0.11483227967E+03  0.00000000000E+00 0. -1.
          4    1    1    2  501    0  0.41987703790E+02 -0.13560052541E+03  0.96528157185E+01  0.14228016943E+03  0.00000000000E+00 0. -1.
<scales pt_clust_5="13000.00000" pt_clust_6="13000.00000" pt_clust_7="13000.00000" pt_clust_8="13000.00000" pt_clust_9="111.31078"></scales>
<clustering>
<clus scale="   88.408">  7  8 -1 -1</clus>
<clus scale="   89.195">  5  6 -1 -1</clus>
<clus scale="  108.133">  1  7  2 -1</clus>
<clus scale="  111.311">  2  9  1 -1</clus>
<clus scale="  111.311">  2  5  1 -1</clus>
</clustering>
</event>
<event>
 9    1  0.1426358E-005  0.1018812E+03  0.7546771E-02  0.1278679E+00
          1   -1    0    0  502    0 -0.00000000000E+00  0.00000000000E+00  0.50602094699E+03  0.50602094699E+03  0.00000000000E+00 0. -1.
         21   -1    0    0  501  502  0.00000000000E+00 -0.00000000000E+00 -0.42628012289E+02  0.42628012289E+02  0.00000000000E+00 0. -1.
         23    2    1    2    0    0  0.14214146824E+02 -0.69079195748E+01  0.29030450513E+03  0.30549662317E+03  0.93817481053E+02 0.  0.
         23    2    1    2    0    0 -0.49041927363E+02  0.43782797815E+02  0.10445770885E+03  0.15781238785E+03  0.98342731275E+02 0.  0.
        -11    1    3    3    0    0 -0.22429255285E+02  0.33510687609E+02  0.11236735063E+03  0.11938366373E+03  0.00000000000E+00 0.  1.
         11    1    3    3    0    0  0.36643402108E+02 -0.40418607184E+02  0.17793715449E+03  0.18611295944E+03  0.00000000000E+00 0. -1.
        -11    1    4    4    0    0 -0.13227236670E+02 -0.31560492119E+02  0.38141051071E+02  0.51242211404E+02  0.00000000000E+00 0.  1.
         11    1    4    4    0    0 -0.35814690693E+02  0.75343289934E+02  0.66316657782E+02  0.10657017644E+03  0.00000000000E+00 0. -1.
          1    1    1    2  501    0  0.34827780540E+02 -0.36874878240E+02  0.68630720727E+02  0.85339948266E+02  0.00000000000E+00 0. -1.
<scales pt_clust_5="13000.00000" pt_clust_6="13000.00000" pt_clust_7="13000.00000" pt_clust_8="13000.00000" pt_clust_9="50.72210"></scales>
<clustering>
<clus scale="   50.722">  2  9  1 -1</clus>
<clus scale="   93.817">  5  6 -1 -1</clus>
<clus scale="   97.520">  1  5  2 -1</clus>
<clus scale="   98.343">  7  8 -1 -1</clus>
<clus scale="   50.722">  2  5  1 -1</clus>
</clustering>
</event>
<event>
 9    1  0.1426358E-005  0.1351027E+03  0.7546771E-02  0.1220156E+00
          1   -1    0    0  502    0 -0.00000000000E+00  0.00000000000E+00  0.16446828925E+03  0.16446828925E+03  0.00000000000E+00 0. -1.
         21   -1    0    0  501  502  0.00000000000E+00 -0.00000000000E+00 -0.23045476713E+03  0.23045476713E+03  0.00000000000E+00 0. -1.
         23    2    1    2    0    0 -0.78304580027E+02 -0.71614953330E+02  0.78450873277E+02  0.16055438859E+03  0.91448692633E+02 0.  0.
         23    2    1    2    0    0  0.61104512550E+02  0.59209176750E+02 -0.44749457457E+02  0.13244996605E+03  0.91109777177E+02 0.  0.
        -11    1    3    3    0    0 -0.20878043167E+02 -0.54522642156E+01 -0.19539811251E+02  0.29110549554E+02  0.00000000000E+00 0.  1.
         11    1    3    3    0    0 -0.57426536859E+02 -0.66162689114E+02  0.97990684528E+02  0.13144383904E+03  0.00000000000E+00 0. -1.
        -11    1    4    4    0    0  0.60391978740E+02 -0.42870965872E+01 -0.28426893350E+02  0.66885413647E+02  0.00000000000E+00 0.  1.
         11    1    4    4    0    0  0.71253381027E+00  0.63496273337E+02 -0.16322564107E+02  0.65564552398E+02  0.00000000000E+00 0. -1.
          1    1    1    2  501    0  0.17200067477E+02  0.12405776580E+02 -0.99687893703E+02  0.10191870174E+03  0.00000000000E+00 0. -1.
<scales pt_clust_5="13000.00000" pt_clust_6="13000.00000" pt_clust_7="13000.00000" pt_clust_8="13000.00000" pt_clust_9="21.20721"></scales>
<clustering>
<clus scale="   21.207">  2  9  1 -1</clus>
<clus scale="   91.110">  7  8 -1 -1</clus>
<clus scale="   91.449">  5  6 -1 -1</clus>
<clus scale="  134.874">  2  7  1 -1</clus>
<clus scale="   21.207">  2  5  1 -1</clus>
</clustering>
</event>
<event>
 9    1  0.1426358E-005  0.1811164E+03  0.7546771E-02  0.1168319E+00
         21   -1    0    0  501  502  0.00000000000E+00  0.00000000000E+00  0.57934055272E+02  0.57934055272E+02  0.00000000000E+00 0.  1.
          1   -1    0    0  502    0 -0.00000000000E+00 -0.00000000000E+00 -0.11344132039E+04  0.11344132039E+04  0.00000000000E+00 0. -1.
         23    2    1    2    0    0 -0.12967135941E+03 -0.10730625112E+03 -0.66084254070E+03  0.68797136326E+03  0.90897965196E+02 0.  0.
         23    2    1    2    0    0  0.20859276400E+02  0.13669205792E+03 -0.26826631685E+03  0.31884531153E+03  0.10283816324E+03 0.  0.
        -11    1    3    3    0    0 -0.22508716374E+02  0.14108430157E+02 -0.58680440446E+02  0.64413385295E+02  0.00000000000E+00 0. -1.
         11    1    3    3    0    0 -0.10716264304E+03 -0.12141468128E+03 -0.60216210026E+03  0.62355797796E+03  0.00000000000E+00 0.  1.
        -11    1    4    4    0    0  0.22105682142E+02 -0.23607410932E+01 -0.90281870884E+02  0.92978763660E+02  0.00000000000E+00 0. -1.
         11    1    4    4    0    0 -0.12464057416E+01  0.13905279902E+03 -0.17798444597E+03  0.22586654787E+03  0.00000000000E+00 0.  1.
          1    1    1    2  501    0  0.10881208301E+03 -0.29385806801E+02 -0.14737029107E+03  0.18553058438E+03  0.00000000000E+00 0. -1.
<scales pt_clust_5="13000.00000" pt_clust_6="13000.00000" pt_clust_7="13000.00000" pt_clust_8="13000.00000" pt_clust_9="112.71023"></scales>
<clustering>
<clus scale="   90.898">  5  6 -1 -1</clus>
<clus scale="  102.838">  7  8 -1 -1</clus>
<clus scale="  112.710">  1  9  2 -1</clus>
<clus scale="  174.614">  2  5  1 -1</clus>
<clus scale="  112.710">  1  5  2 -1</clus>
</clustering>
</event>
<event>
 9    1  0.1426358E-005  0.1465213E+03  0.7546771E-02  0.1223978E+00
         21   -1    0    0  501  502  0.00000000000E+00  0.00000000000E+00  0.52711028036E+02  0.52711028036E+02  0.00000000000E+00 0.  1.
         -4   -1    0    0    0  501 -0.00000000000E+00 -0.00000000000E+00 -0.93311134258E+03  0.93311134258E+03  0.00000000000E+00 0.  1.
         23    2    1    2    0    0 -0.29881171850E+02  0.13810369910E+02 -0.25693987971E+03  0.27485509524E+03  0.91889122584E+02 0.  0.
         23    2    1    2    0    0 -0.42509234280E+02  0.81720156242E+02 -0.56141092379E+03  0.57599841175E+03  0.90037359203E+02 0.  0.
        -11    1    4    4    0    0 -0.69936638596E+02  0.68976822024E+02 -0.44616884977E+03  0.45685400064E+03  0.00000000000E+00 0.  1.
         11    1    4    4    0    0  0.27427404317E+02  0.12743334218E+02 -0.11524207402E+03  0.11914441112E+03  0.00000000000E+00 0. -1.
        -13    1    3    3    0    0 -0.43832154833E+02 -0.19643622274E+01 -0.24821061743E+03  0.25205877712E+03  0.00000000000E+00 0.  1.
         13    1    3    3    0    0  0.13950982984E+02  0.15774732138E+02 -0.87292622760E+01  0.22796318126E+02  0.00000000000E+00 0. -1.
         -4    1    1    2    0  502  0.72390406130E+02 -0.95530526153E+02 -0.62049511048E+02  0.13496886362E+03  0.00000000000E+00 0.  1.
<scales pt_clust_5="13000.00000" pt_clust_6="13000.00000" pt_clust_7="13000.00000" pt_clust_8="13000.00000" pt_clust_9="115.59310"></scales>
<clustering>
<clus scale="   90.037">  5  6 -1 -1</clus>
<clus scale="   91.889">  7  8 -1 -1</clus>
<clus scale="   97.607">  2  7  1 -1</clus>
<clus scale="  115.593">  1  9  2 -1</clus>
<clus scale="  115.593">  1  5  2 -1</clus>
</clustering>
</event>
<event>
 9    1  0.1426358E-005  0.1502015E+03  0.7546771E-02  0.1201230E+00
         21   -1    0    0  501  502  0.00000000000E+00  0.00000000000E+00  0.82284559583E+02  0.82284559583E+02  0.00000000000E+00 0.  1.
          1   -1    0    0  502    0 -0.00000000000E+00 -0.00000000000E+00 -0.43938650716E+03  0.43938650716E+03  0.00000000000E+00 0. -1.
         23    2    1    2    0    0 -0.10502852449E+03  0.32220190313E+02 -0.21260042302E+03  0.25633124688E+03  0.91856609119E+02 0.  0.
         23    2    1    2    0    0  0.11838475831E+03 -0.61099902463E+02 -0.16377815951E+03  0.22813746226E+03  0.86459626850E+02 0.  0.
        -11    1    4    4    0    0  0.25148875227E+01 -0.23556223927E+02 -0.71517209506E+02  0.75338778863E+02  0.00000000000E+00 0. -1.
         11    1    4    4    0    0  0.11586987078E+03 -0.37543678536E+02 -0.92260950006E+02  0.15279868340E+03  0.00000000000E+00 0.  1.
        -13    1    3    3    0    0 -0.88759607377E+02 -0.17863190666E+02 -0.13522686250E+03  0.16273802820E+03  0.00000000000E+00 0.  1.
         13    1    3    3    0    0 -0.16268917108E+02  0.50083380979E+02 -0.77373560524E+02  0.93593218677E+02  0.00000000000E+00 0. -1.
          1    1    1    2  501    0 -0.13356233820E+02  0.28879712150E+02  0.19276634956E+02  0.37202357600E+02  0.00000000000E+00 0. -1.
<scales pt_clust_5="13000.00000" pt_clust_6="13000.00000" pt_clust_7="13000.00000" pt_clust_8="13000.00000" pt_clust_9="31.81865"></scales>
<clustering>
<clus scale="   31.819">  1  9  2 -1</clus>
<clus scale="   86.460">  5  6 -1 -1</clus>
<clus scale="   91.857">  7  8 -1 -1</clus>
<clus scale="  146.963">  1  5  2 -1</clus>
<clus scale="   31.819">  1  5  2 -1</clus>
</clustering>
</event>
<event>
 9    1  0.1426358E-005  0.1643161E+03  0.7546771E-02  0.1198771E+00
         21   -1    0    0  501  502  0.00000000000E+00  0.00000000000E+00  0.15977928312E+03  0.15977928312E+03  0.00000000000E+00 0.  1.
          2   -1    0    0  502    0 -0.00000000000E+00 -0.00000000000E+00 -0.65951042223E+03  0.65951042223E+03  0.00000000000E+00 0.  1.
         23    2    1    2    0    0 -0.22009102425E+02  0.41835341204E+02 -0.16613470477E+02  0.11956994774E+03  0.10856504335E+03 0.  0.
         23    2    1    2    0    0 -0.36245413970E+02  0.83838083491E+02 -0.53572955185E+03  0.55154618165E+03  0.94098265085E+02 0.  0.
        -13    1    3    3    0    0 -0.26198574843E+02  0.71266274475E+02  0.13651942989E+02  0.77146761103E+02  0.00000000000E+00 0.  1.
         13    1    3    3    0    0  0.41894724172E+01 -0.29430933271E+02 -0.30265413466E+02  0.42423186639E+02  0.00000000000E+00 0. -1.
        -13    1    4    4    0    0  0.65880844783E+01  0.87818993704E+02 -0.36724836223E+03  0.37765981793E+03  0.00000000000E+00 0.  1.
         13    1    4    4    0    0 -0.42833498448E+02 -0.39809102127E+01 -0.16848118961E+03  0.17388636372E+03  0.00000000000E+00 0. -1.
          2    1    1    2  501    0  0.58254516395E+02 -0.12567342469E+03  0.52611883215E+02  0.14817357595E+03  0.00000000000E+00 0.  1.
<scales pt_clust_5="13000.00000" pt_clust_6="13000.00000" pt_clust_7="13000.00000" pt_clust_8="13000.00000" pt_clust_9="134.70446"></scales>
<clustering>
<clus scale="   94.098">  7  8 -1 -1</clus>
<clus scale="  108.565">  5  6 -1 -1</clus>
<clus scale="  118.410">  2  5  1 -1</clus>
<clus scale="  134.704">  1  9  2 -1</clus>
<clus scale="  134.704">  1  5  2 -1</clus>
</clustering>
</event>
<event>
 9    1  0.1426358E-005  0.1256893E+03  0.7546771E-02  0.1234589E+00
         21   -1    0    0  501  502  0.00000000000E+00  0.00000000000E+00  0.78111755910E+02  0.78111755910E+02  0.00000000000E+00 0.  1.
         -1   -1    0    0    0  501 -0.00000000000E+00 -0.00000000000E+00 -0.46724372843E+03  0.46724372843E+03  0.00000000000E+00 0.  1.
         23    2    1    2    0    0 -0.26739698689E+00  0.77751755471E+02 -0.29406440395E+03  0.31813471952E+03  0.93222417454E+02 0.  0.
         23    2    1    2    0    0  0.34916113559E+02 -0.10027283689E+03 -0.11519206440E+03  0.18125634378E+03  0.91163993210E+02 0.  0.
        -13    1    3    3    0    0 -0.13216027845E+01 -0.20705962673E+02 -0.77644526512E+02  0.80368874705E+02  0.00000000000E+00 0.  1.
         13    1    3    3    0    0  0.10542057976E+01  0.98457718143E+02 -0.21641987744E+03  0.23776584482E+03  0.00000000000E+00 0. -1.
        -13    1    4    4    0    0  0.64765823910E+02 -0.57684213582E+02 -0.83271679029E+02  0.12023415892E+03  0.00000000000E+00 0.  1.
         13    1    4    4    0    0 -0.29849710351E+02 -0.42588623307E+02 -0.31920385367E+02  0.61022184861E+02  0.00000000000E+00 0. -1.
         -1    1    1    2    0  502 -0.34648716572E+02  0.22521081418E+02  0.20124495829E+02  0.45964421031E+02  0.00000000000E+00 0.  1.
<scales pt_clust_5="13000.00000" pt_clust_6="13000.00000" pt_clust_7="13000.00000" pt_clust_8="13000.00000" pt_clust_9="41.32472"></scales>
<clustering>
<clus scale="   41.325">  1  9  2 -1</clus>
<clus scale="   91.164">  7  8 -1 -1</clus>
<clus scale="   93.222">  5  6 -1 -1</clus>
<clus scale="  124.170">  1  7  2 -1</clus>
<clus scale="   41.325">  1  5  2 -1</clus>
</clustering>
</event>
<event>
 9    1  0.1426358E-005  0.9967236E+02  0.7546771E-02  0.1281748E+00
         21   -1    0    0  501  502  0.00000000000E+00  0.00000000000E+00  0.12869576477E+03  0.12869576477E+03  0.00000000000E+00 0. -1.
         -3   -1    0    0    0  501 -0.00000000000E+00 -0.00000000000E+00 -0.13777303213E+03  0.13777303213E+03  0.00000000000E+00 0.  1.
         23    2    1    2    0    0 -0.43344363295E+02  0.31684943317E+01 -0.73660116597E+02  0.12531510328E+03  0.91593062763E+02 0.  0.
         23    2    1    2    0    0  0.26135831562E+02 -0.19553592032E+02  0.32299639586E+02  0.10106865131E+03  0.90034331830E+02 0.  0.
        -11    1    4    4    0    0  0.48138064057E+02 -0.37591586872E+02  0.44231954328E+01  0.61236960020E+02  0.00000000000E+00 0.  1.
         11    1    4    4    0    0 -0.22002232495E+02  0.18037994840E+02  0.27876444153E+02  0.39831691293E+02  0.00000000000E+00 0. -1.
        -11    1    3    3    0    0 -0.49603454211E+02 -0.25769238095E+02 -0.12372161918E+02  0.57250560628E+02  0.00000000000E+00 0. -1.
         11    1    3    3    0    0  0.62590909164E+01  0.28937732427E+02 -0.61287954679E+02  0.68064542648E+02  0.00000000000E+00 0.  1.
         -3    1    1    2    0  502  0.17208531733E+02  0.16385097700E+02  0.32283209652E+02  0.40085042304E+02  0.00000000000E+00 0.  1.
<scales pt_clust_5="13000.00000" pt_clust_6="13000.00000" pt_clust_7="13000.00000" pt_clust_8="13000.00000" pt_clust_9="23.76142"></scales>
<clustering>
<clus scale="   23.761">  1  9  2 -1</clus>
<clus scale="   90.034">  5  6 -1 -1</clus>
<clus scale="   91.593">  7  8 -1 -1</clus>
<clus scale="   98.242">  1  5  2 -1</clus>
<clus scale="   23.761">  1  5  2 -1</clus>
</clustering>
</event>
<event>
 9    1  0.1426358E-005  0.1005141E+03  0.7546771E-02  0.1279412E+00
          2   -1    0    0  502    0 -0.00000000000E+00  0.00000000000E+00  0.39742687973E+03  0.39742687973E+03  0.00000000000E+00 0. -1.
         21   -1    0    0  501  502  0.00000000000E+00 -0.00000000000E+00 -0.12057930235E+03  0.12057930235E+03  0.00000000000E+00 0. -1.
         23    2    1    2    0    0  0.41759947735E+02  0.63872745532E+01  0.28601873053E+03  0.30310161038E+03  0.90990007634E+02 0.  0.
         23    2    1    2    0    0 -0.45541964650E+02  0.15592520439E+02  0.75486065827E+02  0.12735881357E+03  0.90581035670E+02 0.  0.
        -13    1    3    3    0    0  0.62720800530E+02  0.27569193519E+02  0.22491553726E+03  0.23511902975E+03  0.00000000000E+00 0. -1.
         13    1    3    3    0    0 -0.20960852795E+02 -0.21181918966E+02  0.61103193273E+02  0.67982580630E+02  0.00000000000E+00 0.  1.
        -13    1    4    4    0    0 -0.17136425347E+02  0.21000840102E+02 -0.15956585580E+02  0.31453218945E+02  0.00000000000E+00 0.  1.
         13    1    4    4    0    0 -0.28405539304E+02 -0.54083196636E+01  0.91442651407E+02  0.95905594628E+02  0.00000000000E+00 0. -1.
          2    1    1    2  501    0  0.37820169154E+01 -0.21979794992E+02 -0.84657218980E+02  0.87545758123E+02  0.00000000000E+00 0. -1.
<scales pt_clust_5="13000.00000" pt_clust_6="13000.00000" pt_clust_7="13000.00000" pt_clust_8="13000.00000" pt_clust_9="22.30280"></scales>
<clustering>
<clus scale="   22.303">  2  9  1 -1</clus>
<clus scale="   90.581">  7  8 -1 -1</clus>
<clus scale="   90.990">  5  6 -1 -1</clus>
<clus scale="  100.144">  2  7  1 -1</clus>
<clus scale="   22.303">  2  5  1 -1</clus>
</clustering>
</event>
<event>
 9    1  0.1426358E-005  0.1151724E+03  0.7546771E-02  0.1251650E+00
          3   -1    0    0  502    0 -0.00000000000E+00  0.00000000000E+00  0.20129488357E+03  0.20129488357E+03  0.00000000000E+00 0. -1.
         21   -1    0    0  501  502  0.00000000000E+00 -0.00000000000E+00 -0.56012126248E+03  0.56012126248E+03  0.00000000000E+00 0.  1.
         23    2    1    2    0    0 -0.49952336858E+02  0.46399742670E+02  0.17531974275E+03  0.20978040699E+03  0.92858143876E+02 0.  0.
         23    2    1    2    0    0  0.34146015834E+02 -0.61366405341E+02 -0.46460810923E+03  0.47877027435E+03  0.91806831608E+02 0.  0.
        -13    1    3    3    0    0 -0.38843132547E+02 -0.17883362274E+02  0.35826447974E+02  0.55786539296E+02  0.00000000000E+00 0.  1.
         13    1    3    3    0    0 -0.11109204311E+02  0.64283104944E+02  0.13949329477E+03  0.15399386770E+03  0.00000000000E+00 0. -1.
        -13    1    4    4    0    0  0.64767675443E+02 -0.52955160944E+02 -0.34807029096E+03  0.35798327936E+03  0.00000000000E+00 0.  1.
         13    1    4    4    0    0 -0.30621659610E+02 -0.84112443968E+01 -0.11653781827E+03  0.12078699498E+03  0.00000000000E+00 0. -1.
          3    1    1    2  501    0  0.15806321024E+02  0.14966662671E+02 -0.69538012427E+02  0.72865464715E+02  0.00000000000E+00 0. -1.
<scales pt_clust_5="13000.00000" pt_clust_6="13000.00000" pt_clust_7="13000.00000" pt_clust_8="13000.00000" pt_clust_9="21.76788"></scales>
<clustering>
<clus scale="   21.768">  2  9  1 -1</clus>
<clus scale="   91.807">  7  8 -1 -1</clus>
<clus scale="   92.858">  5  6 -1 -1</clus>
<clus scale="  114.327">  2  7  1 -1</clus>
<clus scale="   21.768">  2  5  1 -1</clus>
</clustering>
</event>
<event>
 9    1  0.1426358E-005  0.1482369E+03  0.7546771E-02  0.1202755E+00
          1   -1    0    0  502    0 -0.00000000000E+00  0.00000000000E+00  0.27552234070E+03  0.27552234070E+03  0.00000000000E+00 0. -1.
         21   -1    0    0  501  502  0.00000000000E+00 -0.00000000000E+00 -0.21107703684E+03  0.21107703684E+03  0.00000000000E+00 0.  1.
         23    2    1    2    0    0  0.11353605799E+03 -0.24737378741E+01  0.20321053471E+03  0.25020168549E+03  0.91704995309E+02 0.  0.
         23    2    1    2    0    0 -0.13401765026E+03 -0.21416254024E+01 -0.95112378126E+02  0.18795836144E+03  0.91195745631E+02 0.  0.
        -11    1    4    4    0    0 -0.10325760528E+03 -0.11527373309E+01 -0.11242044700E+03  0.15264933264E+03  0.00000000000E+00 0.  1.
         11    1    4    4    0    0 -0.30760044974E+02 -0.98888807150E+00  0.17308068873E+02  0.35309028796E+02  0.00000000000E+00 0. -1.
        -11    1    3    3    0    0  0.11019076738E+02 -0.33244682816E+02  0.27808750599E+02  0.44720863113E+02  0.00000000000E+00 0.  1.
         11    1    3    3    0    0  0.10251698125E+03  0.30770944942E+02  0.17540178411E+03  0.20548082238E+03  0.00000000000E+00 0. -1.
          1    1    1    2  501    0  0.20481592268E+02  0.46153632765E+01 -0.43652852721E+02  0.48439330618E+02  0.00000000000E+00 0. -1.
<scales pt_clust_5="13000.00000" pt_clust_6="13000.00000" pt_clust_7="13000.00000" pt_clust_8="13000.00000" pt_clust_9="20.99517"></scales>
<clustering>
<clus scale="   20.995">  2  9  1 -1</clus>
<clus scale="   91.196">  5  6 -1 -1</clus>
<clus scale="   91.705">  7  8 -1 -1</clus>
<clus scale="  147.922">  2  5  1 -1</clus>
<clus scale="   20.995">  2  5  1 -1</clus>
</clustering>
</event>
<event>
 9    1  0.1426358E-005  0.1165755E+03  0.7546771E-02  0.1249381E+00
         -2   -1    0    0    0  501 -0.00000000000E+00  0.00000000000E+00  0.59300922362E+02  0.59300922362E+02  0.00000000000E+00 0.  1.
         21   -1    0    0  501  502  0.00000000000E+00 -0.00000000000E+00 -0.41379422396E+03  0.41379422396E+03  0.00000000000E+00 0.  1.
         23    2    1    2    0    0  0.46340376406E+02 -0.32254563644E+02 -0.86022322043E+02  0.13709127518E+03  0.90589130026E+02 0.  0.
         23    2    1    2    0    0 -0.88062687982E+02  0.25627362867E+02 -0.10484753926E+03  0.16701481444E+03  0.92136545465E+02 0.  0.
        -11    1    4    4    0    0 -0.68471794931E+02 -0.15856583034E+00 -0.13092186431E+02  0.69712389070E+02  0.00000000000E+00 0.  1.
         11    1    4    4    0    0 -0.19590893050E+02  0.25785928697E+02 -0.91755352832E+02  0.97302425369E+02  0.00000000000E+00 0. -1.
        -13    1    3    3    0    0  0.52562954420E+02 -0.57679590123E+02 -0.76381802190E+02  0.10919697340E+03  0.00000000000E+00 0. -1.
         13    1    3    3    0    0 -0.62225780142E+01  0.25425026479E+02 -0.96405198525E+01  0.27894301777E+02  0.00000000000E+00 0.  1.
         -2    1    1    2    0  502  0.41722311576E+02  0.66272007776E+01 -0.16362344029E+03  0.16898905671E+03  0.00000000000E+00 0.  1.
<scales pt_clust_5="13000.00000" pt_clust_6="13000.00000" pt_clust_7="13000.00000" pt_clust_8="13000.00000" pt_clust_9="42.24537"></scales>
<clustering>
<clus scale="   42.245">  2  9  1 -1</clus>
<clus scale="   90.589">  7  8 -1 -1</clus>
<clus scale="   92.137">  5  6 -1 -1</clus>
<clus scale="  115.356">  1  7  2 -1</clus>
<clus scale="   42.245">  2  5  1 -1</clus>
</clustering>
</event>
<event>
 9    1  0.1426358E-005  0.9800791E+02  0.7546771E-02  0.1284559E+00
         21   -1    0    0  501  502  0.00000000000E+00  0.00000000000E+00  0.35189620318E+03  0.35189620318E+03  0.00000000000E+00 0.  1.
         -1   -1    0    0    0  501 -0.00000000000E+00 -0.00000000000E+00 -0.93716164649E+02  0.93716164649E+02  0.00000000000E+00 0.  1.
         23    2    1    2    0    0 -0.33539487864E+02  0.39106821340E+02 -0.38525465236E+01  0.10424660586E+03  0.90544309582E+02 0.  0.
         23    2    1    2    0    0  0.19975543273E+02 -0.10781736688E+02  0.17723592944E+02  0.95046508478E+02  0.90578390645E+02 0.  0.
        -11    1    4    4    0    0 -0.23562438557E+02 -0.43830800743E+01 -0.24348468452E+02  0.34165008673E+02  0.00000000000E+00 0.  1.
         11    1    4    4    0    0  0.43537981830E+02 -0.63986566142E+01  0.42072061397E+02  0.60881499805E+02  0.00000000000E+00 0. -1.
        -13    1    3    3    0    0 -0.43442021237E+02 -0.15863341867E+02 -0.12053709764E+02  0.47792747812E+02  0.00000000000E+00 0.  1.
         13    1    3    3    0    0  0.99025333736E+01  0.54970163208E+02  0.82011632408E+01  0.56453858051E+02  0.00000000000E+00 0. -1.
         -1    1    1    2    0  502  0.13563944590E+02 -0.28325084652E+02  0.24430899211E+03  0.24631925349E+03  0.00000000000E+00 0.  1.
<scales pt_clust_5="13000.00000" pt_clust_6="13000.00000" pt_clust_7="13000.00000" pt_clust_8="13000.00000" pt_clust_9="31.40527"></scales>
<clustering>
<clus scale="   31.405">  1  9  2 -1</clus>
<clus scale="   90.544">  7  8 -1 -1</clus>
<clus scale="   90.578">  5  6 -1 -1</clus>
<clus scale="   97.976">  2  7  1 -1</clus>
<clus scale="   31.405">  1  5  2 -1</clus>
</clustering>
</event>
<event>
 9    1  0.1426358E-005  0.1282201E+03  0.7546771E-02  0.1230811E+00
          2   -1    0    0  502    0 -0.00000000000E+00  0.00000000000E+00  0.78306598395E+03  0.78306598395E+03  0.00000000000E+00 0. -1.
         21   -1    0    0  501  502  0.00000000000E+00 -0.00000000000E+00 -0.63945121431E+02  0.63945121431E+02  0.00000000000E+00 0. -1.
         23    2    1    2    0    0  0.91265374505E+02  0.78760613760E+02  0.46896342480E+03  0.49277155568E+03  0.91457692006E+02 0.  0.
         23    2    1    2    0    0  0.14796429182E+02 -0.76312304653E+02  0.20976182339E+03  0.24071904021E+03  0.88899559105E+02 0.  0.
        -11    1    4    4    0    0 -0.27292943816E+02 -0.70481503479E+02  0.13219731196E+03  0.15227828606E+03  0.00000000000E+00 0.  1.
         11    1    4    4    0    0  0.42089372998E+02 -0.58308011739E+01  0.77564511425E+02  0.88440754148E+02  0.00000000000E+00 0. -1.
        -13    1    3    3    0    0  0.16073895377E+01  0.34084988880E+02  0.41497541340E+02  0.53725376735E+02  0.00000000000E+00 0.  1.
         13    1    3    3    0    0  0.89657984967E+02  0.44675624880E+02  0.42746588346E+03  0.43904617895E+03  0.00000000000E+00 0. -1.
          2    1    1    2  501    0 -0.10606180369E+03 -0.24483091068E+01  0.40395614337E+02  0.11352050950E+03  0.00000000000E+00 0. -1.
<scales pt_clust_5="13000.00000" pt_clust_6="13000.00000" pt_clust_7="13000.00000" pt_clust_8="13000.00000" pt_clust_9="106.09006"></scales>
<clustering>
<clus scale="   88.900">  5  6 -1 -1</clus>
<clus scale="   91.458">  7  8 -1 -1</clus>
<clus scale="  106.090">  2  9  1 -1</clus>
<clus scale="  126.408">  2  5  1 -1</clus>
<clus scale="  106.090">  2  5  1 -1</clus>
</clustering>
</event>
<event>
 9    1  0.1426358E-005  0.1576354E+03  0.7546771E-02  0.1194544E+00
         -2   -1    0    0    0  501 -0.00000000000E+00  0.00000000000E+00  0.11534512707E+03  0.11534512707E+03  0.00000000000E+00 0.  1.
         21   -1    0    0  501  502  0.00000000000E+00 -0.00000000000E+00 -0.39640779927E+03  0.39640779927E+03  0.00000000000E+00 0. -1.
         23    2    1    2    0    0 -0.87134958072E+02 -0.81247814615E+02  0.15009178985E+02  0.15056240461E+03  0.90829807500E+02 0.  0.
         23    2    1    2    0    0  0.41779759207E+02  0.10417550766E+03 -0.20749654861E+03  0.25907119252E+03  0.10707464888E+03 0.  0.
        -11    1    3    3    0    0 -0.59321154316E+01 -0.64572027498E+02  0.18996156193E+02  0.67569154788E+02  0.00000000000E+00 0. -1.
         11    1    3    3    0    0 -0.81202842641E+02 -0.16675787117E+02 -0.39869772077E+01  0.82993249823E+02  0.00000000000E+00 0.  1.
        -13    1    4    4    0    0  0.60727001659E+01  0.69652185318E+02 -0.32385587526E+02  0.77052779874E+02  0.00000000000E+00 0.  1.
         13    1    4    4    0    0  0.35707059041E+02  0.34523322346E+02 -0.17511096108E+03  0.18201841265E+03  0.00000000000E+00 0. -1.
         -2    1    1    2    0  502  0.45355198865E+02 -0.22927693048E+02 -0.88575302572E+02  0.10211932921E+03  0.00000000000E+00 0.  1.
<scales pt_clust_5="13000.00000" pt_clust_6="13000.00000" pt_clust_7="13000.00000" pt_clust_8="13000.00000" pt_clust_9="50.82099"></scales>
<clustering>
<clus scale="   50.821">  2  9  1 -1</clus>
<clus scale="   90.830">  5  6 -1 -1</clus>
<clus scale="  107.075">  7  8 -1 -1</clus>
<clus scale="  147.085">  1  5  2 -1</clus>
<clus scale="   50.821">  2  5  1 -1</clus>
</clustering>
</event>
<event>
 9    1  0.1426358E-005  0.1039984E+03  0.7546771E-02  0.1272264E+00
         -3   -1    0    0    0  501 -0.00000000000E+00  0.00000000000E+00  0.33116842758E+03  0.33116842758E+03  0.00000000000E+00 0.  1.
         21   -1    0    0  501  502  0.00000000000E+00 -0.00000000000E+00 -0.65759718487E+02  0.65759718487E+02  0.00000000000E+00 0.  1.
         23    2    1    2    0    0 -0.35017697507E+02  0.25264678863E+02  0.16494128223E+03  0.19290198621E+03  0.90227526627E+02 0.  0.
         23    2    1    2    0    0  0.61761842393E+02 -0.19381315359E+02  0.12490302543E+03  0.16732518265E+03  0.90591337478E+02 0.  0.
        -11    1    3    3    0    0 -0.27442876782E+02 -0.31420009640E+02  0.55625939726E+02  0.69531098526E+02  0.00000000000E+00 0. -1.
         11    1    3    3    0    0 -0.75748207258E+01  0.56684688503E+02  0.10931534251E+03  0.12337088768E+03  0.00000000000E+00 0.  1.
        -13    1    4    4    0    0 -0.14608335949E+02 -0.22252872066E+02  0.82528330592E+01  0.27869392672E+02  0.00000000000E+00 0. -1.
         13    1    4    4    0    0  0.76370178342E+02  0.28715567076E+01  0.11665019237E+03  0.13945578997E+03  0.00000000000E+00 0.  1.
         -3    1    1    2    0  502 -0.26744144885E+02 -0.58833635044E+01 -0.24435598561E+02  0.36700977219E+02  0.00000000000E+00 0.  1.
<scales pt_clust_5="13000.00000" pt_clust_6="13000.00000" pt_clust_7="13000.00000" pt_clust_8="13000.00000" pt_clust_9="27.38363"></scales>
<clustering>
<clus scale="   27.384">  2  9  1 -1</clus>
<clus scale="   90.228">  5  6 -1 -1</clus>
<clus scale="   90.591">  7  8 -1 -1</clus>
<clus scale="  103.682">  1  5  2 -1</clus>
<clus scale="   27.384">  2  5  1 -1</clus>
</clustering>
</event>
<event>
 9    1  0.1426358E-005  0.1486745E+03  0.7546771E-02  0.1202649E+00
         -1   -1    0    0    0  501 -0.00000000000E+00  0.00000000000E+00  0.24933208991E+03  0.24933208991E+03  0.00000000000E+00 0.  1.
         21   -1    0    0  501  502  0.00000000000E+00 -0.00000000000E+00 -0.30855893187E+03  0.30855893187E+03  0.00000000000E+00 0.  1.
         23    2    1    2    0    0  0.11139388931E+03 -0.12675953381E+03  0.12822228330E+03  0.23091940666E+03  0.91685552018E+02 0.  0.
         23    2    1    2    0    0 -0.46207599260E+02  0.43737772016E+02  0.28727485549E+01  0.10933825143E+03  0.88873312136E+02 0.  0.
        -11    1    4    4    0    0 -0.41235179175E+02  0.70720115205E+02  0.22019376861E+01  0.81893364968E+02  0.00000000000E+00 0. -1.
         11    1    4    4    0    0 -0.49724200857E+01 -0.26982343188E+02  0.67081086879E+00  0.27444886458E+02  0.00000000000E+00 0.  1.
        -11    1    3    3    0    0 -0.16259875362E+02 -0.16160710242E+02  0.11822638757E+02  0.25793931253E+02  0.00000000000E+00 0. -1.
         11    1    3    3    0    0  0.12765376467E+03 -0.11059882357E+03  0.11639964454E+03  0.20512547540E+03  0.00000000000E+00 0.  1.
         -1    1    1    2    0  502 -0.65186290051E+02  0.83021761790E+02 -0.19032187381E+03  0.21763336369E+03  0.00000000000E+00 0.  1.
<scales pt_clust_5="13000.00000" pt_clust_6="13000.00000" pt_clust_7="13000.00000" pt_clust_8="13000.00000" pt_clust_9="105.55503"></scales>
<clustering>
<clus scale="   88.873">  5  6 -1 -1</clus>
<clus scale="   91.686">  7  8 -1 -1</clus>
<clus scale="  105.555">  2  9  1 -1</clus>
<clus scale="  146.957">  2  5  1 -1</clus>
<clus scale="  105.555">  2  5  1 -1</clus>
</clustering>
</event>
<event>
 9    1  0.1426358E-005  0.1464206E+03  0.7546771E-02  0.1205274E+00
         21   -1    0    0  501  502  0.00000000000E+00  0.00000000000E+00  0.36161020292E+03  0.36161020292E+03  0.00000000000E+00 0. -1.
          1   -1    0    0  502    0 -0.00000000000E+00 -0.00000000000E+00 -0.29760242172E+03  0.29760242172E+03  0.00000000000E+00 0. -1.
         23    2    1    2    0    0 -0.13173641070E+03  0.11562379570E+02 -0.18635422959E+03  0.24615946717E+03  0.91533676118E+02 0.  0.
         23    2    1    2    0    0  0.78621621562E+02 -0.40601789462E+02 -0.27164004992E+02  0.12900182832E+03  0.89853902850E+02 0.  0.
        -11    1    3    3    0    0 -0.20740842787E+02  0.15667381056E+02  0.34735867613E+01  0.26224324466E+02  0.00000000000E+00 0.  1.
         11    1    3    3    0    0 -0.11099556791E+03 -0.41050014868E+01 -0.18982781636E+03  0.21993514270E+03  0.00000000000E+00 0. -1.
        -13    1    4    4    0    0  0.92507203078E+02 -0.24710310572E+02 -0.14826721125E+01  0.95762103080E+02  0.00000000000E+00 0.  1.
         13    1    4    4    0    0 -0.13885581516E+02 -0.15891478891E+02 -0.25681332879E+02  0.33239725237E+02  0.00000000000E+00 0. -1.
          1    1    1    2  501    0  0.53114789140E+02  0.29039409893E+02  0.27752601579E+03  0.28405132915E+03  0.00000000000E+00 0. -1.
<scales pt_clust_5="13000.00000" pt_clust_6="13000.00000" pt_clust_7="13000.00000" pt_clust_8="13000.00000" pt_clust_9="60.53485"></scales>
<clustering>
<clus scale="   60.535">  1  9  2 -1</clus>
<clus scale="   89.854">  7  8 -1 -1</clus>
<clus scale="   91.534">  5  6 -1 -1</clus>
<clus scale="  145.376">  1  7  2 -1</clus>
<clus scale="   60.535">  1  5  2 -1</clus>
</clustering>
</event>
<event>
 9    1  0.1426358E-005  0.1289972E+03  0.7546771E-02  0.1230011E+00
         -3   -1    0    0    0  501 -0.00000000000E+00  0.00000000000E+00  0.31748754681E+03  0.31748754681E+03  0.00000000000E+00 0.  1.
         21   -1    0    0  501  502  0.00000000000E+00 -0.00000000000E+00 -0.16047173124E+03  0.16047173124E+03  0.00000000000E+00 0. -1.
         23    2    1    2    0    0 -0.74623009292E+02  0.33563681867E+02  0.20103209695E+03  0.23409151590E+03  0.87691616228E+02 0.  0.
         23    2    1    2    0    0  0.11366152343E+03 -0.53322432115E+02  0.29586496119E+02  0.15824193280E+03  0.91667468967E+02 0.  0.
        -11    1    4    4    0    0  0.39876326057E+02  0.40547629477E+01  0.48458454968E+02  0.62887076099E+02  0.00000000000E+00 0.  1.
         11    1    4    4    0    0  0.73785197375E+02 -0.57377195063E+02 -0.18871958849E+02  0.95354856697E+02  0.00000000000E+00 0. -1.
        -13    1    3    3    0    0 -0.21622415264E+01  0.40790630361E+02  0.11111601632E+03  0.11838631634E+03  0.00000000000E+00 0. -1.
         13    1    3    3    0    0 -0.72460767765E+02 -0.72269484941E+01  0.89916080626E+02  0.11570519956E+03  0.00000000000E+00 0.  1.
         -3    1    1    2    0  502 -0.39038514140E+02  0.19758750248E+02 -0.73602777494E+02  0.85625829354E+02  0.00000000000E+00 0.  1.
<scales pt_clust_5="13000.00000" pt_clust_6="13000.00000" pt_clust_7="13000.00000" pt_clust_8="13000.00000" pt_clust_9="43.75401"></scales>
<clustering>
<clus scale="   43.754">  2  9  1 -1</clus>
<clus scale="   87.692">  7  8 -1 -1</clus>
<clus scale="   91.667">  5  6 -1 -1</clus>
<clus scale="  126.203">  1  7  2 -1</clus>
<clus scale="   43.754">  2  5  1 -1</clus>
</clustering>
</event>
<event>
 9    1  0.1426358E-005  0.1424754E+03  0.7546771E-02  0.1212049E+00
          2   -1    0    0  502    0 -0.00000000000E+00  0.00000000000E+00  0.53189080232E+02  0.53189080232E+02  0.00000000000E+00 0. -1.
         21   -1    0    0  501  502  0.00000000000E+00 -0.00000000000E+00 -0.66672435304E+03  0.66672435304E+03  0.00000000000E+00 0. -1.
         23    2    1    2    0    0  0.14397867171E+02 -0.10940291951E+03 -0.14431654902E+03  0.20351445714E+03  0.91730968418E+02 0.  0.
         23    2    1    2    0    0 -0.69065476175E+02  0.71512272751E+02 -0.24840088463E+03  0.28578074902E+03  0.10041708955E+03 0.  0.
        -11    1    3    3    0    0 -0.20831242283E+02  0.68889451345E+01 -0.23908370775E+02  0.32450091113E+02  0.00000000000E+00 0.  1.
         11    1    3    3    0    0  0.35229109455E+02 -0.11629186464E+03 -0.12040817825E+03  0.17106436603E+03  0.00000000000E+00 0. -1.
        -13    1    4    4    0    0 -0.48975272886E+02  0.30403882214E+02 -0.34801712830E+02  0.67335968277E+02  0.00000000000E+00 0. -1.
         13    1    4    4    0    0 -0.20090203289E+02  0.41108390537E+02 -0.21359917180E+03  0.21844478074E+03  0.00000000000E+00 0.  1.
          2    1    1    2  501    0  0.54667609004E+02  0.37890646758E+02 -0.22081783915E+03  0.23061822711E+03  0.00000000000E+00 0. -1.
<scales pt_clust_5="13000.00000" pt_clust_6="13000.00000" pt_clust_7="13000.00000" pt_clust_8="13000.00000" pt_clust_9="66.51503"></scales>
<clustering>
<clus scale="   66.515">  2  9  1 -1</clus>
<clus scale="   91.731">  5  6 -1 -1</clus>
<clus scale="  100.417">  7  8 -1 -1</clus>
<clus scale="  136.493">  1  5  2 -1</clus>
<clus scale="   66.515">  2  5  1 -1</clus>
</clustering>
</event>
<event>
 9    1  0.1426358E-005  0.1162473E+03  0.7546771E-02  0.1250011E+00
         -1   -1    0    0    0  501 -0.00000000000E+00  0.00000000000E+00  0.22763370240E+03  0.22763370240E+03  0.00000000000E+00 0.  1.
         21   -1    0    0  501  502  0.00000000000E+00 -0.00000000000E+00 -0.15474603982E+03  0.15474603982E+03  0.00000000000E+00 0.  1.
         23    2    1    2    0    0  0.14161586160E+02 -0.82403389401E+02  0.14229748076E+03  0.18975990114E+03  0.93644956860E+02 0.  0.
         23    2    1    2    0    0  0.85432493185E+01  0.41485062265E+02  0.86600429322E+01  0.10159939137E+03  0.91942604288E+02 0.  0.
        -11    1    3    3    0    0 -0.14671516954E+02 -0.73558124382E+02  0.44045114934E+02  0.86982890397E+02  0.00000000000E+00 0. -1.
         11    1    3    3    0    0  0.28833103114E+02 -0.88452650195E+01  0.98252365823E+02  0.10277701075E+03  0.00000000000E+00 0.  1.
        -13    1    4    4    0    0 -0.54011543516E+01 -0.27272197460E+02 -0.90568566215E+01  0.29239902094E+02  0.00000000000E+00 0.  1.
         13    1    4    4    0    0  0.13944403670E+02  0.68757259725E+02  0.17716899554E+02  0.72359489276E+02  0.00000000000E+00 0. -1.
         -1    1    1    2    0  502 -0.22704835478E+02  0.40918327136E+02 -0.78069861111E+02  0.91020449700E+02  0.00000000000E+00 0.  1.
<scales pt_clust_5="13000.00000" pt_clust_6="13000.00000" pt_clust_7="13000.00000" pt_clust_8="13000.00000" pt_clust_9="46.79550"></scales>
<clustering>
<clus scale="   46.796">  2  9  1 -1</clus>
<clus scale="   91.943">  7  8 -1 -1</clus>
<clus scale="   93.645">  5  6 -1 -1</clus>
<clus scale="  114.880">  2  7  1 -1</clus>
<clus scale="   46.796">  2  5  1 -1</clus>
</clustering>
</event>
<event>
 9    1  0.1426358E-005  0.1746884E+03  0.7546771E-02  0.1199313E+00
          3   -1    0    0  502    0 -0.00000000000E+00  0.00000000000E+00  0.99405632519E+03  0.99405632519E+03  0.00000000000E+00 0. -1.
         21   -1    0    0  501  502  0.00000000000E+00 -0.00000000000E+00 -0.10896572626E+04  0.10896572626E+04  0.00000000000E+00 0. -1.
         23    2    1    2    0    0 -0.37638036860E+02 -0.71178640489E+01  0.23489293469E+03  0.25428245933E+03  0.89541010427E+02 0.  0.
         23    2    1    2    0    0  0.12292285819E+03 -0.11519913694E+03  0.73195823155E+03  0.75656607544E+03  0.90821272604E+02 0.  0.
        -11    1    4    4    0    0  0.96926441968E+02 -0.28760218819E+02  0.39232303022E+03  0.40514101913E+03  0.00000000000E+00 0.  1.
         11    1    4    4    0    0  0.25996416219E+02 -0.86438918118E+02  0.33963520132E+03  0.35142505630E+03  0.00000000000E+00 0. -1.
        -13    1    3    3    0    0  0.17272093499E+02  0.26812620909E+02  0.95128191360E+02  0.10033252038E+03  0.00000000000E+00 0.  1.
         13    1    3    3    0    0 -0.54910130359E+02 -0.33930484958E+02  0.13976474333E+03  0.15394993895E+03  0.00000000000E+00 0. -1.
          3    1    1    2  501    0 -0.85284821328E+02  0.12231700099E+03 -0.10624521036E+04  0.10728650530E+04  0.00000000000E+00 0. -1.
<scales pt_clust_5="13000.00000" pt_clust_6="13000.00000" pt_clust_7="13000.00000" pt_clust_8="13000.00000" pt_clust_9="149.22306"></scales>
<clustering>
<clus scale="   89.541">  7  8 -1 -1</clus>
<clus scale="   90.821">  5  6 -1 -1</clus>
<clus scale="   97.390">  1  7  2 -1</clus>
<clus scale="  149.223">  2  9  1 -1</clus>
<clus scale="  149.223">  2  5  1 -1</clus>
</clustering>
</event>
<event>
 9    1  0.1426358E-005  0.1090225E+03  0.7546771E-02  0.1263353E+00
         21   -1    0    0  501  502  0.00000000000E+00  0.00000000000E+00  0.64857942240E+02  0.64857942240E+02  0.00000000000E+00 0. -1.
          2   -1    0    0  502    0 -0.00000000000E+00 -0.00000000000E+00 -0.63540669939E+03  0.63540669939E+03  0.00000000000E+00 0. -1.
         23    2    1    2    0    0  0.18928005897E+02 -0.36564607644E+02 -0.29086505119E+03  0.30816727659E+03  0.93109357296E+02 0.  0.
         23    2    1    2    0    0 -0.33718574038E+02  0.67857388291E+02 -0.31871602816E+03  0.33992916397E+03  0.90721345506E+02 0.  0.
        -13    1    4    4    0    0  0.25219453710E+02  0.27921386535E+02 -0.18132986952E+03  0.18519218734E+03  0.00000000000E+00 0.  1.
         13    1    4    4    0    0 -0.58938027747E+02  0.39936001755E+02 -0.13738615865E+03  0.15473697664E+03  0.00000000000E+00 0. -1.
        -13    1    3    3    0    0 -0.27459842592E+02 -0.43501549675E+02 -0.19148409980E+03  0.19827402315E+03  0.00000000000E+00 0. -1.
         13    1    3    3    0    0  0.46387848489E+02  0.69369420307E+01 -0.99380951391E+02  0.10989325344E+03  0.00000000000E+00 0.  1.
          2    1    1    2  501    0  0.14790568141E+02 -0.31292780646E+02  0.39032322202E+02  0.52168201071E+02  0.00000000000E+00 0. -1.
<scales pt_clust_5="13000.00000" pt_clust_6="13000.00000" pt_clust_7="13000.00000" pt_clust_8="13000.00000" pt_clust_9="34.61212"></scales>
<clustering>
<clus scale="   34.612">  1  9  2 -1</clus>
<clus scale="   90.721">  5  6 -1 -1</clus>
<clus scale="   93.109">  7  8 -1 -1</clus>
<clus scale="  106.990">  1  5  2 -1</clus>
<clus scale="   34.612">  1  5  2 -1</clus>
</clustering>
</event>
<event>
 9    1  0.1426358E-005  0.1435142E+03  0.7546771E-02  0.1217190E+00
          1   -1    0    0  502    0 -0.00000000000E+00  0.00000000000E+00  0.46553768325E+03  0.46553768325E+03  0.00000000000E+00 0. -1.
         21   -1    0    0  501  502  0.00000000000E+00 -0.00000000000E+00 -0.77479281349E+02  0.77479281349E+02  0.00000000000E+00 0.  1.
         23    2    1    2    0    0  0.63806103342E+02 -0.32818211080E+02  0.22606635353E+03  0.25407434367E+03  0.91101713003E+02 0.  0.
         23    2    1    2    0    0 -0.86566088635E+02  0.23895020598E+02  0.19600792657E+03  0.24705324008E+03  0.12062974941E+03 0.  0.
        -13    1    4    4    0    0 -0.26277775695E+01  0.57254177531E+02  0.53951683787E+02  0.78712961088E+02  0.00000000000E+00 0. -1.
         13    1    4    4    0    0 -0.83938311066E+02 -0.33359156933E+02  0.14205624278E+03  0.16834027899E+03  0.00000000000E+00 0.  1.
        -13    1    3    3    0    0  0.23037804078E+02  0.26844930067E+02  0.12447845106E+03  0.12940740112E+03  0.00000000000E+00 0. -1.
         13    1    3    3    0    0  0.40768299264E+02 -0.59663141147E+02  0.10158790247E+03  0.12466694255E+03  0.00000000000E+00 0.  1.
          1    1    1    2  501    0  0.22759985293E+02  0.89231904824E+01 -0.34015878196E+02  0.41889380854E+02  0.00000000000E+00 0. -1.
<scales pt_clust_5="13000.00000" pt_clust_6="13000.00000" pt_clust_7="13000.00000" pt_clust_8="13000.00000" pt_clust_9="24.44668"></scales>
<clustering>
<clus scale="   24.447">  2  9  1 -1</clus>
<clus scale="   91.102">  7  8 -1 -1</clus>
<clus scale="  119.768">  1  7  2 -1</clus>
<clus scale="  120.630">  5  6 -1 -1</clus>
<clus scale="   24.447">  2  5  1 -1</clus>
</clustering>
</event>
<event>
 9    1  0.1426358E-005  0.2803842E+03  0.7546771E-02  0.1095536E+00
         -1   -1    0    0    0  501 -0.00000000000E+00  0.00000000000E+00  0.14293430394E+04  0.14293430394E+04  0.00000000000E+00 0.  1.
         21   -1    0    0  501  502  0.00000000000E+00 -0.00000000000E+00 -0.78049419718E+02  0.78049419718E+02  0.00000000000E+00 0.  1.
         23    2    1    2    0    0 -0.26723585837E+03 -0.24361638744E+02  0.85682941695E+03  0.90224194391E+03  0.88743349987E+02 0.  0.
         23    2    1    2    0    0  0.25811894494E+03  0.42513260803E+02  0.50957430053E+03  0.57983422498E+03  0.90049950683E+02 0.  0.
        -13    1    4    4    0    0  0.15176703702E+03 -0.20283329842E+02  0.27729171830E+03  0.31675754771E+03  0.00000000000E+00 0. -1.
         13    1    4    4    0    0  0.10635190791E+03  0.62796590645E+02  0.23228258224E+03  0.26307667727E+03  0.00000000000E+00 0.  1.
        -13    1    3    3    0    0 -0.19497190178E+03 -0.39951820101E+02  0.50652957697E+03  0.54422642600E+03  0.00000000000E+00 0. -1.
         13    1    3    3    0    0 -0.72263956592E+02  0.15590181356E+02  0.35029983998E+03  0.35801551792E+03  0.00000000000E+00 0.  1.
         -1    1    1    2    0  502  0.91169134313E+01 -0.18151622059E+02 -0.15110097816E+02  0.25316290208E+02  0.00000000000E+00 0.  1.
<scales pt_clust_5="13000.00000" pt_clust_6="13000.00000" pt_clust_7="13000.00000" pt_clust_8="13000.00000" pt_clust_9="20.31255"></scales>
<clustering>
<clus scale="   20.313">  2  9  1 -1</clus>
<clus scale="   88.743">  7  8 -1 -1</clus>
<clus scale="   90.050">  5  6 -1 -1</clus>
<clus scale="  279.967">  1  7  2 -1</clus>
<clus scale="   20.313">  2  5  1 -1</clus>
</clustering>
</event>
<event>
 9    1  0.1426358E-005  0.1039633E+03  0.7546771E-02  0.1272543E+00
         -2   -1    0    0    0  501 -0.00000000000E+00  0.00000000000E+00  0.44910175481E+02  0.44910175481E+02  0.00000000000E+00 0.  1.
         21   -1    0    0  501  502  0.00000000000E+00 -0.00000000000E+00 -0.40932531462E+03  0.40932531462E+03  0.00000000000E+00 0.  1.
         23    2    1    2    0    0  0.98091331697E+01 -0.41842632099E+02 -0.73283375804E+02  0.12485220052E+03  0.91490949562E+02 0.  0.
         23    2    1    2    0    0 -0.39010945670E+02  0.50683730170E+02 -0.15970486134E+03  0.19446130680E+03  0.90657943509E+02 0.  0.
        -11    1    4    4    0    0  0.20408635434E+02  0.43669228052E+02 -0.49688720118E+02  0.69227760226E+02  0.00000000000E+00 0. -1.
         11    1    4    4    0    0 -0.59419581104E+02  0.70145021184E+01 -0.11001614123E+03  0.12523354658E+03  0.00000000000E+00 0.  1.
        -13    1    3    3    0    0 -0.39677119117E+02 -0.24501703409E+02 -0.22203976286E+02  0.51649044660E+02  0.00000000000E+00 0.  1.
         13    1    3    3    0    0  0.49486252287E+02 -0.17340928689E+02 -0.51079399517E+02  0.73203155863E+02  0.00000000000E+00 0. -1.
         -2    1    1    2    0  502  0.29201812500E+02 -0.88410980715E+01 -0.13142690199E+03  0.13492198277E+03  0.00000000000E+00 0.  1.
<scales pt_clust_5="13000.00000" pt_clust_6="13000.00000" pt_clust_7="13000.00000" pt_clust_8="13000.00000" pt_clust_9="30.51083"></scales>
<clustering>
<clus scale="   30.511">  2  9  1 -1</clus>
<clus scale="   90.658">  5  6 -1 -1</clus>
<clus scale="   91.491">  7  8 -1 -1</clus>
<clus scale="  103.231">  2  5  1 -1</clus>
<clus scale="   30.511">  2  5  1 -1</clus>
</clustering>
</event>
<event>
 9    1  0.1426358E-005  0.1061580E+03  0.7546771E-02  0.1267856E+00
         21   -1    0    0  501  502  0.00000000000E+00  0.00000000000E+00  0.34804796908E+02  0.34804796908E+02  0.00000000000E+00 0.  1.
          2   -1    0    0  502    0 -0.00000000000E+00 -0.00000000000E+00 -0.47175872304E+03  0.47175872304E+03  0.00000000000E+00 0. -1.
         23    2    1    2    0    0  0.55081728910E+02 -0.34152039163E+02 -0.29242128326E+03  0.31289786638E+03  0.90523528675E+02 0.  0.
         23    2    1    2    0    0 -0.31248368147E+02  0.26031069182E+02 -0.13306359168E+03  0.16599765085E+03  0.90527474193E+02 0.  0.
        -11    1    3    3    0    0 -0.83259736498E+01 -0.32184114366E+02 -0.18644232326E+03  0.18938288982E+03  0.00000000000E+00 0.  1.
         11    1    3    3    0    0  0.63407702559E+02 -0.19679247970E+01 -0.10597896001E+03  0.12351497657E+03  0.00000000000E+00 0. -1.
        -11    1    4    4    0    0 -0.41909335220E+02 -0.22886175429E+01 -0.15726211400E+02  0.44821243555E+02  0.00000000000E+00 0.  1.
         11    1    4    4    0    0  0.10660967072E+02  0.28319686725E+02 -0.11733738028E+03  0.12117640730E+03  0.00000000000E+00 0. -1.
          2    1    1    2  501    0 -0.23833360762E+02  0.81209699815E+01 -0.11469051187E+02  0.27668002707E+02  0.00000000000E+00 0. -1.
<scales pt_clust_5="13000.00000" pt_clust_6="13000.00000" pt_clust_7="13000.00000" pt_clust_8="13000.00000" pt_clust_9="25.17894"></scales>
<clustering>
<clus scale="   25.179">  1  9  2 -1</clus>
<clus scale="   90.524">  5  6 -1 -1</clus>
<clus scale="   90.527">  7  8 -1 -1</clus>
<clus scale="  106.155">  2  5  1 -1</clus>
<clus scale="   25.179">  1  5  2 -1</clus>
</clustering>
</event>
<event>
 9    1  0.1426358E-005  0.9697548E+02  0.7546771E-02  0.1287456E+00
         21   -1    0    0  501  502  0.00000000000E+00  0.00000000000E+00  0.44402686458E+02  0.44402686458E+02  0.00000000000E+00 0. -1.
          2   -1    0    0  502    0 -0.00000000000E+00 -0.00000000000E+00 -0.29795218484E+03  0.29795218484E+03  0.00000000000E+00 0. -1.
         23    2    1    2    0    0 -0.19318705169E+02 -0.95038558173E+01 -0.15154324652E+03  0.17868387412E+03  0.92190214558E+02 0.  0.
         23    2    1    2    0    0  0.40105936148E+02  0.16593819252E+02 -0.99447608105E+02  0.14155938911E+03  0.90914206456E+02 0.  0.
        -11    1    4    4    0    0  0.12416760296E+02 -0.22177719810E+02 -0.89300347358E+02  0.92847074431E+02  0.00000000000E+00 0. -1.
         11    1    4    4    0    0  0.27689175852E+02  0.38771539062E+02 -0.10147260748E+02  0.48712314678E+02  0.00000000000E+00 0.  1.
        -11    1    3    3    0    0 -0.46830847930E+02 -0.48633965966E+00 -0.13980798599E+03  0.14744367667E+03  0.00000000000E+00 0. -1.
         11    1    3    3    0    0  0.27512142761E+02 -0.90175161576E+01 -0.11735260533E+02  0.31240197450E+02  0.00000000000E+00 0.  1.
          2    1    1    2  501    0 -0.20787230980E+02 -0.70899634351E+01 -0.25586437517E+01  0.22111608064E+02  0.00000000000E+00 0. -1.
<scales pt_clust_5="13000.00000" pt_clust_6="13000.00000" pt_clust_7="13000.00000" pt_clust_8="13000.00000" pt_clust_9="21.96307"></scales>
<clustering>
<clus scale="   21.963">  1  9  2 -1</clus>
<clus scale="   90.914">  5  6 -1 -1</clus>
<clus scale="   92.190">  7  8 -1 -1</clus>
<clus scale="   95.763">  1  5  2 -1</clus>
<clus scale="   21.963">  1  5  2 -1</clus>
</clustering>
</event>
<event>
 9    1  0.1426358E-005  0.1271931E+03  0.7546771E-02  0.1231739E+00
         -1   -1    0    0    0  501 -0.00000000000E+00  0.00000000000E+00  0.22321926370E+03  0.22321926370E+03  0.00000000000E+00 0.  1.
         21   -1    0    0  501  502  0.00000000000E+00 -0.00000000000E+00 -0.11003347042E+03  0.11003347042E+03  0.00000000000E+00 0. -1.
         23    2    1    2    0    0 -0.85883982581E+02  0.42774789367E+01  0.12644947712E+03  0.17806847307E+03  0.91239002329E+02 0.  0.
         23    2    1    2    0    0  0.96230135633E+02  0.14375139833E+02 -0.10116934825E+02  0.13362353057E+03  0.91027533754E+02 0.  0.
        -11    1    4    4    0    0  0.39133175359E+02 -0.37426789445E+02  0.71496948453E+01  0.54619484785E+02  0.00000000000E+00 0.  1.
         11    1    4    4    0    0  0.57096960274E+02  0.51801929278E+02 -0.17266629670E+02  0.79004045780E+02  0.00000000000E+00 0. -1.
        -11    1    3    3    0    0 -0.81000942799E+02 -0.33070971524E+02  0.93110446931E+02  0.12776696451E+03  0.00000000000E+00 0.  1.
         11    1    3    3    0    0 -0.48830397824E+01  0.37348450460E+02  0.33339030191E+02  0.50301508560E+02  0.00000000000E+00 0. -1.
         -1    1    1    2    0  502 -0.10346153052E+02 -0.18652618769E+02 -0.31467490103E+01  0.21560730490E+02  0.00000000000E+00 0.  1.
<scales pt_clust_5="13000.00000" pt_clust_6="13000.00000" pt_clust_7="13000.00000" pt_clust_8="13000.00000" pt_clust_9="21.32986"></scales>
<clustering>
<clus scale="   21.330">  2  9  1 -1</clus>
<clus scale="   91.028">  5  6 -1 -1</clus>
<clus scale="   91.239">  7  8 -1 -1</clus>
<clus scale="  127.041">  2  5  1 -1</clus>
<clus scale="   21.330">  2  5  1 -1</clus>
</clustering>
</event>
<event>
 9    1  0.1426358E-005  0.9876463E+02  0.7546771E-02  0.1284150E+00
         21   -1    0    0  501  502  0.00000000000E+00  0.00000000000E+00  0.33133046534E+03  0.33133046534E+03  0.00000000000E+00 0. -1.
          1   -1    0    0  502    0 -0.00000000000E+00 -0.00000000000E+00 -0.87661781429E+02  0.87661781429E+02  0.00000000000E+00 0. -1.
         23    2    1    2    0    0  0.74392729192E+01  0.22448938095E+02  0.16382737932E+02  0.94187472362E+02  0.89686053792E+02 0.  0.
         23    2    1    2    0    0  0.80851504945E+02 -0.42336330601E+02  0.81363192645E+02  0.15309507818E+03  0.92134700878E+02 0.  0.
        -11    1    4    4    0    0  0.22629825687E+02 -0.34152118532E+02  0.84823476083E+02  0.94199247904E+02  0.00000000000E+00 0.  1.
         11    1    4    4    0    0  0.58221679258E+02 -0.81842120685E+01 -0.34602834382E+01  0.58895830279E+02  0.00000000000E+00 0. -1.
        -11    1    3    3    0    0  0.33364091460E+02  0.42234491661E+02 -0.66919784249E+01  0.54237417528E+02  0.00000000000E+00 0.  1.
         11    1    3    3    0    0 -0.25924818541E+02 -0.19785553566E+02  0.23074716357E+02  0.39950054834E+02  0.00000000000E+00 0. -1.
          1    1    1    2  501    0 -0.88290777864E+02  0.19887392505E+02  0.14592275334E+03  0.17170969622E+03  0.00000000000E+00 0. -1.
<scales pt_clust_5="13000.00000" pt_clust_6="13000.00000" pt_clust_7="13000.00000" pt_clust_8="13000.00000" pt_clust_9="90.50287"></scales>
<clustering>
<clus scale="   89.686">  7  8 -1 -1</clus>
<clus scale="   90.503">  1  9  2 -1</clus>
<clus scale="   92.135">  5  6 -1 -1</clus>
<clus scale="   96.484">  2  7  1 -1</clus>
<clus scale="   90.503">  1  5  2 -1</clus>
</clustering>
</event>
<event>
 9    1  0.1426358E-005  0.1098027E+03  0.7546771E-02  0.1266656E+00
          2   -1    0    0  502    0 -0.00000000000E+00  0.00000000000E+00  0.33282192976E+02  0.33282192976E+02  0.00000000000E+00 0. -1.
         21   -1    0    0  501  502  0.00000000000E+00 -0.00000000000E+00 -0.60794816170E+03  0.60794816170E+03  0.00000000000E+00 0.  1.
         23    2    1    2    0    0  0.52183540143E+02  0.10894503749E+02 -0.10695334929E+03  0.15487354531E+03  0.98513877393E+02 0.  0.
         23    2    1    2    0    0 -0.37640084857E+02  0.21986866567E+02 -0.37070446734E+03  0.38290016057E+03  0.85384615570E+02 0.  0.
        -13    1    4    4    0    0 -0.25131112586E+02  0.48010629514E+02 -0.31995514026E+03  0.32451176426E+03  0.00000000000E+00 0.  1.
         13    1    4    4    0    0 -0.12508972271E+02 -0.26023762948E+02 -0.50749327075E+02  0.58388396311E+02  0.00000000000E+00 0. -1.
        -13    1    3    3    0    0 -0.13462657680E+02 -0.22730034792E+02 -0.18628695147E+01  0.26483351682E+02  0.00000000000E+00 0.  1.
         13    1    3    3    0    0  0.65646197823E+02  0.33624538541E+02 -0.10509047977E+03  0.12839019363E+03  0.00000000000E+00 0. -1.
          2    1    1    2  501    0 -0.14543455286E+02 -0.32881370316E+02 -0.97008152097E+02  0.10345664879E+03  0.00000000000E+00 0. -1.
<scales pt_clust_5="13000.00000" pt_clust_6="13000.00000" pt_clust_7="13000.00000" pt_clust_8="13000.00000" pt_clust_9="35.95409"></scales>
<clustering>
<clus scale="   35.954">  2  9  1 -1</clus>
<clus scale="   85.385">  5  6 -1 -1</clus>
<clus scale="   98.195">  2  5  1 -1</clus>
<clus scale="   98.514">  7  8 -1 -1</clus>
<clus scale="   35.954">  2  5  1 -1</clus>
</clustering>
</event>
<event>
 9    1  0.1426358E-005  0.1291853E+03  0.7546771E-02  0.1228952E+00
         21   -1    0    0  501  502  0.00000000000E+00  0.00000000000E+00  0.65615785249E+02  0.65615785249E+02  0.00000000000E+00 0.  1.
          1   -1    0    0  502    0 -0.00000000000E+00 -0.00000000000E+00 -0.78638038687E+03  0.78638038687E+03  0.00000000000E+00 0. -1.
         23    2    1    2    0    0  0.77759179152E+02 -0.25491764006E+02 -0.28563206845E+03  0.31062781712E+03  0.90596038903E+02 0.  0.
         23    2    1    2    0    0 -0.10455040543E+03 -0.85904742182E+02 -0.38209450209E+03  0.41511470501E+03  0.89518700723E+02 0.  0.
        -11    1    4    4    0    0 -0.11919509225E+03 -0.62370810784E+02 -0.31625986149E+03  0.34368283059E+03  0.00000000000E+00 0.  1.
         11    1    4    4    0    0  0.14644686821E+02 -0.23533931398E+02 -0.65834640606E+02  0.71431874418E+02  0.00000000000E+00 0. -1.
        -13    1    3    3    0    0 -0.50823527830E+01 -0.33544594551E+02 -0.47524068885E+02  0.58391842382E+02  0.00000000000E+00 0.  1.
         13    1    3    3    0    0  0.82841531935E+02  0.80528305457E+01 -0.23810799957E+03  0.25223597474E+03  0.00000000000E+00 0. -1.
          1    1    1    2  501    0  0.26791226280E+02  0.11139650619E+03 -0.53038031079E+02  0.12625365000E+03  0.00000000000E+00 0. -1.
<scales pt_clust_5="13000.00000" pt_clust_6="13000.00000" pt_clust_7="13000.00000" pt_clust_8="13000.00000" pt_clust_9="114.57291"></scales>
<clustering>
<clus scale="   89.519">  5  6 -1 -1</clus>
<clus scale="   90.596">  7  8 -1 -1</clus>
<clus scale="  114.573">  1  9  2 -1</clus>
<clus scale="  128.432">  1  5  2 -1</clus>
<clus scale="  114.573">  1  5  2 -1</clus>
</clustering>
</event>
<event>
 9    1  0.1426358E-005  0.1035723E+03  0.7546771E-02  0.1274465E+00
         21   -1    0    0  501  502  0.00000000000E+00  0.00000000000E+00  0.72817698167E+02  0.72817698167E+02  0.00000000000E+00 0.  1.
          3   -1    0    0  502    0 -0.00000000000E+00 -0.00000000000E+00 -0.42860219360E+03  0.42860219360E+03  0.00000000000E+00 0. -1.
         23    2    1    2    0    0  0.40301549604E+02  0.26617856997E+02 -0.31810128326E+03  0.33315884947E+03  0.86450375120E+02 0.  0.
         23    2    1    2    0    0 -0.64530052234E+02 -0.18997972707E+02 -0.65998438339E+02  0.13022375784E+03  0.89874260138E+02 0.  0.
        -11    1    3    3    0    0 -0.15877010894E+02  0.36288601578E+02 -0.95815625203E+02  0.10368016258E+03  0.00000000000E+00 0.  1.
         11    1    3    3    0    0  0.56178560497E+02 -0.96707445808E+01 -0.22228565806E+03  0.22947868689E+03  0.00000000000E+00 0. -1.
        -11    1    4    4    0    0 -0.15305203461E+02 -0.43074883755E+02 -0.17030643256E+01  0.45744893612E+02  0.00000000000E+00 0. -1.
         11    1    4    4    0    0 -0.49224848773E+02  0.24076911048E+02 -0.64295374013E+02  0.84478864232E+02  0.00000000000E+00 0.  1.
          3    1    1    2  501    0  0.24228502630E+02 -0.76198842901E+01  0.28315226161E+02  0.38037284456E+02  0.00000000000E+00 0. -1.
<scales pt_clust_5="13000.00000" pt_clust_6="13000.00000" pt_clust_7="13000.00000" pt_clust_8="13000.00000" pt_clust_9="25.39848"></scales>
<clustering>
<clus scale="   25.398">  1  9  2 -1</clus>
<clus scale="   86.450">  5  6 -1 -1</clus>
<clus scale="   89.874">  7  8 -1 -1</clus>
<clus scale="  100.616">  2  5  1 -1</clus>
<clus scale="   25.398">  1  5  2 -1</clus>
</clustering>
</event>
<event>
 9    1  0.1426358E-005  0.1031917E+03  0.7546771E-02  0.1275453E+00
         -3   -1    0    0    0  501 -0.00000000000E+00  0.00000000000E+00  0.86113457473E+02  0.86113457473E+02  0.00000000000E+00 0.  1.
         21   -1    0    0  501  502  0.00000000000E+00 -0.00000000000E+00 -0.19017233798E+03  0.19017233798E+03  0.00000000000E+00 0.  1.
         23    2    1    2    0    0  0.99218993776E+01 -0.22720920354E+02 -0.39448231799E+02  0.10446803900E+03  0.93502534043E+02 0.  0.
         23    2    1    2    0    0 -0.51189144076E+02  0.44500467806E+02 -0.47208885351E+02  0.12201659642E+03  0.89770545504E+02 0.  0.
        -13    1    3    3    0    0 -0.62183633937E+01 -0.49538725567E+02 -0.50747930345E+02  0.71190630060E+02  0.00000000000E+00 0. -1.
         13    1    3    3    0    0  0.16140262771E+02  0.26817805213E+02  0.11299698546E+02  0.33277408944E+02  0.00000000000E+00 0.  1.
        -13    1    4    4    0    0 -0.21000819937E+02 -0.15300676918E+02 -0.48492774599E+02  0.55015400938E+02  0.00000000000E+00 0.  1.
         13    1    4    4    0    0 -0.30188324139E+02  0.59801144724E+02  0.12838892479E+01  0.67001195484E+02  0.00000000000E+00 0. -1.
         -3    1    1    2    0  502  0.41267244698E+02 -0.21779547452E+02 -0.17401763361E+02  0.49801160030E+02  0.00000000000E+00 0.  1.
<scales pt_clust_5="13000.00000" pt_clust_6="13000.00000" pt_clust_7="13000.00000" pt_clust_8="13000.00000" pt_clust_9="46.66194"></scales>
<clustering>
<clus scale="   46.662">  2  9  1 -1</clus>
<clus scale="   89.771">  7  8 -1 -1</clus>
<clus scale="   93.503">  5  6 -1 -1</clus>
<clus scale="   99.823">  2  7  1 -1</clus>
<clus scale="   46.662">  2  5  1 -1</clus>
</clustering>
</event>
<event>
 9    1  0.1426358E-005  0.1137501E+03  0.7546771E-02  0.1254083E+00
          1   -1    0    0  502    0 -0.00000000000E+00  0.00000000000E+00  0.29731293911E+03  0.29731293911E+03  0.00000000000E+00 0. -1.
         21   -1    0    0  501  502  0.00000000000E+00 -0.00000000000E+00 -0.28986944984E+03  0.28986944984E+03  0.00000000000E+00 0. -1.
         23    2    1    2    0    0 -0.23645883032E+02  0.46827975969E+02  0.11059014048E+03  0.15371441299E+03  0.92983624756E+02 0.  0.
         23    2    1    2    0    0  0.10830690142E+03 -0.86320813889E+01  0.12349225851E+03  0.18853612870E+03  0.92144648177E+02 0.  0.
        -11    1    4    4    0    0  0.89351767203E+02 -0.38572277141E+02  0.11754362339E+03  0.15260426687E+03  0.00000000000E+00 0. -1.
         11    1    4    4    0    0  0.18955134218E+02  0.29940195752E+02  0.59486351230E+01  0.35931861832E+02  0.00000000000E+00 0.  1.
        -11    1    3    3    0    0 -0.24256828922E+02  0.74783604896E+02  0.85410638088E+02  0.11608599575E+03  0.00000000000E+00 0.  1.
         11    1    3    3    0    0  0.61094589072E+00 -0.27955628926E+02  0.25179502391E+02  0.37628417243E+02  0.00000000000E+00 0. -1.
          1    1    1    2  501    0 -0.84661018389E+02 -0.38195894581E+02 -0.22663890973E+03  0.24493184726E+03  0.00000000000E+00 0. -1.
<scales pt_clust_5="13000.00000" pt_clust_6="13000.00000" pt_clust_7="13000.00000" pt_clust_8="13000.00000" pt_clust_9="92.87849"></scales>
<clustering>
<clus scale="   92.145">  5  6 -1 -1</clus>
<clus scale="   92.878">  2  9  1 -1</clus>
<clus scale="   92.984">  7  8 -1 -1</clus>
<clus scale="  113.065">  2  5  1 -1</clus>
<clus scale="   92.878">  2  5  1 -1</clus>
</clustering>
</event>
<event>
 9    1  0.1426358E-005  0.9494033E+02  0.7546771E-02  0.1292295E+00
          1   -1    0    0  502    0 -0.00000000000E+00  0.00000000000E+00  0.36638693797E+03  0.36638693797E+03  0.00000000000E+00 0. -1.
         21   -1    0    0  501  502  0.00000000000E+00 -0.00000000000E+00 -0.43880850194E+02  0.43880850194E+02  0.00000000000E+00 0.  1.
         23    2    1    2    0    0  0.29272016010E+02  0.55515539923E+01  0.16606295028E+03  0.19229393685E+03  0.92262581908E+02 0.  0.
         23    2    1    2    0    0  0.63398180827E+01 -0.33245747649E+02  0.13971278972E+03  0.16985861853E+03  0.90481012623E+02 0.  0.
        -11    1    3    3    0    0  0.60692090144E+02  0.79426265024E+01  0.13410481813E+03  0.14741342330E+03  0.00000000000E+00 0.  1.
         11    1    3    3    0    0 -0.31420074134E+02 -0.23910725102E+01  0.31958132145E+02  0.44880513550E+02  0.00000000000E+00 0. -1.
        -11    1    4    4    0    0  0.22586687685E+02  0.44348184939E+01  0.12368000961E+03  0.12580369968E+03  0.00000000000E+00 0.  1.
         11    1    4    4    0    0 -0.16246869603E+02 -0.37680566143E+02  0.16032780118E+02  0.44054918852E+02  0.00000000000E+00 0. -1.
          1    1    1    2  501    0 -0.35611834093E+02  0.27694193657E+02  0.16730347772E+02  0.48115232789E+02  0.00000000000E+00 0. -1.
<scales pt_clust_5="13000.00000" pt_clust_6="13000.00000" pt_clust_7="13000.00000" pt_clust_8="13000.00000" pt_clust_9="45.11287"></scales>
<clustering>
<clus scale="   45.113">  2  9  1 -1</clus>
<clus scale="   90.481">  7  8 -1 -1</clus>
<clus scale="   92.263">  5  6 -1 -1</clus>
<clus scale="   93.210">  2  7  1 -1</clus>
<clus scale="   45.113">  2  5  1 -1</clus>
</clustering>
</event>
<event>
 9    1  0.1426358E-005  0.4900386E+03  0.7546771E-02  0.1052202E+00
         21   -1    0    0  501  502  0.00000000000E+00  0.00000000000E+00  0.42397199598E+03  0.42397199598E+03  0.00000000000E+00 0. -1.
          1   -1    0    0  502    0 -0.00000000000E+00 -0.00000000000E+00 -0.14912171287E+04  0.14912171287E+04  0.00000000000E+00 0. -1.
         23    2    1    2    0    0 -0.11206249519E+03 -0.90187063242E+02 -0.54423606717E+02  0.17937133732E+03  0.92306221232E+02 0.  0.
         23    2    1    2    0    0  0.42512063534E+03 -0.27484689808E+03 -0.11295297781E+04  0.12409683070E+04  0.88861956976E+02 0.  0.
        -11    1    3    3    0    0 -0.97304369364E+01 -0.49999084308E+02  0.10051708039E+02  0.51919424777E+02  0.00000000000E+00 0.  1.
         11    1    3    3    0    0 -0.10233205825E+03 -0.40187978934E+02 -0.64475314756E+02  0.12745191254E+03  0.00000000000E+00 0. -1.
        -11    1    4    4    0    0  0.70289985408E+02 -0.26121104426E+02 -0.10952102263E+03  0.13273224380E+03  0.00000000000E+00 0.  1.
         11    1    4    4    0    0  0.35483064993E+03 -0.24872579365E+03 -0.10200087555E+04  0.11082360632E+04  0.00000000000E+00 0. -1.
          1    1    1    2  501    0 -0.31305814015E+03  0.36503396132E+03  0.11670825217E+03  0.49484948030E+03  0.00000000000E+00 0. -1.
<scales pt_clust_5="13000.00000" pt_clust_6="13000.00000" pt_clust_7="13000.00000" pt_clust_8="13000.00000" pt_clust_9="481.91424"></scales>
<clustering>
<clus scale="   88.862">  7  8 -1 -1</clus>
<clus scale="   92.306">  5  6 -1 -1</clus>
<clus scale="  170.916">  2  5  1 -1</clus>
<clus scale="  481.914">  1  9  2 -1</clus>
<clus scale="  481.914">  1  5  2 -1</clus>
</clustering>
</event>
<event>
 9    1  0.1426358E-005  0.9888760E+02  0.7546771E-02  0.1283057E+00
         -1   -1    0    0    0  501 -0.00000000000E+00  0.00000000000E+00  0.21300335976E+03  0.21300335976E+03  0.00000000000E+00 0.  1.
         21   -1    0    0  501  502  0.00000000000E+00 -0.00000000000E+00 -0.69114900614E+02  0.69114900614E+02  0.00000000000E+00 0. -1.
         23    2    1    2    0    0 -0.13327283716E+01 -0.31766243699E+02  0.11520471272E+03  0.15016988580E+03  0.90928534392E+02 0.  0.
         23    2    1    2    0    0  0.12564451209E+02  0.49561246897E+02  0.13266108200E+02  0.10586164796E+03  0.91741573202E+02 0.  0.
        -11    1    3    3    0    0 -0.20462348721E+02 -0.47994679565E+02  0.11362843652E+03  0.12503446952E+03  0.00000000000E+00 0.  1.
         11    1    3    3    0    0  0.19129620349E+02  0.16228435865E+02  0.15762761989E+01  0.25135416288E+02  0.00000000000E+00 0. -1.
        -11    1    4    4    0    0 -0.76757442927E+01  0.50091267464E+02  0.45295958749E+02  0.67968934121E+02  0.00000000000E+00 0.  1.
         11    1    4    4    0    0  0.20240195502E+02 -0.53002056680E+00 -0.32029850549E+02  0.37892713837E+02  0.00000000000E+00 0. -1.
         -1    1    1    2    0  502 -0.11231722838E+02 -0.17795003197E+02  0.15417638228E+02  0.26086726610E+02  0.00000000000E+00 0.  1.
<scales pt_clust_5="13000.00000" pt_clust_6="13000.00000" pt_clust_7="13000.00000" pt_clust_8="13000.00000" pt_clust_9="21.04315"></scales>
<clustering>
<clus scale="   21.043">  2  9  1 -1</clus>
<clus scale="   90.929">  5  6 -1 -1</clus>
<clus scale="   91.742">  7  8 -1 -1</clus>
<clus scale="   98.134">  1  5  2 -1</clus>
<clus scale="   21.043">  2  5  1 -1</clus>
</clustering>
</event>
<event>
 9    1  0.1426358E-005  0.2246672E+03  0.7546771E-02  0.1132586E+00
         -1   -1    0    0    0  501 -0.00000000000E+00  0.00000000000E+00  0.22171391024E+03  0.22171391024E+03  0.00000000000E+00 0.  1.
         21   -1    0    0  501  502  0.00000000000E+00 -0.00000000000E+00 -0.87880772975E+03  0.87880772975E+03  0.00000000000E+00 0.  1.
         23    2    1    2    0    0 -0.76092215035E+02  0.16399258547E+03  0.59685753411E+01  0.20252517565E+03  0.91089129999E+02 0.  0.
         23    2    1    2    0    0 -0.55545273817E+02 -0.23644807339E+03 -0.58684985522E+02  0.27522019704E+03  0.11536576823E+03 0.  0.
        -11    1    4    4    0    0 -0.23682963922E+02 -0.22302767983E+02  0.27101139675E+02  0.42341091289E+02  0.00000000000E+00 0. -1.
         11    1    4    4    0    0 -0.31862309894E+02 -0.21414530540E+03 -0.85786125197E+02  0.23287910575E+03  0.00000000000E+00 0.  1.
        -13    1    3    3    0    0 -0.60049091988E+02  0.36278177414E+02 -0.15967954150E+02  0.71951199885E+02  0.00000000000E+00 0.  1.
         13    1    3    3    0    0 -0.16043123047E+02  0.12771440805E+03  0.21936529491E+02  0.13057397577E+03  0.00000000000E+00 0. -1.
         -1    1    1    2    0  502  0.13163748885E+03  0.72455487918E+02 -0.60437740933E+03  0.62277626730E+03  0.00000000000E+00 0.  1.
<scales pt_clust_5="13000.00000" pt_clust_6="13000.00000" pt_clust_7="13000.00000" pt_clust_8="13000.00000" pt_clust_9="150.26053"></scales>
<clustering>
<clus scale="   91.089">  7  8 -1 -1</clus>
<clus scale="  115.366">  5  6 -1 -1</clus>
<clus scale="  150.261">  2  9  1 -1</clus>
<clus scale="  213.221">  1  7  2 -1</clus>
<clus scale="  150.261">  2  5  1 -1</clus>
</clustering>
</event>
<event>
 9    1  0.1426358E-005  0.9596931E+02  0.7546771E-02  0.1292617E+00
          1   -1    0    0  502    0 -0.00000000000E+00  0.00000000000E+00  0.37938213902E+03  0.37938213902E+03  0.00000000000E+00 0. -1.
         21   -1    0    0  501  502  0.00000000000E+00 -0.00000000000E+00 -0.64418507002E+02  0.64418507002E+02  0.00000000000E+00 0. -1.
         23    2    1    2    0    0 -0.21587474252E+02  0.27963442316E+02  0.31705130216E+03  0.33153664638E+03  0.90260991238E+02 0.  0.
         23    2    1    2    0    0  0.22125857479E+02 -0.47080330643E+01  0.79264211843E+01  0.86938401110E+02  0.83568763843E+02 0.  0.
        -11    1    3    3    0    0 -0.51181601609E+01  0.58760473668E+02  0.15687021283E+03  0.16759251923E+03  0.00000000000E+00 0. -1.
         11    1    3    3    0    0 -0.16469314091E+02 -0.30797031351E+02  0.16018108934E+03  0.16394412715E+03  0.00000000000E+00 0.  1.
        -11    1    4    4    0    0  0.45483255827E+02  0.11392462173E+01  0.29816497802E+02  0.54397132128E+02  0.00000000000E+00 0.  1.
         11    1    4    4    0    0 -0.23357398348E+02 -0.58472792817E+01 -0.21890076618E+02  0.32541268982E+02  0.00000000000E+00 0. -1.
          1    1    1    2  501    0 -0.53838322662E+00 -0.23255409252E+02 -0.10014091327E+02  0.25325598533E+02  0.00000000000E+00 0. -1.
<scales pt_clust_5="13000.00000" pt_clust_6="13000.00000" pt_clust_7="13000.00000" pt_clust_8="13000.00000" pt_clust_9="23.26164"></scales>
<clustering>
<clus scale="   23.262">  2  9  1 -1</clus>
<clus scale="   83.569">  7  8 -1 -1</clus>
<clus scale="   89.704">  2  7  1 -1</clus>
<clus scale="   90.261">  5  6 -1 -1</clus>
<clus scale="   23.262">  2  5  1 -1</clus>
</clustering>
</event>
<event>
 9    1  0.1835054E-005  0.1127082E+03  0.7546771E-02  0.1258866E+00
          1   -1    0    0  502    0 -0.00000000000E+00  0.00000000000E+00  0.42186288546E+03  0.42186288546E+03  0.00000000000E+00 0. -1.
         21   -1    0    0  501  502  0.00000000000E+00 -0.00000000000E+00 -0.11195146987E+03  0.11195146987E+03  0.00000000000E+00 0. -1.
         23    2    1    2    0    0 -0.15419283642E+02  0.55550457884E+02  0.36349556536E+03  0.38135198984E+03  0.99883464288E+02 0.  0.
         23    2    1    2    0    0  0.51063704777E+01 -0.19932694472E+02 -0.92703905030E+01  0.94680962708E+02  0.91951928914E+02 0.  0.
        -11    1    4    4    0    0 -0.43236631992E+02 -0.68953056770E+01 -0.12909621250E+00  0.43783196003E+02  0.00000000000E+00 0. -1.
         11    1    4    4    0    0  0.48343002469E+02 -0.13037388795E+02 -0.91412942905E+01  0.50897766706E+02  0.00000000000E+00 0.  1.
        -13    1    3    3    0    0  0.33797847385E+02  0.13766241710E+02  0.53873820189E+02  0.65070672353E+02  0.00000000000E+00 0.  1.
         13    1    3    3    0    0 -0.49217131027E+02  0.41784216174E+02  0.30962174517E+03  0.31628131748E+03  0.00000000000E+00 0. -1.
          1    1    1    2  501    0  0.10312913164E+02 -0.35617763412E+02 -0.44313759261E+02  0.57781402789E+02  0.00000000000E+00 0. -1.
<scales pt_clust_5="13000.00000" pt_clust_6="13000.00000" pt_clust_7="13000.00000" pt_clust_8="13000.00000" pt_clust_9="37.08074"></scales>
<clustering>
<clus scale="   37.081">  2  9  1 -1</clus>
<clus scale="   91.952">  5  6 -1 -1</clus>
<clus scale="   99.883">  7  8 -1 -1</clus>
<clus scale="  105.743">  2  5  1 -1</clus>
<clus scale="   37.081">  2  5  1 -1</clus>
</clustering>
</event>
<event>
 9    1  0.1426358E-005  0.1005376E+03  0.7546771E-02  0.1282815E+00
          4   -1    0    0  502    0 -0.00000000000E+00  0.00000000000E+00  0.48123230764E+03  0.48123230764E+03  0.00000000000E+00 0. -1.
         21   -1    0    0  501  502  0.00000000000E+00 -0.00000000000E+00 -0.40366317107E+02  0.40366317107E+02  0.00000000000E+00 0. -1.
         23    2    1    2    0    0 -0.12812360759E+02 -0.16270190768E+01  0.26385369809E+03  0.27937702689E+03  0.90917244671E+02 0.  0.
         23    2    1    2    0    0  0.31358416542E+02  0.38776105699E+02  0.16638801336E+03  0.19936268830E+03  0.97844641329E+02 0.  0.
        -13    1    3    3    0    0  0.85778382413E+01  0.40732337285E+02  0.15766897175E+03  0.16307117238E+03  0.00000000000E+00 0. -1.
         13    1    3    3    0    0 -0.21390199000E+02 -0.42359356361E+02  0.10618472634E+03  0.11630585450E+03  0.00000000000E+00 0.  1.
        -13    1    4    4    0    0  0.55707714367E+02  0.21480775939E+02  0.46126969997E+02  0.75448462781E+02  0.00000000000E+00 0.  1.
         13    1    4    4    0    0 -0.24349297826E+02  0.17295329760E+02  0.12026104336E+03  0.12391422552E+03  0.00000000000E+00 0. -1.
          4    1    1    2  501    0 -0.18546055783E+02 -0.37149086622E+02  0.10624279082E+02  0.42858909552E+02  0.00000000000E+00 0. -1.
<scales pt_clust_5="13000.00000" pt_clust_6="13000.00000" pt_clust_7="13000.00000" pt_clust_8="13000.00000" pt_clust_9="41.52121"></scales>
<clustering>
<clus scale="   41.521">  2  9  1 -1</clus>
<clus scale="   90.917">  5  6 -1 -1</clus>
<clus scale="   93.809">  1  5  2 -1</clus>
<clus scale="   97.845">  7  8 -1 -1</clus>
<clus scale="   41.521">  2  5  1 -1</clus>
</clustering>
</event>
<event>
 9    1  0.1426358E-005  0.1379959E+03  0.7546771E-02  0.1216574E+00
         -1   -1    0    0    0  501 -0.00000000000E+00  0.00000000000E+00  0.19089753206E+03  0.19089753206E+03  0.00000000000E+00 0.  1.
         21   -1    0    0  501  502  0.00000000000E+00 -0.00000000000E+00 -0.17518787924E+03  0.17518787924E+03  0.00000000000E+00 0. -1.
         23    2    1    2    0    0  0.40969450887E+02 -0.86806898108E+02  0.99803564839E+02  0.16758316427E+03  0.94389787191E+02 0.  0.
         23    2    1    2    0    0 -0.38493681602E+02  0.11256439058E+03 -0.84571817271E+02  0.17262163178E+03  0.92159263951E+02 0.  0.
        -11    1    3    3    0    0  0.22497256369E+02 -0.65648866825E+02  0.11599058721E+03  0.13516551550E+03  0.00000000000E+00 0.  1.
         11    1    3    3    0    0  0.18472194519E+02 -0.21158031283E+02 -0.16187022372E+02  0.32417648764E+02  0.00000000000E+00 0. -1.
        -13    1    4    4    0    0 -0.27264893456E+01  0.59194231272E+02 -0.90422043544E+02  0.10810891138E+03  0.00000000000E+00 0.  1.
         13    1    4    4    0    0 -0.35767192256E+02  0.53370159312E+02  0.58502262733E+01  0.64512720407E+02  0.00000000000E+00 0. -1.
         -1    1    1    2    0  502 -0.24757692857E+01 -0.25757492477E+02  0.47790524457E+00  0.25880615249E+02  0.00000000000E+00 0.  1.
<scales pt_clust_5="13000.00000" pt_clust_6="13000.00000" pt_clust_7="13000.00000" pt_clust_8="13000.00000" pt_clust_9="25.87620"></scales>
<clustering>
<clus scale="   25.876">  2  9  1 -1</clus>
<clus scale="   92.159">  7  8 -1 -1</clus>
<clus scale="   94.390">  5  6 -1 -1</clus>
<clus scale="  136.480">  2  7  1 -1</clus>
<clus scale="   25.876">  2  5  1 -1</clus>
</clustering>
</event>
<event>
 9    1  0.1426358E-005  0.1033670E+03  0.7546771E-02  0.1274490E+00
         21   -1    0    0  501  502  0.00000000000E+00  0.00000000000E+00  0.53881426114E+03  0.53881426114E+03  0.00000000000E+00 0. -1.
         -3   -1    0    0    0  501 -0.00000000000E+00 -0.00000000000E+00 -0.42577109864E+02  0.42577109864E+02  0.00000000000E+00 0.  1.
         23    2    1    2    0    0 -0.57615066517E+02 -0.10133507501E+02  0.68815382763E+02  0.12828289836E+03  0.91097536970E+02 0.  0.
         23    2    1    2    0    0  0.31568733584E+02 -0.10773529867E+02  0.17936938529E+03  0.20281764083E+03  0.88594385633E+02 0.  0.
        -11    1    3    3    0    0  0.14757210646E+02 -0.16252747999E+02  0.47915652265E+02  0.52705187748E+02  0.00000000000E+00 0. -1.
         11    1    3    3    0    0 -0.72372277163E+02  0.61192404976E+01  0.20899730498E+02  0.75577710609E+02  0.00000000000E+00 0.  1.
        -13    1    4    4    0    0 -0.15935769934E+02 -0.22720612775E+02  0.15507262535E+02  0.31790725056E+02  0.00000000000E+00 0.  1.
         13    1    4    4    0    0  0.47504503518E+02  0.11947082908E+02  0.16386212276E+03  0.17102691577E+03  0.00000000000E+00 0. -1.
         -3    1    1    2    0  502  0.26046332933E+02  0.20907037368E+02  0.24805238322E+03  0.25029083182E+03  0.00000000000E+00 0.  1.
<scales pt_clust_5="13000.00000" pt_clust_6="13000.00000" pt_clust_7="13000.00000" pt_clust_8="13000.00000" pt_clust_9="33.39934"></scales>
<clustering>
<clus scale="   33.399">  1  9  2 -1</clus>
<clus scale="   88.594">  7  8 -1 -1</clus>
<clus scale="   91.098">  5  6 -1 -1</clus>
<clus scale="  101.168">  1  7  2 -1</clus>
<clus scale="   33.399">  1  5  2 -1</clus>
</clustering>
</event>
<event>
 9    1  0.2513528E-005  0.1700280E+03  0.7546771E-02  0.1177859E+00
         21   -1    0    0  501  502  0.00000000000E+00  0.00000000000E+00  0.57542900394E+03  0.57542900394E+03  0.00000000000E+00 0.  1.
          2   -1    0    0  502    0 -0.00000000000E+00 -0.00000000000E+00 -0.45813112850E+03  0.45813112850E+03  0.00000000000E+00 0.  1.
         23    2    1    2    0    0  0.13467936262E+03  0.44971576730E+02 -0.40971699739E+03  0.44312244290E+03  0.91260659756E+02 0.  0.
         23    2    1    2    0    0 -0.17627223537E+03 -0.19741024745E+02  0.31394724139E+03  0.37188709268E+03  0.90969941768E+02 0.  0.
        -11    1    4    4    0    0 -0.19818643420E+02 -0.33985754030E+02  0.91085152868E+02  0.99218522348E+02  0.00000000000E+00 0.  1.
         11    1    4    4    0    0 -0.15645359195E+03  0.14244729285E+02  0.22286208853E+03  0.27266857034E+03  0.00000000000E+00 0. -1.
        -11    1    3    3    0    0  0.14512138262E+03  0.26802758967E+02 -0.36638223145E+03  0.39498676321E+03  0.00000000000E+00 0.  1.
         11    1    3    3    0    0 -0.10442020002E+02  0.18168817762E+02 -0.43334765940E+02  0.48135679695E+02  0.00000000000E+00 0. -1.
          2    1    1    2  501    0  0.41592872747E+02 -0.25230551985E+02  0.21306763144E+03  0.21855059685E+03  0.00000000000E+00 0.  1.
<scales pt_clust_5="13000.00000" pt_clust_6="13000.00000" pt_clust_7="13000.00000" pt_clust_8="13000.00000" pt_clust_9="48.64718"></scales>
<clustering>
<clus scale="   48.647">  1  9  2 -1</clus>
<clus scale="   90.970">  5  6 -1 -1</clus>
<clus scale="   91.261">  7  8 -1 -1</clus>
<clus scale="  169.872">  1  5  2 -1</clus>
<clus scale="   48.647">  1  5  2 -1</clus>
</clustering>
</event>
<event>
 9    1  0.1426358E-005  0.1196198E+03  0.7546771E-02  0.1244046E+00
         21   -1    0    0  501  502  0.00000000000E+00  0.00000000000E+00  0.67265662830E+02  0.67265662830E+02  0.00000000000E+00 0. -1.
          1   -1    0    0  502    0 -0.00000000000E+00 -0.00000000000E+00 -0.63422322145E+03  0.63422322145E+03  0.00000000000E+00 0. -1.
         23    2    1    2    0    0  0.57364004082E+02 -0.46978557790E+02 -0.51149945966E+03  0.52476877953E+03  0.90845808297E+02 0.  0.
         23    2    1    2    0    0 -0.77093576926E+02  0.60342462093E+02 -0.22603569967E+02  0.13613352989E+03  0.91851969229E+02 0.  0.
        -11    1    3    3    0    0  0.74265670150E+02 -0.10573313095E+02 -0.28312880546E+03  0.29289777260E+03  0.00000000000E+00 0. -1.
         11    1    3    3    0    0 -0.16901666068E+02 -0.36405244694E+02 -0.22837065420E+03  0.23187100693E+03  0.00000000000E+00 0.  1.
        -13    1    4    4    0    0 -0.40816129009E+02  0.10103208952E+02 -0.52555861382E+02  0.67306387394E+02  0.00000000000E+00 0.  1.
         13    1    4    4    0    0 -0.36277447917E+02  0.50239253141E+02  0.29952291416E+02  0.68827142499E+02  0.00000000000E+00 0. -1.
          1    1    1    2  501    0  0.19729572844E+02 -0.13363904304E+02 -0.32854528994E+02  0.40586574852E+02  0.00000000000E+00 0. -1.
<scales pt_clust_5="13000.00000" pt_clust_6="13000.00000" pt_clust_7="13000.00000" pt_clust_8="13000.00000" pt_clust_9="23.82961"></scales>
<clustering>
<clus scale="   23.830">  1  9  2 -1</clus>
<clus scale="   90.846">  5  6 -1 -1</clus>
<clus scale="   91.852">  7  8 -1 -1</clus>
<clus scale="  118.849">  2  5  1 -1</clus>
<clus scale="   23.830">  1  5  2 -1</clus>
</clustering>
</event>
<event>
 9    1  0.1426358E-005  0.2392888E+03  0.7546771E-02  0.1120528E+00
          2   -1    0    0  502    0 -0.00000000000E+00  0.00000000000E+00  0.33321406170E+03  0.33321406170E+03  0.00000000000E+00 0. -1.
         21   -1    0    0  501  502  0.00000000000E+00 -0.00000000000E+00 -0.25917433184E+03  0.25917433184E+03  0.00000000000E+00 0.  1.
         23    2    1    2    0    0 -0.14358523005E+03 -0.13577469352E+03  0.44197017925E+02  0.22222499591E+03  0.91537351519E+02 0.  0.
         23    2    1    2    0    0  0.21544076742E+03  0.15044758311E+03 -0.25775681175E+02  0.27812037731E+03  0.87391984790E+02 0.  0.
        -11    1    3    3    0    0 -0.11974810427E+03 -0.59136107736E+02  0.47888093712E+02  0.14188008047E+03  0.00000000000E+00 0.  1.
         11    1    3    3    0    0 -0.23837125781E+02 -0.76638585780E+02 -0.36910757863E+01  0.80344915436E+02  0.00000000000E+00 0. -1.
        -13    1    4    4    0    0  0.13950137395E+03  0.11986622216E+03 -0.53731047045E+02  0.19161307358E+03  0.00000000000E+00 0.  1.
         13    1    4    4    0    0  0.75939393474E+02  0.30581360943E+02  0.27955365870E+02  0.86507303733E+02  0.00000000000E+00 0. -1.
          2    1    1    2  501    0 -0.71855537368E+02 -0.14672889592E+02  0.55618393109E+02  0.92043020330E+02  0.00000000000E+00 0. -1.
<scales pt_clust_5="13000.00000" pt_clust_6="13000.00000" pt_clust_7="13000.00000" pt_clust_8="13000.00000" pt_clust_9="73.33838"></scales>
<clustering>
<clus scale="   73.338">  2  9  1 -1</clus>
<clus scale="   87.392">  7  8 -1 -1</clus>
<clus scale="   91.537">  5  6 -1 -1</clus>
<clus scale="  237.734">  2  7  1 -1</clus>
<clus scale="   73.338">  2  5  1 -1</clus>
</clustering>
</event>
<event>
 9    1  0.1426358E-005  0.1072294E+03  0.7546771E-02  0.1266217E+00
         21   -1    0    0  501  502  0.00000000000E+00  0.00000000000E+00  0.13434810612E+03  0.13434810612E+03  0.00000000000E+00 0. -1.
          2   -1    0    0  502    0 -0.00000000000E+00 -0.00000000000E+00 -0.17886314111E+03  0.17886314111E+03  0.00000000000E+00 0. -1.
         23    2    1    2    0    0  0.39961058638E+02  0.65362393578E+02 -0.80266345238E+02  0.14283646062E+03  0.89946870996E+02 0.  0.
         23    2    1    2    0    0 -0.31085634645E+01 -0.33294997214E+02 -0.17057240635E+02  0.98436150572E+02  0.90997287186E+02 0.  0.
        -11    1    4    4    0    0 -0.44470967264E+02 -0.10718384186E+01 -0.90602873690E+01  0.45397186854E+02  0.00000000000E+00 0.  1.
         11    1    4    4    0    0  0.41362403800E+02 -0.32223158795E+02 -0.79969532659E+01  0.53038963719E+02  0.00000000000E+00 0. -1.
        -13    1    3    3    0    0 -0.20432879575E+02  0.31186905120E+02 -0.74091354181E+00  0.37291749377E+02  0.00000000000E+00 0. -1.
         13    1    3    3    0    0  0.60393938213E+02  0.34175488457E+02 -0.79525431696E+02  0.10554471124E+03  0.00000000000E+00 0.  1.
          2    1    1    2  501    0 -0.36852495174E+02 -0.32067396364E+02  0.52808550879E+02  0.71938636045E+02  0.00000000000E+00 0. -1.
<scales pt_clust_5="13000.00000" pt_clust_6="13000.00000" pt_clust_7="13000.00000" pt_clust_8="13000.00000" pt_clust_9="48.85104"></scales>
<clustering>
<clus scale="   48.851">  1  9  2 -1</clus>
<clus scale="   89.947">  7  8 -1 -1</clus>
<clus scale="   90.997">  5  6 -1 -1</clus>
<clus scale="  106.339">  2  7  1 -1</clus>
<clus scale="   48.851">  1  5  2 -1</clus>
</clustering>
</event>
<event>
 9    1  0.1426358E-005  0.1245847E+03  0.7546771E-02  0.1235835E+00
         21   -1    0    0  501  502  0.00000000000E+00  0.00000000000E+00  0.10104893762E+03  0.10104893762E+03  0.00000000000E+00 0.  1.
          1   -1    0    0  502    0 -0.00000000000E+00 -0.00000000000E+00 -0.33599019022E+03  0.33599019022E+03  0.00000000000E+00 0. -1.
         23    2    1    2    0    0  0.90975714790E+02  0.16679758858E+02 -0.25346151002E+03  0.28504070068E+03  0.91927520074E+02 0.  0.
         23    2    1    2    0    0 -0.55990867720E+02  0.68423937573E+01  0.46454972108E+01  0.10761667237E+03  0.91531261910E+02 0.  0.
        -11    1    4    4    0    0 -0.44885452486E+02  0.29699062678E+02  0.37854497194E+02  0.65800464486E+02  0.00000000000E+00 0.  1.
         11    1    4    4    0    0 -0.11105415234E+02 -0.22856668921E+02 -0.33208999983E+02  0.41816207881E+02  0.00000000000E+00 0. -1.
        -13    1    3    3    0    0  0.55965096668E+02 -0.10982148861E+02 -0.22500160442E+03  0.23211725837E+03  0.00000000000E+00 0.  1.
         13    1    3    3    0    0  0.35010618122E+02  0.27661907718E+02 -0.28459905594E+02  0.52923442313E+02  0.00000000000E+00 0. -1.
          1    1    1    2  501    0 -0.34984847069E+02 -0.23522152615E+02  0.13874760202E+02  0.44381754796E+02  0.00000000000E+00 0. -1.
<scales pt_clust_5="13000.00000" pt_clust_6="13000.00000" pt_clust_7="13000.00000" pt_clust_8="13000.00000" pt_clust_9="42.15722"></scales>
<clustering>
<clus scale="   42.157">  1  9  2 -1</clus>
<clus scale="   91.531">  5  6 -1 -1</clus>
<clus scale="   91.928">  7  8 -1 -1</clus>
<clus scale="  124.293">  1  5  2 -1</clus>
<clus scale="   42.157">  1  5  2 -1</clus>
</clustering>
</event>
<event>
 9    1  0.1426358E-005  0.1284404E+03  0.7546771E-02  0.1242533E+00
         21   -1    0    0  501  502  0.00000000000E+00  0.00000000000E+00  0.95183190648E+02  0.95183190648E+02  0.00000000000E+00 0. -1.
          1   -1    0    0  502    0 -0.00000000000E+00 -0.00000000000E+00 -0.51391682379E+03  0.51391682379E+03  0.00000000000E+00 0. -1.
         23    2    1    2    0    0 -0.43234695020E+02 -0.83927313966E+01 -0.31541776073E+03  0.34146242137E+03  0.12316064561E+03 0.  0.
         23    2    1    2    0    0  0.17054716781E+02 -0.51643515332E+02 -0.15214310476E+03  0.18594401436E+03  0.92031169228E+02 0.  0.
        -13    1    3    3    0    0 -0.23523023031E+02 -0.65573052483E+02 -0.18569886927E+03  0.19833614868E+03  0.00000000000E+00 0. -1.
         13    1    3    3    0    0 -0.19711671989E+02  0.57180321087E+02 -0.12971889147E+03  0.14312627270E+03  0.00000000000E+00 0.  1.
        -13    1    4    4    0    0 -0.33050207348E+02 -0.41369029380E+02 -0.56174567896E+02  0.77196469323E+02  0.00000000000E+00 0. -1.
         13    1    4    4    0    0  0.50104924128E+02 -0.10274485952E+02 -0.95968536865E+02  0.10874754504E+03  0.00000000000E+00 0.  1.
          1    1    1    2  501    0  0.26179978239E+02  0.60036246728E+02  0.48827232357E+02  0.81693578704E+02  0.00000000000E+00 0. -1.
<scales pt_clust_5="13000.00000" pt_clust_6="13000.00000" pt_clust_7="13000.00000" pt_clust_8="13000.00000" pt_clust_9="65.49612"></scales>
<clustering>
<clus scale="   65.496">  1  9  2 -1</clus>
<clus scale="   92.031">  7  8 -1 -1</clus>
<clus scale="   98.985">  1  7  2 -1</clus>
<clus scale="  123.161">  5  6 -1 -1</clus>
<clus scale="   65.496">  1  5  2 -1</clus>
</clustering>
</event>
<event>
 9    1  0.1426358E-005  0.1203418E+03  0.7546771E-02  0.1243169E+00
          1   -1    0    0  502    0 -0.00000000000E+00  0.00000000000E+00  0.10918756898E+03  0.10918756898E+03  0.00000000000E+00 0. -1.
         21   -1    0    0  501  502  0.00000000000E+00 -0.00000000000E+00 -0.24804714245E+03  0.24804714245E+03  0.00000000000E+00 0.  1.
         23    2    1    2    0    0 -0.30148202670E+02  0.59480634439E+02 -0.14475094063E+01  0.11002411200E+03  0.87500571086E+02 0.  0.
         23    2    1    2    0    0  0.46406105898E+02 -0.10959467335E+03 -0.12135564853E+03  0.19213297427E+03  0.89573250927E+02 0.  0.
        -11    1    4    4    0    0  0.67319393790E+02 -0.91198319798E+02 -0.11873723514E+03  0.16415713607E+03  0.00000000000E+00 0.  1.
         11    1    4    4    0    0 -0.20913287892E+02 -0.18396353552E+02 -0.26184133901E+01  0.27975838203E+02  0.00000000000E+00 0. -1.
        -13    1    3    3    0    0 -0.59743902154E+02  0.45117210954E+02  0.92415454719E+01  0.75434095285E+02  0.00000000000E+00 0. -1.
         13    1    3    3    0    0  0.29595699483E+02  0.14363423485E+02 -0.10689054878E+02  0.34590016714E+02  0.00000000000E+00 0.  1.
          1    1    1    2  501    0 -0.16257903228E+02  0.50114038912E+02 -0.16056415540E+02  0.55077625161E+02  0.00000000000E+00 0. -1.
<scales pt_clust_5="13000.00000" pt_clust_6="13000.00000" pt_clust_7="13000.00000" pt_clust_8="13000.00000" pt_clust_9="52.68528"></scales>
<clustering>
<clus scale="   52.685">  2  9  1 -1</clus>
<clus scale="   87.501">  7  8 -1 -1</clus>
<clus scale="   89.573">  5  6 -1 -1</clus>
<clus scale="  118.807">  1  7  2 -1</clus>
<clus scale="   52.685">  2  5  1 -1</clus>
</clustering>
</event>
<event>
 9    1  0.1426358E-005  0.1039347E+03  0.7546771E-02  0.1272412E+00
         21   -1    0    0  501  502  0.00000000000E+00  0.00000000000E+00  0.49581404693E+03  0.49581404693E+03  0.00000000000E+00 0. -1.
         -3   -1    0    0    0  501 -0.00000000000E+00 -0.00000000000E+00 -0.11919571280E+03  0.11919571280E+03  0.00000000000E+00 0.  1.
         23    2    1    2    0    0 -0.47405783833E+02  0.97725364071E+01 -0.68582217608E+02  0.12430379996E+03  0.91679350479E+02 0.  0.
         23    2    1    2    0    0  0.27121519958E+02 -0.72171101039E+02  0.17228348929E+03  0.21001261249E+03  0.92083940270E+02 0.  0.
        -11    1    3    3    0    0 -0.50412171841E+01 -0.37721543774E+02 -0.14297192674E+02  0.40653886084E+02  0.00000000000E+00 0. -1.
         11    1    3    3    0    0 -0.42364566648E+02  0.47494080181E+02 -0.54285024934E+02  0.83649913877E+02  0.00000000000E+00 0.  1.
        -13    1    4    4    0    0 -0.55450607275E+01  0.20771094271E+02  0.27919002325E+02  0.35237150091E+02  0.00000000000E+00 0.  1.
         13    1    4    4    0    0  0.32666580686E+02 -0.92942195310E+02  0.14436448696E+03  0.17477546240E+03  0.00000000000E+00 0. -1.
         -3    1    1    2    0  502  0.20284263874E+02  0.62398564632E+02  0.27291706245E+03  0.28069334728E+03  0.00000000000E+00 0.  1.
<scales pt_clust_5="13000.00000" pt_clust_6="13000.00000" pt_clust_7="13000.00000" pt_clust_8="13000.00000" pt_clust_9="65.61274"></scales>
<clustering>
<clus scale="   65.613">  1  9  2 -1</clus>
<clus scale="   91.679">  5  6 -1 -1</clus>
<clus scale="   92.084">  7  8 -1 -1</clus>
<clus scale="  103.576">  2  5  1 -1</clus>
<clus scale="   65.613">  1  5  2 -1</clus>
</clustering>
</event>
<event>
 9    1  0.1426358E-005  0.2297438E+03  0.7546771E-02  0.1127056E+00
         21   -1    0    0  501  502  0.00000000000E+00  0.00000000000E+00  0.38457900956E+03  0.38457900956E+03  0.00000000000E+00 0.  1.
         -4   -1    0    0    0  501 -0.00000000000E+00 -0.00000000000E+00 -0.93544723114E+03  0.93544723114E+03  0.00000000000E+00 0.  1.
         23    2    1    2    0    0  0.61517589888E+02  0.20624902524E+03 -0.71117912876E+03  0.74857694396E+03  0.90931917176E+02 0.  0.
         23    2    1    2    0    0 -0.98283372082E+02 -0.17569247310E+03 -0.14457023963E+03  0.26284284947E+03  0.87511959153E+02 0.  0.
        -11    1    3    3    0    0  0.10715749356E+01  0.14379540390E+03 -0.49842967642E+03  0.51875852648E+03  0.00000000000E+00 0.  1.
         11    1    3    3    0    0  0.60446014953E+02  0.62453621337E+02 -0.21274945234E+03  0.22981841748E+03  0.00000000000E+00 0. -1.
        -13    1    4    4    0    0 -0.19512391649E+02 -0.89872342002E+02 -0.10554137828E+03  0.13998840600E+03  0.00000000000E+00 0. -1.
         13    1    4    4    0    0 -0.78770980433E+02 -0.85820131102E+02 -0.39028861348E+02  0.12285444346E+03  0.00000000000E+00 0.  1.
         -4    1    1    2    0  502  0.36765782194E+02 -0.30556552138E+02  0.30488114681E+03  0.30860644727E+03  0.00000000000E+00 0.  1.
<scales pt_clust_5="13000.00000" pt_clust_6="13000.00000" pt_clust_7="13000.00000" pt_clust_8="13000.00000" pt_clust_9="47.80613"></scales>
<clustering>
<clus scale="   47.806">  1  9  2 -1</clus>
<clus scale="   87.512">  7  8 -1 -1</clus>
<clus scale="   90.932">  5  6 -1 -1</clus>
<clus scale="  228.412">  1  7  2 -1</clus>
<clus scale="   47.806">  1  5  2 -1</clus>
</clustering>
</event>
<event>
 9    1  0.1426358E-005  0.1017083E+03  0.7546771E-02  0.1279445E+00
         21   -1    0    0  501  502  0.00000000000E+00  0.00000000000E+00  0.46099023449E+02  0.46099023449E+02  0.00000000000E+00 0. -1.
          3   -1    0    0  502    0 -0.00000000000E+00 -0.00000000000E+00 -0.58686427870E+03  0.58686427870E+03  0.00000000000E+00 0. -1.
         23    2    1    2    0    0  0.36628286493E+01  0.43427268983E+02 -0.35465361438E+03  0.36662844832E+03  0.82084644833E+02 0.  0.
         23    2    1    2    0    0  0.35232451872E+02 -0.88040012414E+02 -0.10941729717E+03  0.16945780764E+03  0.88042229637E+02 0.  0.
        -11    1    3    3    0    0 -0.34035216150E+02 -0.13948878153E+01 -0.14504697462E+03  0.14899317600E+03  0.00000000000E+00 0. -1.
         11    1    3    3    0    0  0.37698044799E+02  0.44822156798E+02 -0.20960663977E+03  0.21763527231E+03  0.00000000000E+00 0.  1.
        -13    1    4    4    0    0 -0.29483375768E+02 -0.25474215223E+02 -0.39456319844E+02  0.55452739008E+02  0.00000000000E+00 0.  1.
         13    1    4    4    0    0  0.64715827640E+02 -0.62565797191E+02 -0.69960977328E+02  0.11400506863E+03  0.00000000000E+00 0. -1.
          3    1    1    2  501    0 -0.38895280521E+02  0.44612743431E+02 -0.76694343703E+02  0.96877046194E+02  0.00000000000E+00 0. -1.
<scales pt_clust_5="13000.00000" pt_clust_6="13000.00000" pt_clust_7="13000.00000" pt_clust_8="13000.00000" pt_clust_9="59.18733"></scales>
<clustering>
<clus scale="   59.187">  1  9  2 -1</clus>
<clus scale="   82.085">  5  6 -1 -1</clus>
<clus scale="   88.042">  7  8 -1 -1</clus>
<clus scale="   96.597">  2  5  1 -1</clus>
<clus scale="   59.187">  1  5  2 -1</clus>
</clustering>
</event>
<event>
 9    1  0.1426358E-005  0.9726005E+02  0.7546771E-02  0.1288729E+00
         -3   -1    0    0    0  501 -0.00000000000E+00  0.00000000000E+00  0.74280183802E+02  0.74280183802E+02  0.00000000000E+00 0.  1.
         21   -1    0    0  501  502  0.00000000000E+00 -0.00000000000E+00 -0.31093548122E+03  0.31093548122E+03  0.00000000000E+00 0.  1.
         23    2    1    2    0    0  0.26307802102E+02  0.27216706457E+02  0.21253687438E+02  0.10118490859E+03  0.91399217368E+02 0.  0.
         23    2    1    2    0    0  0.15409426681E+01 -0.13743026758E+02 -0.20079578996E+03  0.21907685230E+03  0.86512846798E+02 0.  0.
        -11    1    3    3    0    0  0.26498446685E+02  0.50902231306E+02  0.40851805401E+02  0.70441996232E+02  0.00000000000E+00 0.  1.
         11    1    3    3    0    0 -0.19064458230E+00 -0.23685524850E+02 -0.19598117962E+02  0.30742912361E+02  0.00000000000E+00 0. -1.
        -11    1    4    4    0    0  0.33049892064E+02  0.16055089149E+02 -0.13767485545E+03  0.14249360363E+03  0.00000000000E+00 0.  1.
         11    1    4    4    0    0 -0.31508949396E+02 -0.29798115907E+02 -0.63120934506E+02  0.76583248668E+02  0.00000000000E+00 0. -1.
         -3    1    1    2    0  502 -0.27848744770E+02 -0.13473679698E+02 -0.57113194900E+02  0.64953904129E+02  0.00000000000E+00 0.  1.
<scales pt_clust_5="13000.00000" pt_clust_6="13000.00000" pt_clust_7="13000.00000" pt_clust_8="13000.00000" pt_clust_9="30.93691"></scales>
<clustering>
<clus scale="   30.937">  2  9  1 -1</clus>
<clus scale="   86.513">  7  8 -1 -1</clus>
<clus scale="   91.399">  5  6 -1 -1</clus>
<clus scale="   92.683">  2  7  1 -1</clus>
<clus scale="   30.937">  2  5  1 -1</clus>
</clustering>
</event>
<event>
 9    1  0.1426358E-005  0.1446566E+03  0.7546771E-02  0.1208427E+00
          2   -1    0    0  502    0 -0.00000000000E+00  0.00000000000E+00  0.13948923700E+03  0.13948923700E+03  0.00000000000E+00 0. -1.
         21   -1    0    0  501  502  0.00000000000E+00 -0.00000000000E+00 -0.19425954397E+03  0.19425954397E+03  0.00000000000E+00 0.  1.
         23    2    1    2    0    0  0.33097868920E+02 -0.10239102048E+03  0.25310992024E+02  0.14228295248E+03  0.89579027940E+02 0.  0.
         23    2    1    2    0    0 -0.11254187547E+02  0.11189398187E+03 -0.56416173305E+02  0.15788769774E+03  0.95387738063E+02 0.  0.
        -11    1    4    4    0    0 -0.15382075626E+02  0.20723841504E+02  0.24745878884E+02  0.35755340566E+02  0.00000000000E+00 0. -1.
         11    1    4    4    0    0  0.41278880790E+01  0.91170140367E+02 -0.81162052190E+02  0.12213235718E+03  0.00000000000E+00 0.  1.
        -13    1    3    3    0    0 -0.19010290195E+02 -0.81772099389E+02  0.13956458296E+02  0.85104935815E+02  0.00000000000E+00 0. -1.
         13    1    3    3    0    0  0.52108159115E+02 -0.20618921088E+02  0.11354533727E+02  0.57178016661E+02  0.00000000000E+00 0.  1.
          2    1    1    2  501    0 -0.21843681373E+02 -0.95029613931E+01 -0.23665125682E+02  0.33578130750E+02  0.00000000000E+00 0. -1.
<scales pt_clust_5="13000.00000" pt_clust_6="13000.00000" pt_clust_7="13000.00000" pt_clust_8="13000.00000" pt_clust_9="23.82127"></scales>
<clustering>
<clus scale="   23.821">  2  9  1 -1</clus>
<clus scale="   89.579">  7  8 -1 -1</clus>
<clus scale="   95.388">  5  6 -1 -1</clus>
<clus scale="  140.894">  1  7  2 -1</clus>
<clus scale="   23.821">  2  5  1 -1</clus>
</clustering>
</event>
<event>
 9    1  0.1426358E-005  0.9803071E+02  0.7546771E-02  0.1289876E+00
          1   -1    0    0  502    0 -0.00000000000E+00  0.00000000000E+00  0.50508647195E+03  0.50508647195E+03  0.00000000000E+00 0. -1.
         21   -1    0    0  501  502  0.00000000000E+00 -0.00000000000E+00 -0.62078614478E+02  0.62078614478E+02  0.00000000000E+00 0. -1.
         23    2    1    2    0    0 -0.71995507711E+01 -0.20847295675E+02  0.27722445487E+03  0.29024867856E+03  0.83093042793E+02 0.  0.
         23    2    1    2    0    0 -0.46038869345E+02  0.54127699385E+02  0.17788432776E+03  0.21297622459E+03  0.93094859390E+02 0.  0.
        -13    1    4    4    0    0  0.16619460431E+02  0.46717074492E+02  0.10790503333E+03  0.11875263253E+03  0.00000000000E+00 0.  1.
         13    1    4    4    0    0 -0.62658329777E+02  0.74106248931E+01  0.69979294435E+02  0.94223592064E+02  0.00000000000E+00 0. -1.
        -13    1    3    3    0    0  0.33003197220E+02 -0.10224496691E+02  0.19575570078E+03  0.19878140191E+03  0.00000000000E+00 0.  1.
         13    1    3    3    0    0 -0.40202747991E+02 -0.10622798984E+02  0.81468754093E+02  0.91467276650E+02  0.00000000000E+00 0. -1.
          1    1    1    2  501    0  0.53238420116E+02 -0.33280403710E+02 -0.12100925162E+02  0.63940183276E+02  0.00000000000E+00 0. -1.
<scales pt_clust_5="13000.00000" pt_clust_6="13000.00000" pt_clust_7="13000.00000" pt_clust_8="13000.00000" pt_clust_9="62.78467"></scales>
<clustering>
<clus scale="   62.785">  2  9  1 -1</clus>
<clus scale="   83.093">  7  8 -1 -1</clus>
<clus scale="   88.588">  1  7  2 -1</clus>
<clus scale="   93.095">  5  6 -1 -1</clus>
<clus scale="   62.785">  2  5  1 -1</clus>
</clustering>
</event>
<event>
 9    1  0.1426358E-005  0.9360498E+02  0.7546771E-02  0.1295384E+00
         21   -1    0    0  501  502  0.00000000000E+00  0.00000000000E+00  0.95784786143E+02  0.95784786143E+02  0.00000000000E+00 0. -1.
          2   -1    0    0  502    0 -0.00000000000E+00 -0.00000000000E+00 -0.43643215083E+03  0.43643215083E+03  0.00000000000E+00 0. -1.
         23    2    1    2    0    0  0.96512490576E+01  0.11869382451E+02 -0.35099820772E+03  0.36347407805E+03  0.93164557354E+02 0.  0.
         23    2    1    2    0    0  0.98734376677E+01  0.19016294329E+02 -0.43678986622E+02  0.10351739675E+03  0.91372278815E+02 0.  0.
        -11    1    4    4    0    0  0.14917588084E+02  0.55267524038E+02 -0.27168305269E+02  0.63365214895E+02  0.00000000000E+00 0.  1.
         11    1    4    4    0    0 -0.50441504160E+01 -0.36251229709E+02 -0.16510681354E+02  0.40152181853E+02  0.00000000000E+00 0. -1.
        -13    1    3    3    0    0  0.46871739253E+02  0.20828502165E+02 -0.14156010905E+03  0.15056576940E+03  0.00000000000E+00 0.  1.
         13    1    3    3    0    0 -0.37220490195E+02 -0.89591197135E+01 -0.20943809868E+03  0.21290830865E+03  0.00000000000E+00 0. -1.
          2    1    1    2  501    0 -0.19524686725E+02 -0.30885676780E+02  0.54029829659E+02  0.65225462167E+02  0.00000000000E+00 0. -1.
<scales pt_clust_5="13000.00000" pt_clust_6="13000.00000" pt_clust_7="13000.00000" pt_clust_8="13000.00000" pt_clust_9="36.53955"></scales>
<clustering>
<clus scale="   36.540">  1  9  2 -1</clus>
<clus scale="   91.372">  5  6 -1 -1</clus>
<clus scale="   91.821">  1  5  2 -1</clus>
<clus scale="   93.165">  7  8 -1 -1</clus>
<clus scale="   36.540">  1  5  2 -1</clus>
</clustering>
</event>
<event>
 9    1  0.1426358E-005  0.1153448E+03  0.7546771E-02  0.1254808E+00
         21   -1    0    0  501  502  0.00000000000E+00  0.00000000000E+00  0.41371046238E+03  0.41371046238E+03  0.00000000000E+00 0.  1.
          1   -1    0    0  502    0 -0.00000000000E+00 -0.00000000000E+00 -0.41183053202E+02  0.41183053202E+02  0.00000000000E+00 0. -1.
         23    2    1    2    0    0  0.29795425024E+02 -0.36350276147E+02  0.10095512309E+03  0.14534423426E+03  0.93401818104E+02 0.  0.
         23    2    1    2    0    0 -0.19706333443E+02  0.60192100969E+02  0.20320774594E+03  0.23644707391E+03  0.10296796663E+03 0.  0.
        -11    1    3    3    0    0 -0.26985426132E+02  0.91848527602E+01  0.13431825520E+02  0.31511722907E+02  0.00000000000E+00 0. -1.
         11    1    3    3    0    0  0.56780851156E+02 -0.45535128907E+02  0.87523297573E+02  0.11383251135E+03  0.00000000000E+00 0.  1.
        -13    1    4    4    0    0  0.16532673332E+02  0.74181992204E+02  0.16638890275E+03  0.18292502347E+03  0.00000000000E+00 0.  1.
         13    1    4    4    0    0 -0.36239006775E+02 -0.13989891235E+02  0.36818843195E+02  0.53522050438E+02  0.00000000000E+00 0. -1.
          1    1    1    2  501    0 -0.10089091581E+02 -0.23841824822E+02  0.68364540143E+02  0.73102207414E+02  0.00000000000E+00 0. -1.
<scales pt_clust_5="13000.00000" pt_clust_6="13000.00000" pt_clust_7="13000.00000" pt_clust_8="13000.00000" pt_clust_9="25.88865"></scales>
<clustering>
<clus scale="   25.889">  1  9  2 -1</clus>
<clus scale="   93.402">  5  6 -1 -1</clus>
<clus scale="  102.968">  7  8 -1 -1</clus>
<clus scale="  106.892">  2  5  1 -1</clus>
<clus scale="   25.889">  1  5  2 -1</clus>
</clustering>
</event>
<event>
 9    1  0.1426358E-005  0.1020015E+03  0.7546771E-02  0.1278208E+00
         21   -1    0    0  501  502  0.00000000000E+00  0.00000000000E+00  0.31690262583E+03  0.31690262583E+03  0.00000000000E+00 0. -1.
          1   -1    0    0  502    0 -0.00000000000E+00 -0.00000000000E+00 -0.41904850762E+03  0.41904850762E+03  0.00000000000E+00 0. -1.
         23    2    1    2    0    0  0.50187682078E+02 -0.93705988815E+01 -0.31585090189E+03  0.33174848988E+03  0.87684985935E+02 0.  0.
         23    2    1    2    0    0 -0.14062252528E+02  0.28980568958E+02 -0.68384574789E+02  0.11913399021E+03  0.92080601812E+02 0.  0.
        -11    1    3    3    0    0  0.17240161708E+02  0.39090214477E+02 -0.14191869325E+03  0.14820993063E+03  0.00000000000E+00 0. -1.
         11    1    3    3    0    0  0.32947520370E+02 -0.48460813358E+02 -0.17393220864E+03  0.18353855925E+03  0.00000000000E+00 0.  1.
        -13    1    4    4    0    0 -0.36183795190E+02  0.46474282493E+02 -0.18338143556E+02  0.61688033497E+02  0.00000000000E+00 0.  1.
         13    1    4    4    0    0  0.22121542662E+02 -0.17493713535E+02 -0.50046431233E+02  0.57445956709E+02  0.00000000000E+00 0. -1.
          1    1    1    2  501    0 -0.36125429550E+02 -0.19609970077E+02  0.28208959489E+03  0.28506865336E+03  0.00000000000E+00 0. -1.
<scales pt_clust_5="13000.00000" pt_clust_6="13000.00000" pt_clust_7="13000.00000" pt_clust_8="13000.00000" pt_clust_9="41.10471"></scales>
<clustering>
<clus scale="   41.105">  1  9  2 -1</clus>
<clus scale="   87.685">  5  6 -1 -1</clus>
<clus scale="   92.081">  7  8 -1 -1</clus>
<clus scale="   98.052">  2  5  1 -1</clus>
<clus scale="   41.105">  1  5  2 -1</clus>
</clustering>
</event>
<event>
 9    1  0.1426358E-005  0.1059518E+03  0.7546771E-02  0.1268696E+00
         -3   -1    0    0    0  501 -0.00000000000E+00  0.00000000000E+00  0.47191575063E+02  0.47191575063E+02  0.00000000000E+00 0.  1.
         21   -1    0    0  501  502  0.00000000000E+00 -0.00000000000E+00 -0.48347623462E+03  0.48347623462E+03  0.00000000000E+00 0. -1.
         23    2    1    2    0    0 -0.53417687520E+02 -0.47784867813E+01 -0.49545688909E+02  0.11982345574E+03  0.95008431095E+02 0.  0.
         23    2    1    2    0    0  0.29907201696E+02 -0.30603409256E+01 -0.20608323919E+03  0.22849665456E+03  0.94003262018E+02 0.  0.
        -11    1    4    4    0    0 -0.59200093465E+01  0.25909140597E+02 -0.12252571686E+02  0.29265262515E+02  0.00000000000E+00 0.  1.
         11    1    4    4    0    0  0.35827211042E+02 -0.28969481523E+02 -0.19383066751E+03  0.19923139205E+03  0.00000000000E+00 0. -1.
        -13    1    3    3    0    0 -0.55137432875E+02  0.36048100204E+02 -0.42398013337E+02  0.78340242323E+02  0.00000000000E+00 0.  1.
         13    1    3    3    0    0  0.17197453544E+01 -0.40826586986E+02 -0.71476755724E+01  0.41483213413E+02  0.00000000000E+00 0. -1.
         -3    1    1    2    0  502  0.23510485824E+02  0.78388277069E+01 -0.18065573145E+03  0.18234769938E+03  0.00000000000E+00 0.  1.
<scales pt_clust_5="13000.00000" pt_clust_6="13000.00000" pt_clust_7="13000.00000" pt_clust_8="13000.00000" pt_clust_9="24.78286"></scales>
<clustering>
<clus scale="   24.783">  2  9  1 -1</clus>
<clus scale="   94.003">  5  6 -1 -1</clus>
<clus scale="   95.008">  7  8 -1 -1</clus>
<clus scale="  105.051">  2  5  1 -1</clus>
<clus scale="   24.783">  2  5  1 -1</clus>
</clustering>
</event>
<event>
 9    1  0.1426358E-005  0.2819358E+03  0.7546771E-02  0.1137695E+00
         -2   -1    0    0    0  501 -0.00000000000E+00  0.00000000000E+00  0.57023472916E+03  0.57023472916E+03  0.00000000000E+00 0.  1.
         21   -1    0    0  501  502  0.00000000000E+00 -0.00000000000E+00 -0.27811669138E+03  0.27811669138E+03  0.00000000000E+00 0. -1.
         23    2    1    2    0    0 -0.67972073461E+01  0.13452904552E+02 -0.59921714698E+02  0.11255721177E+03  0.94081514442E+02 0.  0.
         23    2    1    2    0    0  0.39023229657E+02  0.25432823207E+03  0.37647550273E+03  0.46497626340E+03  0.90903571380E+02 0.  0.
        -13    1    4    4    0    0  0.49931858025E+02  0.61444737791E+02  0.96659689612E+02  0.12494695612E+03  0.00000000000E+00 0.  1.
         13    1    4    4    0    0 -0.10908628368E+02  0.19288349428E+03  0.27981581312E+03  0.34002930728E+03  0.00000000000E+00 0. -1.
        -13    1    3    3    0    0 -0.29644401152E+02 -0.14218602227E+02  0.96596028925E+01  0.34267580845E+02  0.00000000000E+00 0.  1.
         13    1    3    3    0    0  0.22847193805E+02  0.27671506779E+02 -0.69581317590E+02  0.78289630921E+02  0.00000000000E+00 0. -1.
         -2    1    1    2    0  502 -0.32226022311E+02 -0.26778113662E+03 -0.24435750256E+02  0.27081794537E+03  0.00000000000E+00 0.  1.
<scales pt_clust_5="13000.00000" pt_clust_6="13000.00000" pt_clust_7="13000.00000" pt_clust_8="13000.00000" pt_clust_9="266.87883"></scales>
<clustering>
<clus scale="   90.904">  5  6 -1 -1</clus>
<clus scale="   94.082">  7  8 -1 -1</clus>
<clus scale="   95.281">  1  7  2 -1</clus>
<clus scale="  266.879">  2  9  1 -1</clus>
<clus scale="  266.879">  2  5  1 -1</clus>
</clustering>
</event>
<event>
 9    1  0.1426358E-005  0.9629790E+02  0.7546771E-02  0.1289236E+00
          1   -1    0    0  502    0 -0.00000000000E+00  0.00000000000E+00  0.61681840750E+03  0.61681840750E+03  0.00000000000E+00 0. -1.
         21   -1    0    0  501  502  0.00000000000E+00 -0.00000000000E+00 -0.81654966175E+02  0.81654966175E+02  0.00000000000E+00 0. -1.
         23    2    1    2    0    0 -0.18131141322E+02  0.30308292730E+02  0.40073017637E+03  0.41248508831E+03  0.91169857571E+02 0.  0.
         23    2    1    2    0    0  0.19184437157E+02  0.78220471875E+01  0.19350716668E+03  0.21566931126E+03  0.92946227533E+02 0.  0.
        -11    1    4    4    0    0  0.52069777415E+02  0.23723536390E+02  0.13593318619E+03  0.14748525013E+03  0.00000000000E+00 0.  1.
         11    1    4    4    0    0 -0.32885340258E+02 -0.15901489203E+02  0.57573980492E+02  0.68184061132E+02  0.00000000000E+00 0. -1.
        -13    1    3    3    0    0  0.24034185123E+01  0.60508397069E+02  0.22547184819E+03  0.23346219579E+03  0.00000000000E+00 0.  1.
         13    1    3    3    0    0 -0.20534559834E+02 -0.30200104339E+02  0.17525832818E+03  0.17902289252E+03  0.00000000000E+00 0. -1.
          1    1    1    2  501    0 -0.10532958351E+01 -0.38130339918E+02 -0.59073901724E+02  0.70318974106E+02  0.00000000000E+00 0. -1.
<scales pt_clust_5="13000.00000" pt_clust_6="13000.00000" pt_clust_7="13000.00000" pt_clust_8="13000.00000" pt_clust_9="38.14489"></scales>
<clustering>
<clus scale="   38.145">  2  9  1 -1</clus>
<clus scale="   91.170">  7  8 -1 -1</clus>
<clus scale="   92.946">  5  6 -1 -1</clus>
<clus scale="   94.585">  1  7  2 -1</clus>
<clus scale="   38.145">  2  5  1 -1</clus>
</clustering>
</event>
<event>
 9    1  0.1426358E-005  0.1361984E+03  0.7546771E-02  0.1219246E+00
         21   -1    0    0  501  502  0.00000000000E+00  0.00000000000E+00  0.89666751398E+02  0.89666751398E+02  0.00000000000E+00 0.  1.
          1   -1    0    0  502    0 -0.00000000000E+00 -0.00000000000E+00 -0.81065979522E+03  0.81065979522E+03  0.00000000000E+00 0. -1.
         23    2    1    2    0    0  0.26177915689E+02  0.95618725314E+02 -0.60305469959E+03  0.61797445538E+03  0.91592755746E+02 0.  0.
         23    2    1    2    0    0 -0.18637824863E+01 -0.10893022858E+03 -0.17173938335E+03  0.22182998783E+03  0.88571210479E+02 0.  0.
        -11    1    3    3    0    0 -0.23867279810E+02 -0.18938064219E+01 -0.77572520037E+02  0.81183307479E+02  0.00000000000E+00 0.  1.
         11    1    3    3    0    0  0.50045195500E+02  0.97512531736E+02 -0.52548217955E+03  0.53679114790E+03  0.00000000000E+00 0. -1.
        -13    1    4    4    0    0  0.37858057375E+02 -0.38112049476E+02 -0.99840501646E+02  0.11337498222E+03  0.00000000000E+00 0.  1.
         13    1    4    4    0    0 -0.39721839862E+02 -0.70818179100E+02 -0.71898881700E+02  0.10845500561E+03  0.00000000000E+00 0. -1.
          1    1    1    2  501    0 -0.24314133203E+02  0.13311503262E+02  0.53801039108E+02  0.60522103414E+02  0.00000000000E+00 0. -1.
<scales pt_clust_5="13000.00000" pt_clust_6="13000.00000" pt_clust_7="13000.00000" pt_clust_8="13000.00000" pt_clust_9="27.71955"></scales>
<clustering>
<clus scale="   27.720">  1  9  2 -1</clus>
<clus scale="   88.571">  7  8 -1 -1</clus>
<clus scale="   91.593">  5  6 -1 -1</clus>
<clus scale="  134.185">  1  7  2 -1</clus>
<clus scale="   27.720">  1  5  2 -1</clus>
</clustering>
</event>
<event>
 9    1  0.1426358E-005  0.1194011E+03  0.7546771E-02  0.1244193E+00
         21   -1    0    0  501  502  0.00000000000E+00  0.00000000000E+00  0.57276040662E+02  0.57276040662E+02  0.00000000000E+00 0.  1.
          2   -1    0    0  502    0 -0.00000000000E+00 -0.00000000000E+00 -0.39462391969E+03  0.39462391969E+03  0.00000000000E+00 0. -1.
         23    2    1    2    0    0 -0.63098898693E+02  0.16069977337E+02 -0.18225441497E+03  0.21444088468E+03  0.92349910985E+02 0.  0.
         23    2    1    2    0    0  0.87055226102E+02 -0.19255973482E+02 -0.16678953372E+03  0.21061034684E+03  0.92674509615E+02 0.  0.
        -11    1    3    3    0    0 -0.72007395698E+01 -0.29024549949E+02 -0.17344363318E+02  0.34570248611E+02  0.00000000000E+00 0. -1.
         11    1    3    3    0    0 -0.55898159123E+02  0.45094527286E+02 -0.16491005165E+03  0.17987063607E+03  0.00000000000E+00 0.  1.
        -13    1    4    4    0    0  0.52415784253E+02 -0.46525535761E+02 -0.50900559068E+02  0.86619321344E+02  0.00000000000E+00 0.  1.
         13    1    4    4    0    0  0.34639441848E+02  0.27269562279E+02 -0.11588897465E+03  0.12399102550E+03  0.00000000000E+00 0. -1.
          2    1    1    2  501    0 -0.23956327409E+02  0.31859961444E+01  0.11696069658E+02  0.26848728830E+02  0.00000000000E+00 0. -1.
<scales pt_clust_5="13000.00000" pt_clust_6="13000.00000" pt_clust_7="13000.00000" pt_clust_8="13000.00000" pt_clust_9="24.16725"></scales>
<clustering>
<clus scale="   24.167">  1  9  2 -1</clus>
<clus scale="   92.350">  5  6 -1 -1</clus>
<clus scale="   92.675">  7  8 -1 -1</clus>
<clus scale="  119.149">  2  5  1 -1</clus>
<clus scale="   24.167">  1  5  2 -1</clus>
</clustering>
</event>
<event>
 9    1  0.1426358E-005  0.1627305E+03  0.7546771E-02  0.1210002E+00
         21   -1    0    0  501  502  0.00000000000E+00  0.00000000000E+00  0.14354902267E+03  0.14354902267E+03  0.00000000000E+00 0. -1.
          1   -1    0    0  502    0 -0.00000000000E+00 -0.00000000000E+00 -0.74791204184E+03  0.74791204184E+03  0.00000000000E+00 0. -1.
         23    2    1    2    0    0  0.17184759839E+02 -0.16057920019E+02 -0.51178069457E+03  0.52064989735E+03  0.92755935152E+02 0.  0.
         23    2    1    2    0    0  0.55170896162E+02  0.12570510241E+03  0.54978230070E+02  0.17324608204E+03  0.90255186026E+02 0.  0.
        -11    1    3    3    0    0  0.55203626211E+02 -0.23099010058E+01 -0.29159275753E+03  0.29678125317E+03  0.00000000000E+00 0. -1.
         11    1    3    3    0    0 -0.38018866373E+02 -0.13748019013E+02 -0.22018793705E+03  0.22386864418E+03  0.00000000000E+00 0.  1.
        -13    1    4    4    0    0 -0.14094911836E+02  0.30806995062E+02 -0.14390274699E+02  0.36807845500E+02  0.00000000000E+00 0.  1.
         13    1    4    4    0    0  0.69265807998E+02  0.94898107352E+02  0.69368504769E+02  0.13643823654E+03  0.00000000000E+00 0. -1.
          1    1    1    2  501    0 -0.72355656001E+02 -0.10964718240E+03 -0.14756055467E+03  0.19756508512E+03  0.00000000000E+00 0. -1.
<scales pt_clust_5="13000.00000" pt_clust_6="13000.00000" pt_clust_7="13000.00000" pt_clust_8="13000.00000" pt_clust_9="135.40769"></scales>
<clustering>
<clus scale="   90.255">  7  8 -1 -1</clus>
<clus scale="   92.756">  5  6 -1 -1</clus>
<clus scale="   95.691">  2  5  1 -1</clus>
<clus scale="  135.408">  1  9  2 -1</clus>
<clus scale="  135.408">  1  5  2 -1</clus>
</clustering>
</event>
<event>
 9    1  0.1426358E-005  0.1473548E+03  0.7546771E-02  0.1203963E+00
         21   -1    0    0  501  502  0.00000000000E+00  0.00000000000E+00  0.18478348089E+03  0.18478348089E+03  0.00000000000E+00 0. -1.
          3   -1    0    0  502    0 -0.00000000000E+00 -0.00000000000E+00 -0.19441288100E+03  0.19441288100E+03  0.00000000000E+00 0. -1.
         23    2    1    2    0    0  0.52078956747E+02  0.95034007879E+02 -0.14558034977E+02  0.13976256575E+03  0.87051467618E+02 0.  0.
         23    2    1    2    0    0  0.34780858588E+00 -0.14199336839E+03  0.17161603244E+02  0.16799576160E+03  0.88123876729E+02 0.  0.
        -11    1    3    3    0    0 -0.23689917344E+02  0.29931581057E+02 -0.11314692189E+02  0.39813741191E+02  0.00000000000E+00 0. -1.
         11    1    3    3    0    0  0.75768874091E+02  0.65102426822E+02 -0.32433427885E+01  0.99948824563E+02  0.00000000000E+00 0.  1.
        -13    1    4    4    0    0  0.34104591112E+02 -0.24074306396E+02 -0.87017943763E+01  0.42642896111E+02  0.00000000000E+00 0.  1.
         13    1    4    4    0    0 -0.33756782526E+02 -0.11791906200E+03  0.25863397620E+02  0.12535286549E+03  0.00000000000E+00 0. -1.
          3    1    1    2  501    0 -0.52426765333E+02  0.46959360514E+02 -0.12232968376E+02  0.71438034537E+02  0.00000000000E+00 0. -1.
<scales pt_clust_5="13000.00000" pt_clust_6="13000.00000" pt_clust_7="13000.00000" pt_clust_8="13000.00000" pt_clust_9="70.38290"></scales>
<clustering>
<clus scale="   70.383">  1  9  2 -1</clus>
<clus scale="   87.051">  5  6 -1 -1</clus>
<clus scale="   88.124">  7  8 -1 -1</clus>
<clus scale="  146.716">  2  5  1 -1</clus>
<clus scale="   70.383">  1  5  2 -1</clus>
</clustering>
</event>
<event>
 9    1  0.1426358E-005  0.9170629E+02  0.7546771E-02  0.1298880E+00
         -1   -1    0    0    0  501 -0.00000000000E+00  0.00000000000E+00  0.45821429963E+03  0.45821429963E+03  0.00000000000E+00 0.  1.
         21   -1    0    0  501  502  0.00000000000E+00 -0.00000000000E+00 -0.53617093967E+02  0.53617093967E+02  0.00000000000E+00 0.  1.
         23    2    1    2    0    0 -0.99466856056E+00  0.15163841108E+00  0.24870961761E+03  0.26479199183E+03  0.90869756715E+02 0.  0.
         23    2    1    2    0    0 -0.16091584549E+02  0.27152320691E+02  0.18186708520E+03  0.20565848225E+03  0.90683995452E+02 0.  0.
        -11    1    4    4    0    0 -0.43959611681E+02  0.27237432899E+02  0.16538386342E+03  0.17328054562E+03  0.00000000000E+00 0.  1.
         11    1    4    4    0    0  0.27868027132E+02 -0.85112207991E-01  0.16483221775E+02  0.32377936630E+02  0.00000000000E+00 0. -1.
        -11    1    3    3    0    0 -0.19926782985E+02  0.35218251200E+02  0.63155526469E+02  0.75006815832E+02  0.00000000000E+00 0.  1.
         11    1    3    3    0    0  0.18932114425E+02 -0.35066612788E+02  0.18555409114E+03  0.18978517600E+03  0.00000000000E+00 0. -1.
         -1    1    1    2    0  502  0.17086253109E+02 -0.27303959102E+02 -0.25979497147E+02  0.41380919516E+02  0.00000000000E+00 0.  1.
<scales pt_clust_5="13000.00000" pt_clust_6="13000.00000" pt_clust_7="13000.00000" pt_clust_8="13000.00000" pt_clust_9="32.20941"></scales>
<clustering>
<clus scale="   32.209">  2  9  1 -1</clus>
<clus scale="   90.684">  5  6 -1 -1</clus>
<clus scale="   90.870">  7  8 -1 -1</clus>
<clus scale="   91.522">  2  5  1 -1</clus>
<clus scale="   32.209">  2  5  1 -1</clus>
</clustering>
</event>
<event>
 9    1  0.1426358E-005  0.1394070E+03  0.7546771E-02  0.1230942E+00
         -1   -1    0    0    0  501 -0.00000000000E+00  0.00000000000E+00  0.10551178246E+04  0.10551178246E+04  0.00000000000E+00 0.  1.
         21   -1    0    0  501  502  0.00000000000E+00 -0.00000000000E+00 -0.43028677574E+02  0.43028677574E+02  0.00000000000E+00 0.  1.
         23    2    1    2    0    0 -0.26544750204E+02  0.10597574459E+02  0.10626892690E+03  0.14461779959E+03  0.93831182374E+02 0.  0.
         23    2    1    2    0    0  0.11696083237E+03  0.38141226938E+02  0.75977374921E+03  0.77497868062E+03  0.90560564963E+02 0.  0.
        -11    1    3    3    0    0 -0.56329876413E+02 -0.20601768685E+00  0.34219597423E+02  0.65909621967E+02  0.00000000000E+00 0. -1.
         11    1    3    3    0    0  0.29785126210E+02  0.10803592146E+02  0.72049329475E+02  0.78708177621E+02  0.00000000000E+00 0.  1.
        -11    1    4    4    0    0  0.99002891620E+02 -0.11421021670E+02  0.52252403069E+03  0.53194301850E+03  0.00000000000E+00 0.  1.
         11    1    4    4    0    0  0.17957940747E+02  0.49562248608E+02  0.23724971852E+03  0.24303566212E+03  0.00000000000E+00 0. -1.
         -1    1    1    2    0  502 -0.90416082163E+02 -0.48738801398E+02  0.14604647090E+03  0.17855002195E+03  0.00000000000E+00 0.  1.
<scales pt_clust_5="13000.00000" pt_clust_6="13000.00000" pt_clust_7="13000.00000" pt_clust_8="13000.00000" pt_clust_9="105.98623"></scales>
<clustering>
<clus scale="   90.561">  7  8 -1 -1</clus>
<clus scale="   93.831">  5  6 -1 -1</clus>
<clus scale="   98.088">  1  5  2 -1</clus>
<clus scale="  105.986">  2  9  1 -1</clus>
<clus scale="  105.986">  2  5  1 -1</clus>
</clustering>
</event>
<event>
 9    1  0.1426358E-005  0.2075942E+03  0.7546771E-02  0.1143684E+00
         21   -1    0    0  501  502  0.00000000000E+00  0.00000000000E+00  0.14874089075E+03  0.14874089075E+03  0.00000000000E+00 0. -1.
          2   -1    0    0  502    0 -0.00000000000E+00 -0.00000000000E+00 -0.12636690317E+04  0.12636690317E+04  0.00000000000E+00 0. -1.
         23    2    1    2    0    0 -0.15794545768E+03 -0.11114164003E+03 -0.11325618868E+04  0.11523186271E+04  0.88558225172E+02 0.  0.
         23    2    1    2    0    0  0.77222957338E+02  0.12345758210E+03 -0.14728163078E+02  0.17225566678E+03  0.90829159596E+02 0.  0.
        -11    1    3    3    0    0 -0.10969791306E+03 -0.11906304731E+03 -0.92628897174E+03  0.94033020824E+03  0.00000000000E+00 0. -1.
         11    1    3    3    0    0 -0.48247544617E+02  0.79214072783E+01 -0.20627291505E+03  0.21198841888E+03  0.00000000000E+00 0.  1.
        -13    1    4    4    0    0  0.87268215951E+01  0.88593786548E+02  0.14171680115E+02  0.90143513063E+02  0.00000000000E+00 0. -1.
         13    1    4    4    0    0  0.68496135743E+02  0.34863795556E+02 -0.28899843194E+02  0.82112153722E+02  0.00000000000E+00 0.  1.
          2    1    1    2  501    0  0.80722500340E+02 -0.12315942073E+02  0.32361908934E+02  0.87835628535E+02  0.00000000000E+00 0. -1.
<scales pt_clust_5="13000.00000" pt_clust_6="13000.00000" pt_clust_7="13000.00000" pt_clust_8="13000.00000" pt_clust_9="81.65663"></scales>
<clustering>
<clus scale="   81.657">  1  9  2 -1</clus>
<clus scale="   88.558">  5  6 -1 -1</clus>
<clus scale="   90.829">  7  8 -1 -1</clus>
<clus scale="  206.611">  2  5  1 -1</clus>
<clus scale="   81.657">  1  5  2 -1</clus>
</clustering>
</event>
<event>
 9    1  0.1426358E-005  0.1941635E+03  0.7546771E-02  0.1154761E+00
         21   -1    0    0  501  502  0.00000000000E+00  0.00000000000E+00  0.11897180050E+03  0.11897180050E+03  0.00000000000E+00 0. -1.
         -3   -1    0    0    0  501 -0.00000000000E+00 -0.00000000000E+00 -0.45231909312E+03  0.45231909312E+03  0.00000000000E+00 0.  1.
         23    2    1    2    0    0  0.19270909794E+02 -0.18985681917E+03 -0.17803680336E+03  0.27667601683E+03  0.91845169656E+02 0.  0.
         23    2    1    2    0    0  0.38194237900E+02  0.15098159485E+03 -0.10719791503E+03  0.21018534367E+03  0.91827250389E+02 0.  0.
        -13    1    3    3    0    0 -0.29083471017E+02 -0.13448818543E+03 -0.10533977323E+03  0.17328989622E+03  0.00000000000E+00 0.  1.
         13    1    3    3    0    0  0.48354380811E+02 -0.55368633739E+02 -0.72697030127E+02  0.10338612061E+03  0.00000000000E+00 0. -1.
        -13    1    4    4    0    0 -0.27894425596E+02  0.40544826016E+02 -0.47187582680E+02  0.68181008025E+02  0.00000000000E+00 0.  1.
         13    1    4    4    0    0  0.66088663496E+02  0.11043676883E+03 -0.60010332353E+02  0.14200433564E+03  0.00000000000E+00 0. -1.
         -3    1    1    2    0  502 -0.57465147693E+02  0.38875224327E+02 -0.48112574226E+02  0.84429533130E+02  0.00000000000E+00 0.  1.
<scales pt_clust_5="13000.00000" pt_clust_6="13000.00000" pt_clust_7="13000.00000" pt_clust_8="13000.00000" pt_clust_9="69.37958"></scales>
<clustering>
<clus scale="   69.380">  1  9  2 -1</clus>
<clus scale="   91.827">  7  8 -1 -1</clus>
<clus scale="   91.845">  5  6 -1 -1</clus>
<clus scale="  194.155">  1  7  2 -1</clus>
<clus scale="   69.380">  1  5  2 -1</clus>
</clustering>
</event>
<event>
 9    1  0.1426358E-005  0.1160628E+03  0.7546771E-02  0.1258301E+00
         21   -1    0    0  501  502  0.00000000000E+00  0.00000000000E+00  0.47820160946E+02  0.47820160946E+02  0.00000000000E+00 0.  1.
         -1   -1    0    0    0  501 -0.00000000000E+00 -0.00000000000E+00 -0.75553119531E+03  0.75553119531E+03  0.00000000000E+00 0.  1.
         23    2    1    2    0    0 -0.23882286409E+02  0.16939926145E+02 -0.43786608153E+03  0.44838773959E+03  0.92019209737E+02 0.  0.
         23    2    1    2    0    0  0.13271690063E+02 -0.48146525026E+02 -0.29122016201E+03  0.31567829962E+03  0.11112776637E+03 0.  0.
        -13    1    4    4    0    0 -0.16466888620E+02 -0.48022880556E+02 -0.27890924257E+03  0.28349201236E+03  0.00000000000E+00 0.  1.
         13    1    4    4    0    0  0.29738578683E+02 -0.12364446953E+00 -0.12310919438E+02  0.32186287258E+02  0.00000000000E+00 0. -1.
        -13    1    3    3    0    0  0.32399747523E+02 -0.70001588234E+01 -0.11079677217E+03  0.11564891088E+03  0.00000000000E+00 0. -1.
         13    1    3    3    0    0 -0.56282033932E+02  0.23940084969E+02 -0.32706930935E+03  0.33273882871E+03  0.00000000000E+00 0.  1.
         -1    1    1    2    0  502  0.10610596346E+02  0.31206598880E+02  0.21375209174E+02  0.39285317050E+02  0.00000000000E+00 0.  1.
<scales pt_clust_5="13000.00000" pt_clust_6="13000.00000" pt_clust_7="13000.00000" pt_clust_8="13000.00000" pt_clust_9="32.96114"></scales>
<clustering>
<clus scale="   32.961">  1  9  2 -1</clus>
<clus scale="   92.019">  7  8 -1 -1</clus>
<clus scale="   97.922">  2  7  1 -1</clus>
<clus scale="  111.128">  5  6 -1 -1</clus>
<clus scale="   32.961">  1  5  2 -1</clus>
</clustering>
</event>
<event>
 9    1  0.1426358E-005  0.9791431E+02  0.7546771E-02  0.1286282E+00
         -4   -1    0    0    0  501 -0.00000000000E+00  0.00000000000E+00  0.26118193855E+03  0.26118193855E+03  0.00000000000E+00 0.  1.
         21   -1    0    0  501  502  0.00000000000E+00 -0.00000000000E+00 -0.12512254535E+03  0.12512254535E+03  0.00000000000E+00 0.  1.
         23    2    1    2    0    0  0.13436348091E+02  0.19298478398E+02  0.20993194854E+03  0.23186271686E+03  0.95582057588E+02 0.  0.
         23    2    1    2    0    0 -0.26517605150E+02  0.14911181459E+02 -0.43375362045E+02  0.10678152246E+03  0.92711082351E+02 0.  0.
        -13    1    3    3    0    0 -0.20363066799E+02 -0.31442330563E+02  0.80968019238E+02  0.89213758916E+02  0.00000000000E+00 0. -1.
         13    1    3    3    0    0  0.33799414890E+02  0.50740808961E+02  0.12896392931E+03  0.14264895795E+03  0.00000000000E+00 0.  1.
        -13    1    4    4    0    0 -0.36491335897E+02 -0.32171484845E+02 -0.28623244386E+02  0.56443884982E+02  0.00000000000E+00 0.  1.
         13    1    4    4    0    0  0.99737307473E+01  0.47082666304E+02 -0.14752117659E+02  0.50337637477E+02  0.00000000000E+00 0. -1.
         -4    1    1    2    0  502  0.13081257059E+02 -0.34209659858E+02 -0.30497193298E+02  0.47660244575E+02  0.00000000000E+00 0.  1.
<scales pt_clust_5="13000.00000" pt_clust_6="13000.00000" pt_clust_7="13000.00000" pt_clust_8="13000.00000" pt_clust_9="36.62540"></scales>
<clustering>
<clus scale="   36.625">  2  9  1 -1</clus>
<clus scale="   92.711">  7  8 -1 -1</clus>
<clus scale="   95.114">  2  7  1 -1</clus>
<clus scale="   95.582">  5  6 -1 -1</clus>
<clus scale="   36.625">  2  5  1 -1</clus>
</clustering>
</event>
<event>
 9    1  0.2739902E-005  0.1393414E+03  0.7546771E-02  0.1216215E+00
          1   -1    0    0  502    0 -0.00000000000E+00  0.00000000000E+00  0.10050540160E+04  0.10050540160E+04  0.00000000000E+00 0. -1.
         21   -1    0    0  501  502  0.00000000000E+00 -0.00000000000E+00 -0.26715858181E+03  0.26715858181E+03  0.00000000000E+00 0. -1.
         23    2    1    2    0    0 -0.79228138044E+02 -0.10262399746E+03  0.72086036232E+03  0.73715324305E+03  0.83345420141E+02 0.  0.
         23    2    1    2    0    0 -0.67746294667E-01  0.75296234731E+02  0.25570030451E+03  0.28208556734E+03  0.92304355373E+02 0.  0.
        -13    1    3    3    0    0 -0.53607724032E+02 -0.10834882353E+03  0.65831265973E+03  0.66931966473E+03  0.00000000000E+00 0. -1.
         13    1    3    3    0    0 -0.25620414012E+02  0.57248260734E+01  0.62547702591E+02  0.67833578315E+02  0.00000000000E+00 0.  1.
        -13    1    4    4    0    0 -0.16140722439E+02  0.93411168544E+02  0.19871285145E+03  0.22016577086E+03  0.00000000000E+00 0.  1.
         13    1    4    4    0    0  0.16072976144E+02 -0.18114933813E+02  0.56987453060E+02  0.61919796474E+02  0.00000000000E+00 0. -1.
          1    1    1    2  501    0  0.79295884338E+02  0.27327762728E+02 -0.23866523260E+03  0.25297378746E+03  0.00000000000E+00 0. -1.
<scales pt_clust_5="13000.00000" pt_clust_6="13000.00000" pt_clust_7="13000.00000" pt_clust_8="13000.00000" pt_clust_9="83.87278"></scales>
<clustering>
<clus scale="   83.345">  5  6 -1 -1</clus>
<clus scale="   83.873">  2  9  1 -1</clus>
<clus scale="   92.304">  7  8 -1 -1</clus>
<clus scale="  133.575">  1  5  2 -1</clus>
<clus scale="   83.873">  2  5  1 -1</clus>
</clustering>
</event>
<event>
 9    1  0.1426358E-005  0.1252039E+03  0.7546771E-02  0.1234947E+00
         21   -1    0    0  501  502  0.00000000000E+00  0.00000000000E+00  0.72879288623E+02  0.72879288623E+02  0.00000000000E+00 0. -1.
         -3   -1    0    0    0  501 -0.00000000000E+00 -0.00000000000E+00 -0.37433891826E+03  0.37433891826E+03  0.00000000000E+00 0.  1.
         23    2    1    2    0    0 -0.68802748545E+02  0.65657405051E+02 -0.21555742856E+03  0.25257376995E+03  0.91015335068E+02 0.  0.
         23    2    1    2    0    0  0.49505602942E+02 -0.52219182590E+02 -0.11049986891E+03  0.16061487752E+03  0.91702072480E+02 0.  0.
        -11    1    4    4    0    0 -0.19370006292E+02 -0.38510502892E+02 -0.61007523068E+02  0.74700561227E+02  0.00000000000E+00 0. -1.
         11    1    4    4    0    0  0.68875609234E+02 -0.13708679698E+02 -0.49492345846E+02  0.85914316291E+02  0.00000000000E+00 0.  1.
        -11    1    3    3    0    0 -0.63927352403E+02  0.17180874703E+02 -0.18132127389E+03  0.19302666450E+03  0.00000000000E+00 0. -1.
         11    1    3    3    0    0 -0.48753961421E+01  0.48476530348E+02 -0.34236154663E+02  0.59547105456E+02  0.00000000000E+00 0.  1.
         -3    1    1    2    0  502  0.19297145602E+02 -0.13438222461E+02  0.24597667830E+02  0.34029559415E+02  0.00000000000E+00 0.  1.
<scales pt_clust_5="13000.00000" pt_clust_6="13000.00000" pt_clust_7="13000.00000" pt_clust_8="13000.00000" pt_clust_9="23.51522"></scales>
<clustering>
<clus scale="   23.515">  1  9  2 -1</clus>
<clus scale="   91.015">  7  8 -1 -1</clus>
<clus scale="   91.702">  5  6 -1 -1</clus>
<clus scale="  124.702">  2  7  1 -1</clus>
<clus scale="   23.515">  1  5  2 -1</clus>
</clustering>
</event>
<event>
 9    1  0.1426358E-005  0.9720750E+02  0.7546771E-02  0.1287398E+00
          1   -1    0    0  502    0 -0.00000000000E+00  0.00000000000E+00  0.73101612354E+03  0.73101612354E+03  0.00000000000E+00 0. -1.
         21   -1    0    0  501  502  0.00000000000E+00 -0.00000000000E+00 -0.26621752343E+02  0.26621752343E+02  0.00000000000E+00 0.  1.
         23    2    1    2    0    0 -0.72010792167E+00 -0.22810041808E+02  0.47503606300E+03  0.48424867700E+03  0.91195961863E+02 0.  0.
         23    2    1    2    0    0  0.20644582590E+02  0.44711754736E+02  0.11857815046E+03  0.15872048882E+03  0.93306355639E+02 0.  0.
        -11    1    3    3    0    0  0.40269989890E+02 -0.32288478947E+02  0.24168315661E+03  0.24713349863E+03  0.00000000000E+00 0.  1.
         11    1    3    3    0    0 -0.40990097811E+02  0.94784371393E+01  0.23335290639E+03  0.23711517836E+03  0.00000000000E+00 0. -1.
        -13    1    4    4    0    0 -0.29841420858E+02  0.30387565830E+01  0.73086612747E+02  0.79002515170E+02  0.00000000000E+00 0. -1.
         13    1    4    4    0    0  0.50486003448E+02  0.41672998153E+02  0.45491537712E+02  0.79717973648E+02  0.00000000000E+00 0.  1.
          1    1    1    2  501    0 -0.19924474668E+02 -0.21901712929E+02  0.11078015774E+03  0.11466871007E+03  0.00000000000E+00 0. -1.
<scales pt_clust_5="13000.00000" pt_clust_6="13000.00000" pt_clust_7="13000.00000" pt_clust_8="13000.00000" pt_clust_9="29.60862"></scales>
<clustering>
<clus scale="   29.609">  2  9  1 -1</clus>
<clus scale="   91.196">  5  6 -1 -1</clus>
<clus scale="   93.306">  7  8 -1 -1</clus>
<clus scale="   95.184">  1  5  2 -1</clus>
<clus scale="   29.609">  2  5  1 -1</clus>
</clustering>
</event>
<event>
 9    1  0.1426358E-005  0.1134068E+03  0.7546771E-02  0.1255665E+00
         21   -1    0    0  501  502  0.00000000000E+00  0.00000000000E+00  0.39400041696E+02  0.39400041696E+02  0.00000000000E+00 0. -1.
          1   -1    0    0  502    0 -0.00000000000E+00 -0.00000000000E+00 -0.67570006062E+03  0.67570006062E+03  0.00000000000E+00 0. -1.
         23    2    1    2    0    0  0.86096678641E+01  0.72104990220E+02 -0.49183771244E+03  0.50530570962E+03  0.90312063466E+02 0.  0.
         23    2    1    2    0    0 -0.18790351279E+02 -0.39322850007E+02 -0.14162460134E+03  0.17535070529E+03  0.93760217083E+02 0.  0.
        -11    1    4    4    0    0 -0.35390067300E+02 -0.62320019132E+02 -0.79362301071E+02  0.10693276616E+03  0.00000000000E+00 0.  1.
         11    1    4    4    0    0  0.16599716021E+02  0.22997169124E+02 -0.62262300266E+02  0.68417939126E+02  0.00000000000E+00 0. -1.
        -13    1    3    3    0    0  0.23801379039E+02 -0.14513003606E+02 -0.12596938035E+03  0.12901712175E+03  0.00000000000E+00 0.  1.
         13    1    3    3    0    0 -0.15191711175E+02  0.86617993826E+02 -0.36586833209E+03  0.37628858788E+03  0.00000000000E+00 0. -1.
          1    1    1    2  501    0  0.10180683415E+02 -0.32782140212E+02 -0.28377051532E+01  0.34443687408E+02  0.00000000000E+00 0. -1.
<scales pt_clust_5="13000.00000" pt_clust_6="13000.00000" pt_clust_7="13000.00000" pt_clust_8="13000.00000" pt_clust_9="34.32659"></scales>
<clustering>
<clus scale="   34.327">  1  9  2 -1</clus>
<clus scale="   90.312">  7  8 -1 -1</clus>
<clus scale="   93.760">  5  6 -1 -1</clus>
<clus scale="  110.573">  2  7  1 -1</clus>
<clus scale="   34.327">  1  5  2 -1</clus>
</clustering>
</event>
<event>
 9    1  0.1426358E-005  0.1424265E+03  0.7546771E-02  0.1210367E+00
         21   -1    0    0  501  502  0.00000000000E+00  0.00000000000E+00  0.56758079297E+02  0.56758079297E+02  0.00000000000E+00 0. -1.
          2   -1    0    0  502    0 -0.00000000000E+00 -0.00000000000E+00 -0.10824610843E+04  0.10824610843E+04  0.00000000000E+00 0. -1.
         23    2    1    2    0    0 -0.11287341514E+03 -0.37769794937E+02 -0.89873761597E+03  0.91123288128E+03  0.91918966020E+02 0.  0.
         23    2    1    2    0    0  0.57865059062E+02  0.47694599990E+02 -0.12556053152E+03  0.17207211040E+03  0.90665451922E+02 0.  0.
        -11    1    3    3    0    0  0.18797568226E+01 -0.35533069378E+02 -0.20521985816E+03  0.20828183475E+03  0.00000000000E+00 0.  1.
         11    1    3    3    0    0 -0.11475317197E+03 -0.22367255593E+01 -0.69351775781E+03  0.70295104652E+03  0.00000000000E+00 0. -1.
        -13    1    4    4    0    0 -0.36765936008E+01  0.54746751163E+02 -0.48768324556E+02  0.73410309790E+02  0.00000000000E+00 0.  1.
         13    1    4    4    0    0  0.61541652662E+02 -0.70521511730E+01 -0.76792206966E+02  0.98661800608E+02  0.00000000000E+00 0. -1.
          2    1    1    2  501    0  0.55008356081E+02 -0.99248050525E+01 -0.14048574876E+01  0.55914171894E+02  0.00000000000E+00 0. -1.
<scales pt_clust_5="13000.00000" pt_clust_6="13000.00000" pt_clust_7="13000.00000" pt_clust_8="13000.00000" pt_clust_9="55.89652"></scales>
<clustering>
<clus scale="   55.897">  1  9  2 -1</clus>
<clus scale="   90.665">  7  8 -1 -1</clus>
<clus scale="   91.919">  5  6 -1 -1</clus>
<clus scale="  141.621">  1  7  2 -1</clus>
<clus scale="   55.897">  1  5  2 -1</clus>
</clustering>
</event>
<event>
 9    1  0.1426358E-005  0.9032157E+02  0.7546771E-02  0.1321745E+00
         21   -1    0    0  501  502  0.00000000000E+00  0.00000000000E+00  0.14367066884E+03  0.14367066884E+03  0.00000000000E+00 0.  1.
         -3   -1    0    0    0  501 -0.00000000000E+00 -0.00000000000E+00 -0.19620536552E+03  0.19620536552E+03  0.00000000000E+00 0.  1.
         23    2    1    2    0    0  0.12194874452E+01 -0.44991940015E+01 -0.12854469205E+03  0.15697770698E+03  0.89980735368E+02 0.  0.
         23    2    1    2    0    0  0.19564984040E+02 -0.17002265570E+02 -0.28894516315E+02  0.73814581615E+02  0.62784024648E+02 0.  0.
        -11    1    4    4    0    0  0.31143697865E+02 -0.34210190524E+02 -0.25413769608E+02  0.52783773435E+02  0.00000000000E+00 0.  1.
         11    1    4    4    0    0 -0.11578713825E+02  0.17207924954E+02 -0.34807467068E+01  0.21030808180E+02  0.00000000000E+00 0. -1.
        -13    1    3    3    0    0 -0.18320023377E+02  0.38250544635E+02 -0.51363959243E+02  0.66610687810E+02  0.00000000000E+00 0. -1.
         13    1    3    3    0    0  0.19539510823E+02 -0.42749738636E+02 -0.77180732810E+02  0.90367019171E+02  0.00000000000E+00 0.  1.
         -3    1    1    2    0  502 -0.20784471485E+02  0.21501459572E+02  0.10490451169E+03  0.10908374577E+03  0.00000000000E+00 0.  1.
<scales pt_clust_5="13000.00000" pt_clust_6="13000.00000" pt_clust_7="13000.00000" pt_clust_8="13000.00000" pt_clust_9="29.90497"></scales>
<clustering>
<clus scale="   29.905">  1  9  2 -1</clus>
<clus scale="   62.784">  5  6 -1 -1</clus>
<clus scale="   63.272">  1  5  2 -1</clus>
<clus scale="   89.981">  7  8 -1 -1</clus>
<clus scale="   29.905">  1  5  2 -1</clus>
</clustering>
</event>
<event>
 9    1  0.1426358E-005  0.1524309E+03  0.7546771E-02  0.1197762E+00
         21   -1    0    0  501  502  0.00000000000E+00  0.00000000000E+00  0.14458755649E+03  0.14458755649E+03  0.00000000000E+00 0. -1.
         -4   -1    0    0    0  501 -0.00000000000E+00 -0.00000000000E+00 -0.21235082067E+03  0.21235082067E+03  0.00000000000E+00 0.  1.
         23    2    1    2    0    0 -0.11781308769E+03  0.43082321812E+02 -0.85604208482E+02  0.17739608241E+03  0.91680311201E+02 0.  0.
         23    2    1    2    0    0  0.10008552024E+03 -0.55398390620E+02 -0.57711565033E+01  0.14755036604E+03  0.93014575336E+02 0.  0.
        -13    1    4    4    0    0  0.64960964814E+02 -0.52748955479E+02 -0.44848244086E+02  0.94940740734E+02  0.00000000000E+00 0.  1.
         13    1    4    4    0    0  0.35124555428E+02 -0.26494351417E+01  0.39077087582E+02  0.52609625303E+02  0.00000000000E+00 0. -1.
        -13    1    3    3    0    0 -0.11930387761E+03  0.11647152590E+02 -0.83033929474E+02  0.14582079694E+03  0.00000000000E+00 0.  1.
         13    1    3    3    0    0  0.14907899183E+01  0.31435169223E+02 -0.25702790080E+01  0.31575285475E+02  0.00000000000E+00 0. -1.
         -4    1    1    2    0  502  0.17727567451E+02  0.12316068808E+02  0.23612100800E+02  0.31991928714E+02  0.00000000000E+00 0.  1.
<scales pt_clust_5="13000.00000" pt_clust_6="13000.00000" pt_clust_7="13000.00000" pt_clust_8="13000.00000" pt_clust_9="21.58593"></scales>
<clustering>
<clus scale="   21.586">  1  9  2 -1</clus>
<clus scale="   91.680">  7  8 -1 -1</clus>
<clus scale="   93.015">  5  6 -1 -1</clus>
<clus scale="  151.620">  2  7  1 -1</clus>
<clus scale="   21.586">  1  5  2 -1</clus>
</clustering>
</event>
<event>
 9    1  0.1426358E-005  0.1046876E+03  0.7546771E-02  0.1272379E+00
         21   -1    0    0  501  502  0.00000000000E+00  0.00000000000E+00  0.50120734343E+02  0.50120734343E+02  0.00000000000E+00 0.  1.
          4   -1    0    0  502    0 -0.00000000000E+00 -0.00000000000E+00 -0.35768973006E+03  0.35768973006E+03  0.00000000000E+00 0. -1.
         23    2    1    2    0    0 -0.11118672865E+02 -0.55143000683E+02 -0.16590025789E+03  0.19505915207E+03  0.85795115399E+02 0.  0.
         23    2    1    2    0    0  0.39323673750E+02  0.40544457185E+02 -0.14632628275E+03  0.18065252307E+03  0.89631181754E+02 0.  0.
        -13    1    4    4    0    0  0.43030802572E+02 -0.17282172853E+02 -0.49621821431E+02  0.67916482761E+02  0.00000000000E+00 0.  1.
         13    1    4    4    0    0 -0.37071288213E+01  0.57826630038E+02 -0.96704461319E+02  0.11273604031E+03  0.00000000000E+00 0. -1.
        -13    1    3    3    0    0 -0.18236721918E+02 -0.76510864799E+02 -0.11419322967E+03  0.13865995876E+03  0.00000000000E+00 0.  1.
         13    1    3    3    0    0  0.71180490533E+01  0.21367864116E+02 -0.51707028216E+02  0.56399193311E+02  0.00000000000E+00 0. -1.
          4    1    1    2  501    0 -0.28205000885E+02  0.14598543498E+02  0.46575449283E+01  0.32098789260E+02  0.00000000000E+00 0. -1.
<scales pt_clust_5="13000.00000" pt_clust_6="13000.00000" pt_clust_7="13000.00000" pt_clust_8="13000.00000" pt_clust_9="31.75909"></scales>
<clustering>
<clus scale="   31.759">  1  9  2 -1</clus>
<clus scale="   85.795">  7  8 -1 -1</clus>
<clus scale="   89.631">  5  6 -1 -1</clus>
<clus scale="  101.423">  2  7  1 -1</clus>
<clus scale="   31.759">  1  5  2 -1</clus>
</clustering>
</event>
<event>
 9    1  0.1908098E-005  0.1222735E+03  0.7546771E-02  0.1239870E+00
         21   -1    0    0  501  502  0.00000000000E+00  0.00000000000E+00  0.46879329044E+03  0.46879329044E+03  0.00000000000E+00 0.  1.
          3   -1    0    0  502    0 -0.00000000000E+00 -0.00000000000E+00 -0.22143904593E+03  0.22143904593E+03  0.00000000000E+00 0. -1.
         23    2    1    2    0    0  0.80996082042E+02  0.13054269206E+02 -0.19249057760E+03  0.22825198380E+03  0.91189727439E+02 0.  0.
         23    2    1    2    0    0 -0.65556608816E+02 -0.32387515558E+02  0.34063821238E+03  0.35973504382E+03  0.89600724875E+02 0.  0.
        -11    1    3    3    0    0  0.45309245472E+02 -0.37280157584E+02 -0.71986292867E+02  0.92869608783E+02  0.00000000000E+00 0.  1.
         11    1    3    3    0    0  0.35686836570E+02  0.50334426789E+02 -0.12050428474E+03  0.13538237501E+03  0.00000000000E+00 0. -1.
        -11    1    4    4    0    0 -0.74035088156E+02  0.55420784524E+01  0.18556627206E+03  0.19986683126E+03  0.00000000000E+00 0.  1.
         11    1    4    4    0    0  0.84784793396E+01 -0.37929594011E+02  0.15507194032E+03  0.15986821256E+03  0.00000000000E+00 0. -1.
          3    1    1    2  501    0 -0.15439473226E+02  0.19333246353E+02  0.99206609732E+02  0.10224530876E+03  0.00000000000E+00 0. -1.
<scales pt_clust_5="13000.00000" pt_clust_6="13000.00000" pt_clust_7="13000.00000" pt_clust_8="13000.00000" pt_clust_9="24.74170"></scales>
<clustering>
<clus scale="   24.742">  1  9  2 -1</clus>
<clus scale="   89.601">  7  8 -1 -1</clus>
<clus scale="   91.190">  5  6 -1 -1</clus>
<clus scale="  121.093">  1  7  2 -1</clus>
<clus scale="   24.742">  1  5  2 -1</clus>
</clustering>
</event>
<event>
 9    1  0.1426358E-005  0.1261983E+03  0.7546771E-02  0.1240055E+00
          2   -1    0    0  502    0 -0.00000000000E+00  0.00000000000E+00  0.28797372581E+03  0.28797372581E+03  0.00000000000E+00 0. -1.
         21   -1    0    0  501  502  0.00000000000E+00 -0.00000000000E+00 -0.10807592739E+03  0.10807592739E+03  0.00000000000E+00 0.  1.
         23    2    1    2    0    0  0.26825232690E+02  0.46854418611E+02  0.11869313869E+03  0.17759959748E+03  0.12057622569E+03 0.  0.
         23    2    1    2    0    0 -0.64807701136E+01  0.72909132585E+01 -0.32223035801E+02  0.10856671571E+03  0.10321458195E+03 0.  0.
        -13    1    4    4    0    0 -0.21729486197E+02  0.46938507438E+02 -0.39994077218E+02  0.65382874389E+02  0.00000000000E+00 0.  1.
         13    1    4    4    0    0  0.15248716084E+02 -0.39647594180E+02  0.77710414162E+01  0.43183841320E+02  0.00000000000E+00 0. -1.
        -13    1    3    3    0    0  0.44437756006E+02 -0.28591561495E+02  0.62768809405E+02  0.82049466675E+02  0.00000000000E+00 0. -1.
         13    1    3    3    0    0 -0.17612523315E+02  0.75445980106E+02  0.55924329284E+02  0.95550130808E+02  0.00000000000E+00 0.  1.
          2    1    1    2  501    0 -0.20344462577E+02 -0.54145331869E+02  0.93427695532E+02  0.10988334002E+03  0.00000000000E+00 0. -1.
<scales pt_clust_5="13000.00000" pt_clust_6="13000.00000" pt_clust_7="13000.00000" pt_clust_8="13000.00000" pt_clust_9="57.84131"></scales>
<clustering>
<clus scale="   57.841">  2  9  1 -1</clus>
<clus scale="  103.215">  5  6 -1 -1</clus>
<clus scale="  109.730">  2  5  1 -1</clus>
<clus scale="  120.576">  7  8 -1 -1</clus>
<clus scale="   57.841">  2  5  1 -1</clus>
</clustering>
</event>
<event>
 9    1  0.1426358E-005  0.1468187E+03  0.7546771E-02  0.1204743E+00
          1   -1    0    0  502    0 -0.00000000000E+00  0.00000000000E+00  0.64443764670E+03  0.64443764670E+03  0.00000000000E+00 0. -1.
         21   -1    0    0  501  502  0.00000000000E+00 -0.00000000000E+00 -0.80755614852E+02  0.80755614852E+02  0.00000000000E+00 0. -1.
         23    2    1    2    0    0 -0.11035676522E+03 -0.50803018736E+02  0.48517581850E+03  0.50893491916E+03  0.94125526506E+02 0.  0.
         23    2    1    2    0    0  0.73800922629E+02  0.45052023934E+02  0.10860235497E+03  0.16855948172E+03  0.95611538693E+02 0.  0.
        -13    1    3    3    0    0  0.10948913334E+02 -0.21948388322E+02  0.13527548595E+03  0.13748115345E+03  0.00000000000E+00 0.  1.
         13    1    3    3    0    0 -0.12130567856E+03 -0.28854630414E+02  0.34990033255E+03  0.37145376571E+03  0.00000000000E+00 0. -1.
        -13    1    4    4    0    0  0.15500011440E+02 -0.18162410513E+02 -0.66260863333E+01  0.24779599076E+02  0.00000000000E+00 0.  1.
         13    1    4    4    0    0  0.58300911189E+02  0.63214434447E+02  0.11522844130E+03  0.14377988264E+03  0.00000000000E+00 0. -1.
          1    1    1    2  501    0  0.36555842592E+02  0.57509948019E+01 -0.30096141622E+02  0.47698860672E+02  0.00000000000E+00 0. -1.
<scales pt_clust_5="13000.00000" pt_clust_6="13000.00000" pt_clust_7="13000.00000" pt_clust_8="13000.00000" pt_clust_9="37.00545"></scales>
<clustering>
<clus scale="   37.005">  2  9  1 -1</clus>
<clus scale="   94.126">  5  6 -1 -1</clus>
<clus scale="   95.612">  7  8 -1 -1</clus>
<clus scale="  145.855">  1  5  2 -1</clus>
<clus scale="   37.005">  2  5  1 -1</clus>
</clustering>
</event>
<event>
 9    1  0.1426358E-005  0.1356283E+03  0.7546771E-02  0.1219548E+00
         21   -1    0    0  501  502  0.00000000000E+00  0.00000000000E+00  0.16198757441E+03  0.16198757441E+03  0.00000000000E+00 0. -1.
          2   -1    0    0  502    0 -0.00000000000E+00 -0.00000000000E+00 -0.30213512818E+03  0.30213512818E+03  0.00000000000E+00 0. -1.
         23    2    1    2    0    0  0.10636498614E+03 -0.20744992625E+02 -0.14319031373E+03  0.20076802297E+03  0.89780109759E+02 0.  0.
         23    2    1    2    0    0 -0.95773744924E+02 -0.27495038492E+02 -0.87912504055E+02  0.15985523495E+03  0.88862255284E+02 0.  0.
        -13    1    4    4    0    0 -0.96391454982E+02  0.81550435281E-01 -0.90413351131E+02  0.13215859150E+03  0.00000000000E+00 0.  1.
         13    1    4    4    0    0  0.61771005870E+00 -0.27576588927E+02  0.25008470758E+01  0.27696643455E+02  0.00000000000E+00 0. -1.
        -13    1    3    3    0    0  0.98485406834E+02 -0.48041690259E+02 -0.95986417642E+02  0.14567351075E+03  0.00000000000E+00 0. -1.
         13    1    3    3    0    0  0.78795793056E+01  0.27296697634E+02 -0.47203896085E+02  0.55094512226E+02  0.00000000000E+00 0.  1.
          2    1    1    2  501    0 -0.10591241216E+02  0.48240031117E+02  0.90955264020E+02  0.10349944466E+03  0.00000000000E+00 0. -1.
<scales pt_clust_5="13000.00000" pt_clust_6="13000.00000" pt_clust_7="13000.00000" pt_clust_8="13000.00000" pt_clust_9="49.38902"></scales>
<clustering>
<clus scale="   49.389">  1  9  2 -1</clus>
<clus scale="   88.862">  5  6 -1 -1</clus>
<clus scale="   89.780">  7  8 -1 -1</clus>
<clus scale="  135.022">  1  5  2 -1</clus>
<clus scale="   49.389">  1  5  2 -1</clus>
</clustering>
</event>
<event>
 9    1  0.1426358E-005  0.1195993E+03  0.7546771E-02  0.1244021E+00
         21   -1    0    0  501  502  0.00000000000E+00  0.00000000000E+00  0.10927899082E+03  0.10927899082E+03  0.00000000000E+00 0. -1.
          1   -1    0    0  502    0 -0.00000000000E+00 -0.00000000000E+00 -0.19461315209E+03  0.19461315209E+03  0.00000000000E+00 0. -1.
         23    2    1    2    0    0  0.42127400905E+02  0.81030514918E+02 -0.85063979147E+02  0.15585705699E+03  0.93353518462E+02 0.  0.
         23    2    1    2    0    0 -0.14608545596E+02 -0.49321955623E+02 -0.33843558286E+01  0.10593498844E+03  0.92545680618E+02 0.  0.
        -11    1    4    4    0    0  0.35255670583E+02 -0.33902041765E+02  0.14078559725E+02  0.50897117679E+02  0.00000000000E+00 0.  1.
         11    1    4    4    0    0 -0.49864216179E+02 -0.15419913858E+02 -0.17462915554E+02  0.55037870764E+02  0.00000000000E+00 0. -1.
        -11    1    3    3    0    0 -0.26688116621E+02  0.38566904179E+02 -0.47302060833E+02  0.66611910540E+02  0.00000000000E+00 0.  1.
         11    1    3    3    0    0  0.68815517527E+02  0.42463610739E+02 -0.37761918314E+02  0.89245146447E+02  0.00000000000E+00 0. -1.
          1    1    1    2  501    0 -0.27518855309E+02 -0.31708559296E+02  0.31141737080E+01  0.42100097482E+02  0.00000000000E+00 0. -1.
<scales pt_clust_5="13000.00000" pt_clust_6="13000.00000" pt_clust_7="13000.00000" pt_clust_8="13000.00000" pt_clust_9="41.98476"></scales>
<clustering>
<clus scale="   41.985">  1  9  2 -1</clus>
<clus scale="   92.546">  5  6 -1 -1</clus>
<clus scale="   93.354">  7  8 -1 -1</clus>
<clus scale="  118.970">  1  5  2 -1</clus>
<clus scale="   41.985">  1  5  2 -1</clus>
</clustering>
</event>
<event>
 9    1  0.1426358E-005  0.1012358E+03  0.7546771E-02  0.1278184E+00
         -1   -1    0    0    0  501 -0.00000000000E+00  0.00000000000E+00  0.40707968391E+03  0.40707968391E+03  0.00000000000E+00 0.  1.
         21   -1    0    0  501  502  0.00000000000E+00 -0.00000000000E+00 -0.33121067687E+02  0.33121067687E+02  0.00000000000E+00 0. -1.
         23    2    1    2    0    0 -0.31508411934E+02  0.47338189454E+02  0.19062310432E+03  0.21887133025E+03  0.91289687809E+02 0.  0.
         23    2    1    2    0    0  0.16431496933E+02 -0.24049679155E+02  0.12692891930E+03  0.15846948366E+03  0.90295324000E+02 0.  0.
        -13    1    3    3    0    0  0.29330804690E+02 -0.10357964190E+01  0.43440422743E+02  0.52425559664E+02  0.00000000000E+00 0. -1.
         13    1    3    3    0    0 -0.60839216625E+02  0.48373985873E+02  0.14718268158E+03  0.16644577059E+03  0.00000000000E+00 0.  1.
        -13    1    4    4    0    0 -0.27697765270E+02  0.10907871413E+02  0.79382166415E+02  0.84780163980E+02  0.00000000000E+00 0.  1.
         13    1    4    4    0    0  0.44129262203E+02 -0.34957550568E+02  0.47546752886E+02  0.73689319676E+02  0.00000000000E+00 0. -1.
         -1    1    1    2    0  502  0.15076915001E+02 -0.23288510299E+02  0.56406592594E+02  0.62859937687E+02  0.00000000000E+00 0.  1.
<scales pt_clust_5="13000.00000" pt_clust_6="13000.00000" pt_clust_7="13000.00000" pt_clust_8="13000.00000" pt_clust_9="27.74291"></scales>
<clustering>
<clus scale="   27.743">  2  9  1 -1</clus>
<clus scale="   90.295">  7  8 -1 -1</clus>
<clus scale="   91.290">  5  6 -1 -1</clus>
<clus scale="  100.340">  2  7  1 -1</clus>
<clus scale="   27.743">  2  5  1 -1</clus>
</clustering>
</event>
<event>
 9    1  0.1426358E-005  0.1139846E+03  0.7546771E-02  0.1254359E+00
          2   -1    0    0  502    0 -0.00000000000E+00  0.00000000000E+00  0.28041652993E+03  0.28041652993E+03  0.00000000000E+00 0. -1.
         21   -1    0    0  501  502  0.00000000000E+00 -0.00000000000E+00 -0.15330566453E+03  0.15330566453E+03  0.00000000000E+00 0. -1.
         23    2    1    2    0    0 -0.15914356621E+02  0.55204480438E+02  0.13814261648E+03  0.17526043795E+03  0.91279993496E+02 0.  0.
         23    2    1    2    0    0  0.79182374596E+01 -0.76054752030E+02  0.92567200614E+02  0.15248338825E+03  0.93997198207E+02 0.  0.
        -11    1    4    4    0    0  0.47545522309E+02 -0.63697330063E+02  0.64675554025E+02  0.10247367387E+03  0.00000000000E+00 0.  1.
         11    1    4    4    0    0 -0.39627284849E+02 -0.12357421967E+02  0.27891646589E+02  0.50009714373E+02  0.00000000000E+00 0. -1.
        -11    1    3    3    0    0 -0.11617411386E+02  0.80934693261E+02  0.10401274511E+03  0.13230283431E+03  0.00000000000E+00 0.  1.
         11    1    3    3    0    0 -0.42969452350E+01 -0.25730212823E+02  0.34129871371E+02  0.42957603635E+02  0.00000000000E+00 0. -1.
          2    1    1    2  501    0  0.79961191615E+01  0.20850271592E+02 -0.10359895170E+03  0.10597836826E+03  0.00000000000E+00 0. -1.
<scales pt_clust_5="13000.00000" pt_clust_6="13000.00000" pt_clust_7="13000.00000" pt_clust_8="13000.00000" pt_clust_9="22.33096"></scales>
<clustering>
<clus scale="   22.331">  2  9  1 -1</clus>
<clus scale="   91.280">  7  8 -1 -1</clus>
<clus scale="   93.997">  5  6 -1 -1</clus>
<clus scale="  111.754">  1  7  2 -1</clus>
<clus scale="   22.331">  2  5  1 -1</clus>
</clustering>
</event>
<event>
 9    1  0.1426358E-005  0.1011433E+03  0.7546771E-02  0.1279451E+00
          2   -1    0    0  502    0 -0.00000000000E+00  0.00000000000E+00  0.53094499768E+03  0.53094499768E+03  0.00000000000E+00 0. -1.
         21   -1    0    0  501  502  0.00000000000E+00 -0.00000000000E+00 -0.42818162731E+02  0.42818162731E+02  0.00000000000E+00 0. -1.
         23    2    1    2    0    0 -0.28840846915E+02 -0.26007986194E+02  0.33258173869E+03  0.34846609849E+03  0.96487300149E+02 0.  0.
         23    2    1    2    0    0  0.27155627746E+02 -0.33756341596E+02  0.92595784803E+02  0.13847983637E+03  0.93411814036E+02 0.  0.
        -11    1    4    4    0    0 -0.16529379236E+02  0.24655675344E+02  0.32052366012E+02  0.43686117607E+02  0.00000000000E+00 0.  1.
         11    1    4    4    0    0  0.43685006982E+02 -0.58412016941E+02  0.60543418791E+02  0.94793718763E+02  0.00000000000E+00 0. -1.
        -13    1    3    3    0    0  0.83509436592E+01 -0.55741462002E+02  0.18443113384E+03  0.19285147646E+03  0.00000000000E+00 0. -1.
         13    1    3    3    0    0 -0.37191790574E+02  0.29733475808E+02  0.14815060485E+03  0.15561462202E+03  0.00000000000E+00 0.  1.
          2    1    1    2  501    0  0.16852191688E+01  0.59764327791E+02  0.62949311462E+02  0.86817225558E+02  0.00000000000E+00 0. -1.
<scales pt_clust_5="13000.00000" pt_clust_6="13000.00000" pt_clust_7="13000.00000" pt_clust_8="13000.00000" pt_clust_9="59.78808"></scales>
<clustering>
<clus scale="   59.788">  2  9  1 -1</clus>
<clus scale="   93.412">  5  6 -1 -1</clus>
<clus scale="   96.487">  7  8 -1 -1</clus>
<clus scale="   98.214">  2  5  1 -1</clus>
<clus scale="   59.788">  2  5  1 -1</clus>
</clustering>
</event>
<event>
 9    1  0.1426358E-005  0.1881221E+03  0.7546771E-02  0.1160277E+00
          1   -1    0    0  502    0 -0.00000000000E+00  0.00000000000E+00  0.10117719267E+03  0.10117719267E+03  0.00000000000E+00 0. -1.
         21   -1    0    0  501  502  0.00000000000E+00 -0.00000000000E+00 -0.49357931975E+03  0.49357931975E+03  0.00000000000E+00 0.  1.
         23    2    1    2    0    0  0.10804746123E+02  0.15123460491E+03 -0.11633942578E+03  0.21172981798E+03  0.91137289670E+02 0.  0.
         23    2    1    2    0    0 -0.36355577514E+02 -0.18434903209E+03 -0.26866583671E+03  0.34055171501E+03  0.92129501974E+02 0.  0.
        -13    1    3    3    0    0 -0.24881982752E+02  0.77754252245E+02 -0.98827045780E+02  0.12818588762E+03  0.00000000000E+00 0.  1.
         13    1    3    3    0    0  0.35686728876E+02  0.73480352667E+02 -0.17512379998E+02  0.83543930354E+02  0.00000000000E+00 0. -1.
        -13    1    4    4    0    0 -0.14145993505E+02 -0.14799545117E+03 -0.13700784347E+03  0.20217297513E+03  0.00000000000E+00 0.  1.
         13    1    4    4    0    0 -0.22209584009E+02 -0.36353580913E+02 -0.13165799324E+03  0.13837873988E+03  0.00000000000E+00 0. -1.
          1    1    1    2  501    0  0.25550831391E+02  0.33114427174E+02 -0.73968645888E+01  0.42474979430E+02  0.00000000000E+00 0. -1.
<scales pt_clust_5="13000.00000" pt_clust_6="13000.00000" pt_clust_7="13000.00000" pt_clust_8="13000.00000" pt_clust_9="41.82597"></scales>
<clustering>
<clus scale="   41.826">  2  9  1 -1</clus>
<clus scale="   91.137">  5  6 -1 -1</clus>
<clus scale="   92.130">  7  8 -1 -1</clus>
<clus scale="  187.638">  1  5  2 -1</clus>
<clus scale="   41.826">  2  5  1 -1</clus>
</clustering>
</event>
<event>
 9    1  0.1426358E-005  0.1190932E+03  0.7546771E-02  0.1248610E+00
         21   -1    0    0  501  502  0.00000000000E+00  0.00000000000E+00  0.18774750780E+03  0.18774750780E+03  0.00000000000E+00 0.  1.
          1   -1    0    0  502    0 -0.00000000000E+00 -0.00000000000E+00 -0.43910220578E+03  0.43910220578E+03  0.00000000000E+00 0. -1.
         23    2    1    2    0    0  0.58727229672E+02 -0.30968611954E+02 -0.30693141037E+03  0.32512591461E+03  0.84214174893E+02 0.  0.
         23    2    1    2    0    0 -0.85460499379E+02  0.12522173333E+03  0.86252042262E+02  0.19906273302E+03  0.95930065313E+02 0.  0.
        -11    1    4    4    0    0 -0.16128775931E+02  0.10633027146E+03  0.51827770711E+02  0.11938333995E+03  0.00000000000E+00 0.  1.
         11    1    4    4    0    0 -0.69331723448E+02  0.18891461873E+02  0.34424271550E+02  0.79679393068E+02  0.00000000000E+00 0. -1.
        -13    1    3    3    0    0 -0.13431968253E+02 -0.22351246193E+02 -0.34968701125E+02  0.43621165000E+02  0.00000000000E+00 0.  1.
         13    1    3    3    0    0  0.72159197925E+02 -0.86173657609E+01 -0.27196270924E+03  0.28150474961E+03  0.00000000000E+00 0. -1.
          1    1    1    2  501    0  0.26733269706E+02 -0.94253121376E+02 -0.30675329874E+02  0.10266106595E+03  0.00000000000E+00 0. -1.
<scales pt_clust_5="13000.00000" pt_clust_6="13000.00000" pt_clust_7="13000.00000" pt_clust_8="13000.00000" pt_clust_9="97.97101"></scales>
<clustering>
<clus scale="   84.214">  7  8 -1 -1</clus>
<clus scale="   95.930">  5  6 -1 -1</clus>
<clus scale="   97.971">  1  9  2 -1</clus>
<clus scale="  109.876">  2  7  1 -1</clus>
<clus scale="   97.971">  1  5  2 -1</clus>
</clustering>
</event>
<event>
 9    1  0.1426358E-005  0.1374881E+03  0.7546771E-02  0.1216974E+00
         21   -1    0    0  501  502  0.00000000000E+00  0.00000000000E+00  0.34244694699E+02  0.34244694699E+02  0.00000000000E+00 0.  1.
          2   -1    0    0  502    0 -0.00000000000E+00 -0.00000000000E+00 -0.11229994919E+04  0.11229994919E+04  0.00000000000E+00 0. -1.
         23    2    1    2    0    0  0.51009376937E+02 -0.10703897575E+03 -0.67790627177E+03  0.69441998174E+03  0.92751813265E+02 0.  0.
         23    2    1    2    0    0 -0.54421151844E+02  0.63616918763E+02 -0.39869910130E+03  0.41760558314E+03  0.91786031456E+02 0.  0.
        -11    1    3    3    0    0  0.10572711214E+02 -0.10951735356E+03 -0.49457598023E+03  0.50666678713E+03  0.00000000000E+00 0.  1.
         11    1    3    3    0    0  0.40436665723E+02  0.24783778072E+01 -0.18333029154E+03  0.18775319461E+03  0.00000000000E+00 0. -1.
        -13    1    4    4    0    0 -0.18932105015E+02  0.72235363997E+02 -0.34276130010E+03  0.35080148411E+03  0.00000000000E+00 0. -1.
         13    1    4    4    0    0 -0.35489046830E+02 -0.86184452346E+01 -0.55937801202E+02  0.66804099024E+02  0.00000000000E+00 0.  1.
          2    1    1    2  501    0  0.34117749071E+01  0.43422056990E+02 -0.12149424092E+02  0.45218621685E+02  0.00000000000E+00 0. -1.
<scales pt_clust_5="13000.00000" pt_clust_6="13000.00000" pt_clust_7="13000.00000" pt_clust_8="13000.00000" pt_clust_9="43.55589"></scales>
<clustering>
<clus scale="   43.556">  1  9  2 -1</clus>
<clus scale="   91.786">  7  8 -1 -1</clus>
<clus scale="   92.752">  5  6 -1 -1</clus>
<clus scale="  136.838">  1  7  2 -1</clus>
<clus scale="   43.556">  1  5  2 -1</clus>
</clustering>
</event>
<event>
 9    1  0.1426358E-005  0.9907237E+02  0.7546771E-02  0.1284348E+00
          1   -1    0    0  502    0 -0.00000000000E+00  0.00000000000E+00  0.95152741221E+03  0.95152741221E+03  0.00000000000E+00 0. -1.
         21   -1    0    0  501  502  0.00000000000E+00 -0.00000000000E+00 -0.18556943797E+02  0.18556943797E+02  0.00000000000E+00 0.  1.
         23    2    1    2    0    0  0.37118277032E+01  0.27993281679E+01  0.39543828712E+03  0.40666060063E+03  0.94761760681E+02 0.  0.
         23    2    1    2    0    0 -0.28694457528E+02 -0.52694164683E+02  0.41064727321E+03  0.42481132302E+03  0.90738251485E+02 0.  0.
        -11    1    3    3    0    0  0.15850546734E+02 -0.43760266933E+02  0.18069488575E+03  0.18659271832E+03  0.00000000000E+00 0.  1.
         11    1    3    3    0    0 -0.12138719031E+02  0.46559595101E+02  0.21474340136E+03  0.22006788231E+03  0.00000000000E+00 0. -1.
        -13    1    4    4    0    0 -0.60627494792E+02 -0.42133529976E+02  0.24965074641E+03  0.26033905327E+03  0.00000000000E+00 0.  1.
         13    1    4    4    0    0  0.31933037264E+02 -0.10560634707E+02  0.16099652680E+03  0.16447226975E+03  0.00000000000E+00 0. -1.
          1    1    1    2  501    0  0.24982629825E+02  0.49894836515E+02  0.12688490808E+03  0.13861243236E+03  0.00000000000E+00 0. -1.
<scales pt_clust_5="13000.00000" pt_clust_6="13000.00000" pt_clust_7="13000.00000" pt_clust_8="13000.00000" pt_clust_9="55.79988"></scales>
<clustering>
<clus scale="   55.800">  2  9  1 -1</clus>
<clus scale="   90.738">  7  8 -1 -1</clus>
<clus scale="   94.762">  5  6 -1 -1</clus>
<clus scale="   95.231">  2  7  1 -1</clus>
<clus scale="   55.800">  2  5  1 -1</clus>
</clustering>
</event>
<event>
 9    1  0.1426358E-005  0.9670558E+02  0.7546771E-02  0.1289796E+00
         21   -1    0    0  501  502  0.00000000000E+00  0.00000000000E+00  0.14177860813E+03  0.14177860813E+03  0.00000000000E+00 0. -1.
          2   -1    0    0  502    0 -0.00000000000E+00 -0.00000000000E+00 -0.39842972861E+03  0.39842972861E+03  0.00000000000E+00 0. -1.
         23    2    1    2    0    0  0.26516427810E+02  0.89869407947E+01 -0.36266255417E+03  0.37525729471E+03  0.92249785828E+02 0.  0.
         23    2    1    2    0    0 -0.48249707560E+02  0.28793232493E+01  0.74331782515E+02  0.12474228713E+03  0.87744512794E+02 0.  0.
        -11    1    4    4    0    0 -0.74151111415E+02  0.26239421847E+01  0.57208694338E+02  0.93691553005E+02  0.00000000000E+00 0. -1.
         11    1    4    4    0    0  0.25901403855E+02  0.25538106452E+00  0.17123088176E+02  0.31050734128E+02  0.00000000000E+00 0.  1.
        -11    1    3    3    0    0  0.46037571513E+02  0.37602631742E+02 -0.26641643998E+03  0.27296727898E+03  0.00000000000E+00 0. -1.
         11    1    3    3    0    0 -0.19521143703E+02 -0.28615690947E+02 -0.96246114197E+02  0.10229001573E+03  0.00000000000E+00 0.  1.
          2    1    1    2  501    0  0.21733279749E+02 -0.11866264044E+02  0.31679651178E+02  0.40208754890E+02  0.00000000000E+00 0. -1.
<scales pt_clust_5="13000.00000" pt_clust_6="13000.00000" pt_clust_7="13000.00000" pt_clust_8="13000.00000" pt_clust_9="24.76174"></scales>
<clustering>
<clus scale="   24.762">  1  9  2 -1</clus>
<clus scale="   87.745">  5  6 -1 -1</clus>
<clus scale="   92.250">  7  8 -1 -1</clus>
<clus scale="   92.418">  1  5  2 -1</clus>
<clus scale="   24.762">  1  5  2 -1</clus>
</clustering>
</event>
<event>
 9    1  0.1426358E-005  0.1291475E+03  0.7546771E-02  0.1232103E+00
         21   -1    0    0  501  502  0.00000000000E+00  0.00000000000E+00  0.80926778228E+03  0.80926778228E+03  0.00000000000E+00 0.  1.
          3   -1    0    0  502    0 -0.00000000000E+00 -0.00000000000E+00 -0.26003644701E+02  0.26003644701E+02  0.00000000000E+00 0. -1.
         23    2    1    2    0    0  0.55991585498E+02 -0.46042051795E+02  0.30370153361E+03  0.32484854379E+03  0.89649465736E+02 0.  0.
         23    2    1    2    0    0 -0.46140435635E+02  0.81539950792E+02  0.38720124478E+03  0.41098563334E+03  0.10102813209E+03 0.  0.
        -13    1    3    3    0    0  0.46180954024E+02 -0.16150913067E+02  0.28297872060E+03  0.28717675537E+03  0.00000000000E+00 0.  1.
         13    1    3    3    0    0  0.98106314744E+01 -0.29891138727E+02  0.20722813004E+02  0.37671788425E+02  0.00000000000E+00 0. -1.
        -13    1    4    4    0    0  0.72206054024E+01  0.44139344168E+02  0.48104377959E+02  0.65684473240E+02  0.00000000000E+00 0.  1.
         13    1    4    4    0    0 -0.53361041038E+02  0.37400606624E+02  0.33909686682E+03  0.34530116010E+03  0.00000000000E+00 0. -1.
          3    1    1    2  501    0 -0.98511498627E+01 -0.35497898997E+02  0.92361359191E+02  0.99437249854E+02  0.00000000000E+00 0. -1.
<scales pt_clust_5="13000.00000" pt_clust_6="13000.00000" pt_clust_7="13000.00000" pt_clust_8="13000.00000" pt_clust_9="36.83948"></scales>
<clustering>
<clus scale="   36.839">  1  9  2 -1</clus>
<clus scale="   89.649">  5  6 -1 -1</clus>
<clus scale="  101.028">  7  8 -1 -1</clus>
<clus scale="  120.455">  2  5  1 -1</clus>
<clus scale="   36.839">  1  5  2 -1</clus>
</clustering>
</event>
<event>
 9    1  0.1426358E-005  0.1064449E+03  0.7546771E-02  0.1268516E+00
          1   -1    0    0  502    0 -0.00000000000E+00  0.00000000000E+00  0.30738587224E+03  0.30738587224E+03  0.00000000000E+00 0. -1.
         21   -1    0    0  501  502  0.00000000000E+00 -0.00000000000E+00 -0.58916207880E+02  0.58916207880E+02  0.00000000000E+00 0.  1.
         23    2    1    2    0    0  0.21356286442E+02 -0.43094608324E+02  0.19689420973E+03  0.22427098515E+03  0.96004732791E+02 0.  0.
         23    2    1    2    0    0 -0.36481649997E+02  0.24737680912E+02  0.24527065515E+02  0.10601208942E+03  0.93242278598E+02 0.  0.
        -13    1    3    3    0    0 -0.19240424145E+02  0.91615753820E+01  0.12401356239E+03  0.12583120456E+03  0.00000000000E+00 0.  1.
         13    1    3    3    0    0  0.40596710586E+02 -0.52256183706E+02  0.72880647341E+02  0.98439780591E+02  0.00000000000E+00 0. -1.
        -13    1    4    4    0    0 -0.56675555364E+02 -0.19416032161E+01  0.39749026688E+02  0.69252245607E+02  0.00000000000E+00 0. -1.
         13    1    4    4    0    0  0.20193905368E+02  0.26679284128E+02 -0.15221961174E+02  0.36759843818E+02  0.00000000000E+00 0.  1.
          1    1    1    2  501    0  0.15125363555E+02  0.18356927412E+02  0.27048389121E+02  0.36019005549E+02  0.00000000000E+00 0. -1.
<scales pt_clust_5="13000.00000" pt_clust_6="13000.00000" pt_clust_7="13000.00000" pt_clust_8="13000.00000" pt_clust_9="23.78558"></scales>
<clustering>
<clus scale="   23.786">  2  9  1 -1</clus>
<clus scale="   93.242">  7  8 -1 -1</clus>
<clus scale="   96.005">  5  6 -1 -1</clus>
<clus scale="  103.960">  2  7  1 -1</clus>
<clus scale="   23.786">  2  5  1 -1</clus>
</clustering>
</event>
<event>
 9    1  0.1426358E-005  0.1056019E+03  0.7546771E-02  0.1269249E+00
          1   -1    0    0  502    0 -0.00000000000E+00  0.00000000000E+00  0.27207686170E+03  0.27207686170E+03  0.00000000000E+00 0. -1.
         21   -1    0    0  501  502  0.00000000000E+00 -0.00000000000E+00 -0.19828051289E+03  0.19828051289E+03  0.00000000000E+00 0. -1.
         23    2    1    2    0    0 -0.14803735432E+01 -0.48646455354E+02  0.18595762512E+03  0.21291874503E+03  0.91572291217E+02 0.  0.
         23    2    1    2    0    0 -0.23993523319E+02  0.65339517114E+02  0.24827976773E+02  0.11710462372E+03  0.90841195548E+02 0.  0.
        -11    1    3    3    0    0  0.18876619262E+02 -0.10499590738E+02 -0.40689191475E+00  0.21604020956E+02  0.00000000000E+00 0.  1.
         11    1    3    3    0    0 -0.20356992805E+02 -0.38146864615E+02  0.18636451704E+03  0.19131472407E+03  0.00000000000E+00 0. -1.
        -13    1    4    4    0    0 -0.18307797717E+02  0.45243906305E+02  0.59298110864E+02  0.76801383237E+02  0.00000000000E+00 0. -1.
         13    1    4    4    0    0 -0.56857256017E+01  0.20095610808E+02 -0.34470134091E+02  0.40303240485E+02  0.00000000000E+00 0.  1.
          1    1    1    2  501    0  0.25473896862E+02 -0.16693061760E+02 -0.13698925309E+03  0.14033400583E+03  0.00000000000E+00 0. -1.
<scales pt_clust_5="13000.00000" pt_clust_6="13000.00000" pt_clust_7="13000.00000" pt_clust_8="13000.00000" pt_clust_9="30.45616"></scales>
<clustering>
<clus scale="   30.456">  2  9  1 -1</clus>
<clus scale="   90.841">  7  8 -1 -1</clus>
<clus scale="   91.572">  5  6 -1 -1</clus>
<clus scale="  104.969">  2  7  1 -1</clus>
<clus scale="   30.456">  2  5  1 -1</clus>
</clustering>
</event>
<event>
 9    1  0.1426358E-005  0.9816735E+02  0.7546771E-02  0.1285996E+00
         -3   -1    0    0    0  501 -0.00000000000E+00  0.00000000000E+00  0.18402967952E+03  0.18402967952E+03  0.00000000000E+00 0.  1.
         21   -1    0    0  501  502  0.00000000000E+00 -0.00000000000E+00 -0.11342806292E+03  0.11342806292E+03  0.00000000000E+00 0.  1.
         23    2    1    2    0    0  0.18404761468E+02 -0.42904651082E+02  0.11810604865E+03  0.15576811922E+03  0.90194921738E+02 0.  0.
         23    2    1    2    0    0 -0.25164185658E+02  0.15252092520E+00 -0.32811576907E+02  0.95980603980E+02  0.86616495305E+02 0.  0.
        -13    1    3    3    0    0 -0.23446560032E+02  0.90731135575E+01  0.68905202025E+01  0.26068023240E+02  0.00000000000E+00 0. -1.
         13    1    3    3    0    0  0.41851321500E+02 -0.51977764640E+02  0.11121552845E+03  0.12970009598E+03  0.00000000000E+00 0.  1.
        -13    1    4    4    0    0 -0.39713898489E+02  0.34235210122E+02 -0.25086899675E+02  0.58125690367E+02  0.00000000000E+00 0. -1.
         13    1    4    4    0    0  0.14549712832E+02 -0.34082689197E+02 -0.77246772314E+01  0.37854913613E+02  0.00000000000E+00 0.  1.
         -3    1    1    2    0  502  0.67594241898E+01  0.42752130157E+02 -0.14692855148E+02  0.45709019249E+02  0.00000000000E+00 0.  1.
<scales pt_clust_5="13000.00000" pt_clust_6="13000.00000" pt_clust_7="13000.00000" pt_clust_8="13000.00000" pt_clust_9="43.28319"></scales>
<clustering>
<clus scale="   43.283">  2  9  1 -1</clus>
<clus scale="   86.616">  7  8 -1 -1</clus>
<clus scale="   90.195">  5  6 -1 -1</clus>
<clus scale="   94.890">  2  7  1 -1</clus>
<clus scale="   43.283">  2  5  1 -1</clus>
</clustering>
</event>
<event>
 9    1  0.1426358E-005  0.9409030E+02  0.7546771E-02  0.1294016E+00
         21   -1    0    0  501  502  0.00000000000E+00  0.00000000000E+00  0.19419103851E+03  0.19419103851E+03  0.00000000000E+00 0.  1.
          3   -1    0    0  502    0 -0.00000000000E+00 -0.00000000000E+00 -0.58940427664E+02  0.58940427664E+02  0.00000000000E+00 0. -1.
         23    2    1    2    0    0  0.12978224964E+02  0.22887839559E+01  0.50543361970E+02  0.10650001823E+03  0.92811365623E+02 0.  0.
         23    2    1    2    0    0 -0.71881254522E+01 -0.23268573576E+02  0.80987430249E+02  0.12455173156E+03  0.91438910283E+02 0.  0.
        -11    1    4    4    0    0 -0.28430362026E+02 -0.28841136817E+02  0.91605728999E+02  0.10015840575E+03  0.00000000000E+00 0.  1.
         11    1    4    4    0    0  0.21242236574E+02  0.55725632414E+01 -0.10618298751E+02  0.24393325810E+02  0.00000000000E+00 0. -1.
        -13    1    3    3    0    0 -0.37583177640E+02  0.13414696328E+02  0.33171320210E+02  0.51892059157E+02  0.00000000000E+00 0. -1.
         13    1    3    3    0    0  0.50561402604E+02 -0.11125912372E+02  0.17372041760E+02  0.54607959075E+02  0.00000000000E+00 0.  1.
          3    1    1    2  501    0 -0.57900995122E+01  0.20979789620E+02  0.37198186303E+01  0.22079716382E+02  0.00000000000E+00 0. -1.
<scales pt_clust_5="13000.00000" pt_clust_6="13000.00000" pt_clust_7="13000.00000" pt_clust_8="13000.00000" pt_clust_9="21.76413"></scales>
<clustering>
<clus scale="   21.764">  1  9  2 -1</clus>
<clus scale="   91.439">  5  6 -1 -1</clus>
<clus scale="   92.737">  1  5  2 -1</clus>
<clus scale="   92.811">  7  8 -1 -1</clus>
<clus scale="   21.764">  1  5  2 -1</clus>
</clustering>
</event>
<event>
 9    1  0.1426358E-005  0.2244350E+03  0.7546771E-02  0.1130674E+00
         -2   -1    0    0    0  501 -0.00000000000E+00  0.00000000000E+00  0.13378997036E+03  0.13378997036E+03  0.00000000000E+00 0.  1.
         21   -1    0    0  501  502  0.00000000000E+00 -0.00000000000E+00 -0.14043621172E+04  0.14043621172E+04  0.00000000000E+00 0.  1.
         23    2    1    2    0    0  0.11872798793E+03  0.18078761650E+03 -0.11614753070E+02  0.23522293336E+03  0.91730194001E+02 0.  0.
         23    2    1    2    0    0 -0.16564091433E+03 -0.52739967514E+02 -0.66623306860E+03  0.69471936415E+03  0.92466623986E+02 0.  0.
        -11    1    4    4    0    0 -0.11648812880E+03  0.80767354778E+01 -0.35011894618E+03  0.36907721994E+03  0.00000000000E+00 0. -1.
         11    1    4    4    0    0 -0.49152785533E+02 -0.60816702992E+02 -0.31611412242E+03  0.32564214421E+03  0.00000000000E+00 0.  1.
        -13    1    3    3    0    0  0.95526322345E+02  0.11753282394E+03  0.32215328910E+02  0.15484531113E+03  0.00000000000E+00 0.  1.
         13    1    3    3    0    0  0.23201665583E+02  0.63254792561E+02 -0.43830081980E+02  0.80377622222E+02  0.00000000000E+00 0. -1.
         -2    1    1    2    0  502  0.46912926404E+02 -0.12804764898E+03 -0.59272432519E+03  0.60820979007E+03  0.00000000000E+00 0.  1.
<scales pt_clust_5="13000.00000" pt_clust_6="13000.00000" pt_clust_7="13000.00000" pt_clust_8="13000.00000" pt_clust_9="136.37090"></scales>
<clustering>
<clus scale="   91.730">  7  8 -1 -1</clus>
<clus scale="   92.467">  5  6 -1 -1</clus>
<clus scale="  136.371">  2  9  1 -1</clus>
<clus scale="  224.133">  1  7  2 -1</clus>
<clus scale="  136.371">  2  5  1 -1</clus>
</clustering>
</event>
<event>
 9    1  0.1426358E-005  0.1008733E+03  0.7546771E-02  0.1278923E+00
          1   -1    0    0  502    0 -0.00000000000E+00  0.00000000000E+00  0.46153646112E+03  0.46153646112E+03  0.00000000000E+00 0. -1.
         21   -1    0    0  501  502  0.00000000000E+00 -0.00000000000E+00 -0.33194050483E+02  0.33194050483E+02  0.00000000000E+00 0.  1.
         23    2    1    2    0    0 -0.46581034471E+02  0.25934817265E+00  0.23413166008E+03  0.25621094966E+03  0.93040617140E+02 0.  0.
         23    2    1    2    0    0  0.24843407150E+02  0.12976098255E+02  0.18843255858E+03  0.21242188032E+03  0.93971549420E+02 0.  0.
        -11    1    4    4    0    0 -0.21272971108E+02  0.27917013989E+02  0.13830330395E+03  0.14268743061E+03  0.00000000000E+00 0.  1.
         11    1    4    4    0    0  0.46116378259E+02 -0.14940915734E+02  0.50129254627E+02  0.69734449708E+02  0.00000000000E+00 0. -1.
        -13    1    3    3    0    0 -0.31775585401E+01  0.27034235029E+02  0.14709841534E+02  0.30940688096E+02  0.00000000000E+00 0. -1.
         13    1    3    3    0    0 -0.43403475931E+02 -0.26774886856E+02  0.21942181855E+03  0.22527026156E+03  0.00000000000E+00 0.  1.
          1    1    1    2  501    0  0.21737627321E+02 -0.13235446428E+02  0.57781919716E+01  0.26097681624E+02  0.00000000000E+00 0. -1.
<scales pt_clust_5="13000.00000" pt_clust_6="13000.00000" pt_clust_7="13000.00000" pt_clust_8="13000.00000" pt_clust_9="25.44998"></scales>
<clustering>
<clus scale="   25.450">  2  9  1 -1</clus>
<clus scale="   93.041">  7  8 -1 -1</clus>
<clus scale="   93.972">  5  6 -1 -1</clus>
<clus scale="  100.007">  1  7  2 -1</clus>
<clus scale="   25.450">  2  5  1 -1</clus>
</clustering>
</event>
<event>
 9    1  0.1426358E-005  0.9510175E+02  0.7546771E-02  0.1290998E+00
          1   -1    0    0  502    0 -0.00000000000E+00  0.00000000000E+00  0.17854206756E+03  0.17854206756E+03  0.00000000000E+00 0. -1.
         21   -1    0    0  501  502  0.00000000000E+00 -0.00000000000E+00 -0.14851619726E+03  0.14851619726E+03  0.00000000000E+00 0. -1.
         23    2    1    2    0    0 -0.31402534414E+02  0.31226155663E+02  0.96324108905E+02  0.13992002113E+03  0.91313122781E+02 0.  0.
         23    2    1    2    0    0 -0.20845033546E+02 -0.36929350479E+01  0.57209454135E+01  0.94000445452E+02  0.91406790426E+02 0.  0.
        -13    1    3    3    0    0 -0.45375969730E+02 -0.11992525012E+02  0.77812304894E+02  0.90871084939E+02  0.00000000000E+00 0. -1.
         13    1    3    3    0    0  0.13973435316E+02  0.43218680675E+02  0.18511804011E+02  0.49048936192E+02  0.00000000000E+00 0.  1.
        -13    1    4    4    0    0  0.12730551475E+02 -0.40583389405E+02 -0.54551270178E+01  0.42881660967E+02  0.00000000000E+00 0.  1.
         13    1    4    4    0    0 -0.33575585022E+02  0.36890454357E+02  0.11176072431E+02  0.51118784485E+02  0.00000000000E+00 0. -1.
          1    1    1    2  501    0  0.52247567960E+02 -0.27533220615E+02 -0.72019184019E+02  0.93137798245E+02  0.00000000000E+00 0. -1.
<scales pt_clust_5="13000.00000" pt_clust_6="13000.00000" pt_clust_7="13000.00000" pt_clust_8="13000.00000" pt_clust_9="59.05833"></scales>
<clustering>
<clus scale="   59.058">  2  9  1 -1</clus>
<clus scale="   91.313">  5  6 -1 -1</clus>
<clus scale="   91.407">  7  8 -1 -1</clus>
<clus scale="   95.012">  1  5  2 -1</clus>
<clus scale="   59.058">  2  5  1 -1</clus>
</clustering>
</event>
<event>
 9    1  0.1426358E-005  0.1058492E+03  0.7546771E-02  0.1270129E+00
         21   -1    0    0  501  502  0.00000000000E+00  0.00000000000E+00  0.16685940509E+03  0.16685940509E+03  0.00000000000E+00 0.  1.
         -2   -1    0    0    0  501 -0.00000000000E+00 -0.00000000000E+00 -0.19529940233E+03  0.19529940233E+03  0.00000000000E+00 0.  1.
         23    2    1    2    0    0 -0.30504433320E+02  0.40409823428E+02 -0.10081016301E+03  0.14589375439E+03  0.92513914203E+02 0.  0.
         23    2    1    2    0    0  0.89153062036E+01 -0.56266466913E+02 -0.30721193856E+02  0.10975049073E+03  0.88633969108E+02 0.  0.
        -11    1    4    4    0    0 -0.37127362887E+02 -0.15228229346E+02  0.15139918744E+01  0.40157592251E+02  0.00000000000E+00 0.  1.
         11    1    4    4    0    0  0.46042669091E+02 -0.41038237567E+02 -0.32235185730E+02  0.69592898478E+02  0.00000000000E+00 0. -1.
        -13    1    3    3    0    0 -0.30534302680E+02 -0.11191370778E+02 -0.86400852381E+02  0.92318458133E+02  0.00000000000E+00 0.  1.
         13    1    3    3    0    0  0.29869359767E-01  0.51601194207E+02 -0.14409310629E+02  0.53575296252E+02  0.00000000000E+00 0. -1.
         -2    1    1    2    0  502  0.21589127116E+02  0.15856643485E+02  0.10309135963E+03  0.10651456230E+03  0.00000000000E+00 0.  1.
<scales pt_clust_5="13000.00000" pt_clust_6="13000.00000" pt_clust_7="13000.00000" pt_clust_8="13000.00000" pt_clust_9="26.78663"></scales>
<clustering>
<clus scale="   26.787">  1  9  2 -1</clus>
<clus scale="   88.634">  5  6 -1 -1</clus>
<clus scale="   92.514">  7  8 -1 -1</clus>
<clus scale="  102.475">  1  5  2 -1</clus>
<clus scale="   26.787">  1  5  2 -1</clus>
</clustering>
</event>
<event>
 9    1  0.1426358E-005  0.1006582E+03  0.7546771E-02  0.1279391E+00
         21   -1    0    0  501  502  0.00000000000E+00  0.00000000000E+00  0.13586997691E+03  0.13586997691E+03  0.00000000000E+00 0. -1.
          2   -1    0    0  502    0 -0.00000000000E+00 -0.00000000000E+00 -0.38543029846E+03  0.38543029846E+03  0.00000000000E+00 0. -1.
         23    2    1    2    0    0  0.22334432165E+01  0.40647358065E+02 -0.25250969670E+03  0.27114169108E+03  0.89997076230E+02 0.  0.
         23    2    1    2    0    0 -0.30677329710E+02 -0.44469416389E+02 -0.98594341437E+02  0.14463707374E+03  0.90996765794E+02 0.  0.
        -11    1    4    4    0    0 -0.38485991111E+01 -0.69198982755E+02 -0.62885553897E+02  0.93583672820E+02  0.00000000000E+00 0.  1.
         11    1    4    4    0    0 -0.26828730599E+02  0.24729566365E+02 -0.35708787540E+02  0.51053400922E+02  0.00000000000E+00 0. -1.
        -13    1    3    3    0    0  0.12493102278E+02 -0.18718153221E+02 -0.17429849169E+02  0.28464829291E+02  0.00000000000E+00 0.  1.
         13    1    3    3    0    0 -0.10259659062E+02  0.59365511285E+02 -0.23507984753E+03  0.24267686179E+03  0.00000000000E+00 0. -1.
          2    1    1    2  501    0  0.28443886494E+02  0.38220583250E+01  0.10154371659E+03  0.10552151055E+03  0.00000000000E+00 0. -1.
<scales pt_clust_5="13000.00000" pt_clust_6="13000.00000" pt_clust_7="13000.00000" pt_clust_8="13000.00000" pt_clust_9="28.69953"></scales>
<clustering>
<clus scale="   28.700">  1  9  2 -1</clus>
<clus scale="   89.997">  7  8 -1 -1</clus>
<clus scale="   90.997">  5  6 -1 -1</clus>
<clus scale="   99.755">  2  7  1 -1</clus>
<clus scale="   28.700">  1  5  2 -1</clus>
</clustering>
</event>
<event>
 9    1  0.1426358E-005  0.9756437E+02  0.7546771E-02  0.1285608E+00
          1   -1    0    0  502    0 -0.00000000000E+00  0.00000000000E+00  0.20345620947E+03  0.20345620947E+03  0.00000000000E+00 0. -1.
         21   -1    0    0  501  502  0.00000000000E+00 -0.00000000000E+00 -0.87732701780E+02  0.87732701780E+02  0.00000000000E+00 0. -1.
         23    2    1    2    0    0  0.67403102620E+01 -0.23095714922E+02  0.10946117633E+03  0.14599877795E+03  0.93568425276E+02 0.  0.
         23    2    1    2    0    0  0.19925378451E+02  0.39919602385E+02 -0.18019323290E+02  0.10539439363E+03  0.93769327795E+02 0.  0.
        -11    1    3    3    0    0  0.49594880976E+02 -0.19188066558E+02  0.67072199818E+02  0.85595058886E+02  0.00000000000E+00 0. -1.
         11    1    3    3    0    0 -0.42854570714E+02 -0.39076483640E+01  0.42388976512E+02  0.60403719062E+02  0.00000000000E+00 0.  1.
        -13    1    4    4    0    0  0.54562812602E+02  0.41553108351E+02 -0.17204212110E+02  0.70708883791E+02  0.00000000000E+00 0. -1.
         13    1    4    4    0    0 -0.34637434151E+02 -0.16335059665E+01 -0.81511117953E+00  0.34685509835E+02  0.00000000000E+00 0.  1.
          1    1    1    2  501    0 -0.26665688713E+02 -0.16823887462E+02  0.24281654653E+02  0.39795739679E+02  0.00000000000E+00 0. -1.
<scales pt_clust_5="13000.00000" pt_clust_6="13000.00000" pt_clust_7="13000.00000" pt_clust_8="13000.00000" pt_clust_9="31.52940"></scales>
<clustering>
<clus scale="   31.529">  2  9  1 -1</clus>
<clus scale="   93.568">  5  6 -1 -1</clus>
<clus scale="   93.769">  7  8 -1 -1</clus>
<clus scale="   97.371">  1  5  2 -1</clus>
<clus scale="   31.529">  2  5  1 -1</clus>
</clustering>
</event>
<event>
 9    1  0.1426358E-005  0.1064840E+03  0.7546771E-02  0.1269484E+00
          3   -1    0    0  502    0 -0.00000000000E+00  0.00000000000E+00  0.11715354636E+03  0.11715354636E+03  0.00000000000E+00 0. -1.
         21   -1    0    0  501  502  0.00000000000E+00 -0.00000000000E+00 -0.21326080279E+03  0.21326080279E+03  0.00000000000E+00 0.  1.
         23    2    1    2    0    0 -0.48544145746E+02 -0.26954967815E+01  0.63823302154E+02  0.12511754779E+03  0.96006182505E+02 0.  0.
         23    2    1    2    0    0  0.33287437213E+02  0.23640975794E+02 -0.10617393814E+03  0.14562055408E+03  0.90914748074E+02 0.  0.
        -13    1    3    3    0    0 -0.73787363125E+02  0.11161291514E+01  0.66641703431E+02  0.99433079693E+02  0.00000000000E+00 0.  1.
         13    1    3    3    0    0  0.25243217379E+02 -0.38116259329E+01 -0.28184012766E+01  0.25684468101E+02  0.00000000000E+00 0. -1.
        -13    1    4    4    0    0  0.51254474724E+02 -0.15408899474E+02 -0.40444968942E+02  0.67083909210E+02  0.00000000000E+00 0. -1.
         13    1    4    4    0    0 -0.17967037511E+02  0.39049875268E+02 -0.65728969198E+02  0.78536644869E+02  0.00000000000E+00 0.  1.
          3    1    1    2  501    0  0.15256708532E+02 -0.20945479013E+02 -0.53756620446E+02  0.59676247269E+02  0.00000000000E+00 0. -1.
<scales pt_clust_5="13000.00000" pt_clust_6="13000.00000" pt_clust_7="13000.00000" pt_clust_8="13000.00000" pt_clust_9="25.91294"></scales>
<clustering>
<clus scale="   25.913">  2  9  1 -1</clus>
<clus scale="   90.915">  7  8 -1 -1</clus>
<clus scale="   96.006">  5  6 -1 -1</clus>
<clus scale="  101.917">  2  7  1 -1</clus>
<clus scale="   25.913">  2  5  1 -1</clus>
</clustering>
</event>
<event>
 9    1  0.1426358E-005  0.2164469E+03  0.7546771E-02  0.1166223E+00
         21   -1    0    0  501  502  0.00000000000E+00  0.00000000000E+00  0.21576632542E+03  0.21576632542E+03  0.00000000000E+00 0. -1.
          1   -1    0    0  502    0 -0.00000000000E+00 -0.00000000000E+00 -0.51954109510E+03  0.51954109510E+03  0.00000000000E+00 0. -1.
         23    2    1    2    0    0  0.52282227813E+02  0.12321091587E+02 -0.23128941874E+03  0.25498922688E+03  0.92948749122E+02 0.  0.
         23    2    1    2    0    0  0.15245864975E+03 -0.48530475028E+02 -0.16995747918E+03  0.25068639668E+03  0.91429086523E+02 0.  0.
        -11    1    3    3    0    0  0.26339272229E+02 -0.39865305932E+02 -0.12410780282E+03  0.13298776861E+03  0.00000000000E+00 0.  1.
         11    1    3    3    0    0  0.25942955584E+02  0.52186397519E+02 -0.10718161591E+03  0.12200145827E+03  0.00000000000E+00 0. -1.
        -13    1    4    4    0    0  0.66016587692E+02  0.74983317138E+01 -0.11774644512E+03  0.13519852132E+03  0.00000000000E+00 0.  1.
         13    1    4    4    0    0  0.86442062055E+02 -0.56028806742E+02 -0.52211034056E+02  0.11548787536E+03  0.00000000000E+00 0. -1.
          1    1    1    2  501    0 -0.20474087756E+03  0.36209383441E+02  0.97472128234E+02  0.22963179696E+03  0.00000000000E+00 0. -1.
<scales pt_clust_5="13000.00000" pt_clust_6="13000.00000" pt_clust_7="13000.00000" pt_clust_8="13000.00000" pt_clust_9="196.18863"></scales>
<clustering>
<clus scale="   91.429">  7  8 -1 -1</clus>
<clus scale="   92.949">  5  6 -1 -1</clus>
<clus scale="  107.353">  2  5  1 -1</clus>
<clus scale="  196.189">  1  9  2 -1</clus>
<clus scale="  196.189">  1  5  2 -1</clus>
</clustering>
</event>
<event>
 9    1  0.1426358E-005  0.1162234E+03  0.7546771E-02  0.1249879E+00
         -2   -1    0    0    0  501 -0.00000000000E+00  0.00000000000E+00  0.98405933718E+02  0.98405933718E+02  0.00000000000E+00 0.  1.
         21   -1    0    0  501  502  0.00000000000E+00 -0.00000000000E+00 -0.31880432023E+03  0.31880432023E+03  0.00000000000E+00 0. -1.
         23    2    1    2    0    0 -0.21582863613E+00  0.74528391477E+02  0.11479023427E+02  0.11927113257E+03  0.92408372826E+02 0.  0.
         23    2    1    2    0    0  0.54126475960E+02 -0.50158379984E+02 -0.19694465713E+03  0.22923284383E+03  0.91186403791E+02 0.  0.
        -11    1    4    4    0    0  0.59792112133E+02 -0.73688362506E+01 -0.16465043786E+03  0.17532587689E+03  0.00000000000E+00 0. -1.
         11    1    4    4    0    0 -0.56656361735E+01 -0.42789543733E+02 -0.32294219270E+02  0.53906966938E+02  0.00000000000E+00 0.  1.
        -11    1    3    3    0    0 -0.36875608486E+02  0.48820156361E+01 -0.83135632854E+01  0.38115087727E+02  0.00000000000E+00 0.  1.
         11    1    3    3    0    0  0.36659779850E+02  0.69646375841E+02  0.19792586713E+02  0.81156044847E+02  0.00000000000E+00 0. -1.
         -2    1    1    2    0  502 -0.53910647324E+02 -0.24370011494E+02 -0.34932752812E+02  0.68706277545E+02  0.00000000000E+00 0.  1.
<scales pt_clust_5="13000.00000" pt_clust_6="13000.00000" pt_clust_7="13000.00000" pt_clust_8="13000.00000" pt_clust_9="59.16299"></scales>
<clustering>
<clus scale="   59.163">  2  9  1 -1</clus>
<clus scale="   91.186">  5  6 -1 -1</clus>
<clus scale="   92.408">  7  8 -1 -1</clus>
<clus scale="  115.254">  2  5  1 -1</clus>
<clus scale="   59.163">  2  5  1 -1</clus>
</clustering>
</event>
<event>
 9    1  0.1457733E-005  0.1130657E+03  0.7546771E-02  0.1255317E+00
          1   -1    0    0  502    0 -0.00000000000E+00  0.00000000000E+00  0.29045747474E+03  0.29045747474E+03  0.00000000000E+00 0. -1.
         21   -1    0    0  501  502  0.00000000000E+00 -0.00000000000E+00 -0.18883147816E+03  0.18883147816E+03  0.00000000000E+00 0.  1.
         23    2    1    2    0    0 -0.67124000749E+02 -0.44632738622E+01  0.25190359341E+03  0.27619491212E+03  0.91118915807E+02 0.  0.
         23    2    1    2    0    0  0.63889149024E+02 -0.18929917944E+02 -0.13208049139E+03  0.17328061536E+03  0.90226106526E+02 0.  0.
        -11    1    4    4    0    0  0.24070433639E+02 -0.72418628160E+01 -0.12926530035E+03  0.13168655295E+03  0.00000000000E+00 0.  1.
         11    1    4    4    0    0  0.39818715385E+02 -0.11688055128E+02 -0.28151910366E+01  0.41594062414E+02  0.00000000000E+00 0. -1.
        -13    1    3    3    0    0 -0.22837006835E+02  0.35714782270E+02  0.16733670439E+03  0.17262284666E+03  0.00000000000E+00 0.  1.
         13    1    3    3    0    0 -0.44286993915E+02 -0.40178056132E+02  0.84566889016E+02  0.10357206545E+03  0.00000000000E+00 0. -1.
          1    1    1    2  501    0  0.32348517256E+01  0.23393191806E+02 -0.18197105445E+02  0.29813425417E+02  0.00000000000E+00 0. -1.
<scales pt_clust_5="13000.00000" pt_clust_6="13000.00000" pt_clust_7="13000.00000" pt_clust_8="13000.00000" pt_clust_9="23.61579"></scales>
<clustering>
<clus scale="   23.616">  2  9  1 -1</clus>
<clus scale="   90.226">  5  6 -1 -1</clus>
<clus scale="   91.119">  7  8 -1 -1</clus>
<clus scale="  112.347">  2  5  1 -1</clus>
<clus scale="   23.616">  2  5  1 -1</clus>
</clustering>
</event>
<event>
 9    1  0.1426358E-005  0.1437117E+03  0.7546771E-02  0.1208650E+00
          3   -1    0    0  502    0 -0.00000000000E+00  0.00000000000E+00  0.21026409165E+03  0.21026409165E+03  0.00000000000E+00 0. -1.
         21   -1    0    0  501  502  0.00000000000E+00 -0.00000000000E+00 -0.46669136900E+03  0.46669136900E+03  0.00000000000E+00 0. -1.
         23    2    1    2    0    0 -0.12366273507E+03 -0.67501721330E+02  0.13223953377E+03  0.21289124802E+03  0.89366854959E+02 0.  0.
         23    2    1    2    0    0  0.52962138921E+02 -0.10372434329E+02 -0.65145743189E+02  0.12387479508E+03  0.90489896941E+02 0.  0.
        -11    1    4    4    0    0  0.13349962591E+02 -0.44560468794E+02 -0.52303481084E+02  0.69996507155E+02  0.00000000000E+00 0.  1.
         11    1    4    4    0    0  0.39612176330E+02  0.34188034465E+02 -0.12842262105E+02  0.53878287929E+02  0.00000000000E+00 0. -1.
        -11    1    3    3    0    0 -0.17584192794E+02 -0.24042828561E+02  0.82899116930E+02  0.88088166227E+02  0.00000000000E+00 0.  1.
         11    1    3    3    0    0 -0.10607854227E+03 -0.43458892769E+02  0.49340416843E+02  0.12480308179E+03  0.00000000000E+00 0. -1.
          3    1    1    2  501    0  0.70700596144E+02  0.77874155659E+02 -0.32352106793E+03  0.34018941755E+03  0.00000000000E+00 0. -1.
<scales pt_clust_5="13000.00000" pt_clust_6="13000.00000" pt_clust_7="13000.00000" pt_clust_8="13000.00000" pt_clust_9="105.18060"></scales>
<clustering>
<clus scale="   89.367">  7  8 -1 -1</clus>
<clus scale="   90.490">  5  6 -1 -1</clus>
<clus scale="  105.181">  2  9  1 -1</clus>
<clus scale="  143.007">  1  7  2 -1</clus>
<clus scale="  105.181">  2  5  1 -1</clus>
</clustering>
</event>
<event>
 9    1  0.1627536E-005  0.9870583E+02  0.7546771E-02  0.1289090E+00
          1   -1    0    0  502    0 -0.00000000000E+00  0.00000000000E+00  0.68723062403E+02  0.68723062403E+02  0.00000000000E+00 0. -1.
         21   -1    0    0  501  502  0.00000000000E+00 -0.00000000000E+00 -0.45131539200E+03  0.45131539200E+03  0.00000000000E+00 0.  1.
         23    2    1    2    0    0  0.32657349182E+02 -0.10725253127E+02  0.19491765993E+02  0.99694639279E+02  0.91529004415E+02 0.  0.
         23    2    1    2    0    0 -0.55944690659E+02  0.15268377640E+02 -0.31908327714E+03  0.33401840683E+03  0.79945147341E+02 0.  0.
        -11    1    4    4    0    0 -0.84655840090E+01  0.37217372247E+02 -0.20489798644E+03  0.20842260856E+03  0.00000000000E+00 0.  1.
         11    1    4    4    0    0 -0.47479106650E+02 -0.21948994608E+02 -0.11418529070E+03  0.12559579828E+03  0.00000000000E+00 0. -1.
        -11    1    3    3    0    0 -0.27843068252E+02  0.14950992534E+02  0.10806380375E+02  0.33399797668E+02  0.00000000000E+00 0.  1.
         11    1    3    3    0    0  0.60500417434E+02 -0.25676245661E+02  0.86853856180E+01  0.66294841611E+02  0.00000000000E+00 0. -1.
          1    1    1    2  501    0  0.23287341478E+02 -0.45431245130E+01 -0.83000818452E+02  0.86325408294E+02  0.00000000000E+00 0. -1.
<scales pt_clust_5="13000.00000" pt_clust_6="13000.00000" pt_clust_7="13000.00000" pt_clust_8="13000.00000" pt_clust_9="23.72636"></scales>
<clustering>
<clus scale="   23.726">  2  9  1 -1</clus>
<clus scale="   79.945">  5  6 -1 -1</clus>
<clus scale="   88.071">  2  5  1 -1</clus>
<clus scale="   91.529">  7  8 -1 -1</clus>
<clus scale="   23.726">  2  5  1 -1</clus>
</clustering>
</event>
<event>
 9    1  0.1474852E-005  0.9286021E+02  0.7546771E-02  0.1296766E+00
          2   -1    0    0  502    0 -0.00000000000E+00  0.00000000000E+00  0.39793882602E+03  0.39793882602E+03  0.00000000000E+00 0. -1.
         21   -1    0    0  501  502  0.00000000000E+00 -0.00000000000E+00 -0.44610142426E+02  0.44610142426E+02  0.00000000000E+00 0.  1.
         23    2    1    2    0    0  0.10924261522E+01 -0.77451980372E+01  0.27061301486E+03  0.28603993824E+03  0.92337754828E+02 0.  0.
         23    2    1    2    0    0 -0.26388124087E+02  0.88695223982E+01  0.33235115892E+02  0.10092610524E+03  0.91140025615E+02 0.  0.
        -13    1    3    3    0    0  0.46481079559E+02  0.26544917033E+00  0.14240249382E+03  0.14979663370E+03  0.00000000000E+00 0. -1.
         13    1    3    3    0    0 -0.45388653407E+02 -0.80106472076E+01  0.12821052104E+03  0.13624330454E+03  0.00000000000E+00 0.  1.
        -13    1    4    4    0    0 -0.50613459130E+02 -0.16183504570E+02  0.38583357125E+02  0.65668131634E+02  0.00000000000E+00 0.  1.
         13    1    4    4    0    0  0.24225335042E+02  0.25053026969E+02 -0.53482412323E+01  0.35257973602E+02  0.00000000000E+00 0. -1.
          2    1    1    2  501    0  0.25295697935E+02 -0.11243243609E+01  0.49480552842E+02  0.55582924976E+02  0.00000000000E+00 0. -1.
<scales pt_clust_5="13000.00000" pt_clust_6="13000.00000" pt_clust_7="13000.00000" pt_clust_8="13000.00000" pt_clust_9="25.32068"></scales>
<clustering>
<clus scale="   25.321">  2  9  1 -1</clus>
<clus scale="   91.140">  7  8 -1 -1</clus>
<clus scale="   91.669">  2  7  1 -1</clus>
<clus scale="   92.338">  5  6 -1 -1</clus>
<clus scale="   25.321">  2  5  1 -1</clus>
</clustering>
</event>
<event>
 9    1  0.1426358E-005  0.1345899E+03  0.7546771E-02  0.1221628E+00
         21   -1    0    0  501  502  0.00000000000E+00  0.00000000000E+00  0.61916615347E+03  0.61916615347E+03  0.00000000000E+00 0. -1.
         -1   -1    0    0    0  501 -0.00000000000E+00 -0.00000000000E+00 -0.91193557758E+02  0.91193557758E+02  0.00000000000E+00 0.  1.
         23    2    1    2    0    0 -0.42302528994E+02  0.70665551580E+02  0.18722295939E+02  0.12661080234E+03  0.94322037538E+02 0.  0.
         23    2    1    2    0    0  0.42134938207E+02 -0.12538565648E+03  0.14793179188E+03  0.21831029281E+03  0.90987103652E+02 0.  0.
        -11    1    3    3    0    0  0.27536503816E+02  0.25479128998E+01  0.35774350259E+01  0.27884564618E+02  0.00000000000E+00 0. -1.
         11    1    3    3    0    0 -0.69839032811E+02  0.68117638681E+02  0.15144860913E+02  0.98726237726E+02  0.00000000000E+00 0.  1.
        -13    1    4    4    0    0  0.40345215255E+02 -0.26102050194E+02  0.11226742332E+02  0.49346663126E+02  0.00000000000E+00 0. -1.
         13    1    4    4    0    0  0.17897229516E+01 -0.99283606289E+02  0.13670504954E+03  0.16896362969E+03  0.00000000000E+00 0.  1.
         -1    1    1    2    0  502  0.16759078767E+00  0.54720104902E+02  0.36131850790E+03  0.36543861607E+03  0.00000000000E+00 0.  1.
<scales pt_clust_5="13000.00000" pt_clust_6="13000.00000" pt_clust_7="13000.00000" pt_clust_8="13000.00000" pt_clust_9="54.72036"></scales>
<clustering>
<clus scale="   54.720">  1  9  2 -1</clus>
<clus scale="   90.987">  7  8 -1 -1</clus>
<clus scale="   94.322">  5  6 -1 -1</clus>
<clus scale="  132.274">  1  7  2 -1</clus>
<clus scale="   54.720">  1  5  2 -1</clus>
</clustering>
</event>
<event>
 9    1  0.1426358E-005  0.1386972E+03  0.7546771E-02  0.1215916E+00
         21   -1    0    0  501  502  0.00000000000E+00  0.00000000000E+00  0.10823820106E+03  0.10823820106E+03  0.00000000000E+00 0.  1.
         -1   -1    0    0    0  501 -0.00000000000E+00 -0.00000000000E+00 -0.45228558764E+03  0.45228558764E+03  0.00000000000E+00 0.  1.
         23    2    1    2    0    0  0.92308279536E+02 -0.49059150761E+02 -0.21340108139E+03  0.25479705788E+03  0.91945094609E+02 0.  0.
         23    2    1    2    0    0 -0.97103375826E+02  0.18384055537E+02 -0.19250610018E+03  0.23651265239E+03  0.95459923736E+02 0.  0.
        -11    1    4    4    0    0 -0.71204702399E+02  0.56782684475E+02 -0.12604022752E+03  0.15550087413E+03  0.00000000000E+00 0.  1.
         11    1    4    4    0    0 -0.25898673427E+02 -0.38398628938E+02 -0.66465872657E+02  0.81011778265E+02  0.00000000000E+00 0. -1.
        -13    1    3    3    0    0  0.43683046624E+02  0.10267164333E+02 -0.24974396674E+02  0.51355074871E+02  0.00000000000E+00 0.  1.
         13    1    3    3    0    0  0.48625232912E+02 -0.59326315093E+02 -0.18842668472E+03  0.20344198301E+03  0.00000000000E+00 0. -1.
         -1    1    1    2    0  502  0.47950962900E+01  0.30675095224E+02  0.61859794990E+02  0.69214078421E+02  0.00000000000E+00 0.  1.
<scales pt_clust_5="13000.00000" pt_clust_6="13000.00000" pt_clust_7="13000.00000" pt_clust_8="13000.00000" pt_clust_9="31.04762"></scales>
<clustering>
<clus scale="   31.048">  1  9  2 -1</clus>
<clus scale="   91.945">  7  8 -1 -1</clus>
<clus scale="   95.460">  5  6 -1 -1</clus>
<clus scale="  136.302">  2  7  1 -1</clus>
<clus scale="   31.048">  1  5  2 -1</clus>
</clustering>
</event>
<event>
 9    1  0.1426358E-005  0.9230444E+02  0.7546771E-02  0.1297694E+00
         21   -1    0    0  501  502  0.00000000000E+00  0.00000000000E+00  0.17485330576E+03  0.17485330576E+03  0.00000000000E+00 0.  1.
         -1   -1    0    0    0  501 -0.00000000000E+00 -0.00000000000E+00 -0.16070947056E+03  0.16070947056E+03  0.00000000000E+00 0.  1.
         23    2    1    2    0    0  0.26582987932E+02  0.13122418296E+01 -0.94628700925E+02  0.13345051805E+03  0.90255595414E+02 0.  0.
         23    2    1    2    0    0  0.17692120769E+02  0.44553378123E+02  0.42675699212E+02  0.11028234923E+03  0.89682588100E+02 0.  0.
        -13    1    4    4    0    0 -0.25304896595E+02  0.68596717913E+01 -0.14043765447E+02  0.29742566074E+02  0.00000000000E+00 0. -1.
         13    1    4    4    0    0  0.42997017364E+02  0.37693706331E+02  0.56719464659E+02  0.80539783153E+02  0.00000000000E+00 0.  1.
        -13    1    3    3    0    0 -0.22845979619E+01 -0.34411326325E+02 -0.80053447867E+01  0.35404015484E+02  0.00000000000E+00 0.  1.
         13    1    3    3    0    0  0.28867585894E+02  0.35723568154E+02 -0.86623356138E+02  0.98046502567E+02  0.00000000000E+00 0. -1.
         -1    1    1    2    0  502 -0.44275108701E+02 -0.45865619952E+02  0.66096836917E+02  0.91829909041E+02  0.00000000000E+00 0.  1.
<scales pt_clust_5="13000.00000" pt_clust_6="13000.00000" pt_clust_7="13000.00000" pt_clust_8="13000.00000" pt_clust_9="63.74904"></scales>
<clustering>
<clus scale="   63.749">  1  9  2 -1</clus>
<clus scale="   89.683">  5  6 -1 -1</clus>
<clus scale="   90.256">  7  8 -1 -1</clus>
<clus scale="   91.744">  1  5  2 -1</clus>
<clus scale="   63.749">  1  5  2 -1</clus>
</clustering>
</event>
<event>
 9    1  0.1426358E-005  0.1436210E+03  0.7546771E-02  0.1208747E+00
         21   -1    0    0  501  502  0.00000000000E+00  0.00000000000E+00  0.25534441232E+03  0.25534441232E+03  0.00000000000E+00 0.  1.
          3   -1    0    0  502    0 -0.00000000000E+00 -0.00000000000E+00 -0.10267649214E+03  0.10267649214E+03  0.00000000000E+00 0. -1.
         23    2    1    2    0    0  0.53967002964E+02  0.95265233842E+02  0.30132069434E+02  0.14592872424E+03  0.91647961042E+02 0.  0.
         23    2    1    2    0    0 -0.73770971920E+02 -0.86664848017E+02  0.12296435441E+03  0.19049710119E+03  0.90641938021E+02 0.  0.
        -11    1    4    4    0    0 -0.51021112341E+02 -0.68696735426E+02  0.26212939050E+02  0.89495885583E+02  0.00000000000E+00 0. -1.
         11    1    4    4    0    0 -0.22749859579E+02 -0.17968112591E+02  0.96751415357E+02  0.10100121561E+03  0.00000000000E+00 0.  1.
        -13    1    3    3    0    0 -0.13647104633E+02  0.55313905734E+02  0.35638052710E+02  0.67200762149E+02  0.00000000000E+00 0.  1.
         13    1    3    3    0    0  0.67614107598E+02  0.39951328108E+02 -0.55059832766E+01  0.78727962095E+02  0.00000000000E+00 0. -1.
          3    1    1    2  501    0  0.19803968956E+02 -0.86003858246E+01 -0.42850366799E+00  0.21595079026E+02  0.00000000000E+00 0. -1.
<scales pt_clust_5="13000.00000" pt_clust_6="13000.00000" pt_clust_7="13000.00000" pt_clust_8="13000.00000" pt_clust_9="21.59084"></scales>
<clustering>
<clus scale="   21.591">  1  9  2 -1</clus>
<clus scale="   90.642">  5  6 -1 -1</clus>
<clus scale="   91.648">  7  8 -1 -1</clus>
<clus scale="  142.981">  1  5  2 -1</clus>
<clus scale="   21.591">  1  5  2 -1</clus>
</clustering>
</event>
<event>
 9    1  0.1426358E-005  0.1271306E+03  0.7546771E-02  0.1242326E+00
          2   -1    0    0  502    0 -0.00000000000E+00  0.00000000000E+00  0.10107942072E+04  0.10107942072E+04  0.00000000000E+00 0. -1.
         21   -1    0    0  501  502  0.00000000000E+00 -0.00000000000E+00 -0.20417285834E+02  0.20417285834E+02  0.00000000000E+00 0.  1.
         23    2    1    2    0    0 -0.52192582873E+02 -0.10073073158E+02  0.57330607934E+03  0.58290842573E+03  0.90977138178E+02 0.  0.
         23    2    1    2    0    0  0.28615426598E+02  0.44138709283E+01  0.23442790486E+03  0.26405771087E+03  0.11803265311E+03 0.  0.
        -11    1    3    3    0    0 -0.58445398308E+02  0.28917616367E+02  0.38801930825E+03  0.39346038770E+03  0.00000000000E+00 0. -1.
         11    1    3    3    0    0  0.62528154352E+01 -0.38990689525E+02  0.18528677110E+03  0.18944803803E+03  0.00000000000E+00 0.  1.
        -13    1    4    4    0    0 -0.92444033392E+01 -0.30560691911E+02  0.95169640579E+01  0.33316474724E+02  0.00000000000E+00 0.  1.
         13    1    4    4    0    0  0.37859829937E+02  0.34974562839E+02  0.22491094080E+03  0.23074123615E+03  0.00000000000E+00 0. -1.
          2    1    1    2  501    0  0.23577156276E+02  0.56592022299E+01  0.18264293715E+03  0.18424535641E+03  0.00000000000E+00 0. -1.
<scales pt_clust_5="13000.00000" pt_clust_6="13000.00000" pt_clust_7="13000.00000" pt_clust_8="13000.00000" pt_clust_9="24.24684"></scales>
<clustering>
<clus scale="   24.247">  2  9  1 -1</clus>
<clus scale="   90.977">  5  6 -1 -1</clus>
<clus scale="  102.505">  1  5  2 -1</clus>
<clus scale="  118.033">  7  8 -1 -1</clus>
<clus scale="   24.247">  2  5  1 -1</clus>
</clustering>
</event>
<event>
 9    1  0.1426358E-005  0.1735590E+03  0.7546771E-02  0.1174191E+00
         21   -1    0    0  501  502  0.00000000000E+00  0.00000000000E+00  0.44329773558E+02  0.44329773558E+02  0.00000000000E+00 0. -1.
          2   -1    0    0  502    0 -0.00000000000E+00 -0.00000000000E+00 -0.13736152889E+04  0.13736152889E+04  0.00000000000E+00 0. -1.
         23    2    1    2    0    0  0.14451382789E+03  0.10429844171E+03 -0.96398455343E+03  0.98448391992E+03  0.90443119892E+02 0.  0.
         23    2    1    2    0    0 -0.98043794130E+02 -0.38304463878E+02 -0.29665819348E+03  0.32750596899E+03  0.90411605697E+02 0.  0.
        -11    1    4    4    0    0 -0.38146055384E+02 -0.58205311409E+02 -0.20272341139E+03  0.21433562780E+03  0.00000000000E+00 0.  1.
         11    1    4    4    0    0 -0.59897738746E+02  0.19900847530E+02 -0.93934782088E+02  0.11317034119E+03  0.00000000000E+00 0. -1.
        -13    1    3    3    0    0  0.13668862190E+02  0.59248156509E+02 -0.25845808638E+03  0.26551415077E+03  0.00000000000E+00 0.  1.
         13    1    3    3    0    0  0.13084496570E+03  0.45050285199E+02 -0.70552646705E+03  0.71896976915E+03  0.00000000000E+00 0. -1.
          2    1    1    2  501    0 -0.46470033759E+02 -0.65993977829E+02 -0.68642768481E+02  0.10595517360E+03  0.00000000000E+00 0. -1.
<scales pt_clust_5="13000.00000" pt_clust_6="13000.00000" pt_clust_7="13000.00000" pt_clust_8="13000.00000" pt_clust_9="80.71350"></scales>
<clustering>
<clus scale="   80.714">  1  9  2 -1</clus>
<clus scale="   90.412">  5  6 -1 -1</clus>
<clus scale="   90.443">  7  8 -1 -1</clus>
<clus scale="  173.543">  1  5  2 -1</clus>
<clus scale="   80.714">  1  5  2 -1</clus>
</clustering>
</event>
<event>
 9    1  0.1426358E-005  0.1253071E+03  0.7546771E-02  0.1235035E+00
         21   -1    0    0  501  502  0.00000000000E+00  0.00000000000E+00  0.45449098203E+03  0.45449098203E+03  0.00000000000E+00 0. -1.
          2   -1    0    0  502    0 -0.00000000000E+00 -0.00000000000E+00 -0.56652297003E+03  0.56652297003E+03  0.00000000000E+00 0. -1.
         23    2    1    2    0    0 -0.47363249804E+02  0.63344454651E+02 -0.41921822444E+03  0.43680420022E+03  0.93798679445E+02 0.  0.
         23    2    1    2    0    0 -0.39082117423E-01 -0.12142470034E+03 -0.91958016068E+02  0.17808608801E+03  0.92273607511E+02 0.  0.
        -11    1    4    4    0    0  0.22403811480E+02 -0.43534267829E+02 -0.83223880702E+02  0.96557638555E+02  0.00000000000E+00 0. -1.
         11    1    4    4    0    0 -0.22442893598E+02 -0.77890432511E+02 -0.87341353661E+01  0.81528449454E+02  0.00000000000E+00 0.  1.
        -13    1    3    3    0    0 -0.37306512713E+02 -0.12158142165E+02 -0.22097322961E+03  0.22442986547E+03  0.00000000000E+00 0.  1.
         13    1    3    3    0    0 -0.10056737090E+02  0.75502596816E+02 -0.19824499482E+03  0.21237433475E+03  0.00000000000E+00 0. -1.
          2    1    1    2  501    0  0.47402331921E+02  0.58080245689E+02  0.39914425250E+03  0.40612366382E+03  0.00000000000E+00 0. -1.
<scales pt_clust_5="13000.00000" pt_clust_6="13000.00000" pt_clust_7="13000.00000" pt_clust_8="13000.00000" pt_clust_9="74.96863"></scales>
<clustering>
<clus scale="   74.969">  1  9  2 -1</clus>
<clus scale="   92.274">  5  6 -1 -1</clus>
<clus scale="   93.799">  7  8 -1 -1</clus>
<clus scale="  124.170">  1  5  2 -1</clus>
<clus scale="   74.969">  1  5  2 -1</clus>
</clustering>
</event>
<event>
 9    1  0.1426358E-005  0.9759500E+02  0.7546771E-02  0.1285847E+00
         21   -1    0    0  501  502  0.00000000000E+00  0.00000000000E+00  0.80659444556E+02  0.80659444556E+02  0.00000000000E+00 0.  1.
         -3   -1    0    0    0  501 -0.00000000000E+00 -0.00000000000E+00 -0.41601764964E+03  0.41601764964E+03  0.00000000000E+00 0.  1.
         23    2    1    2    0    0  0.36757541389E+02  0.88579170968E+00 -0.34158959822E+03  0.35550673442E+03  0.91376600550E+02 0.  0.
         23    2    1    2    0    0 -0.26825189071E+01  0.23733403758E+02 -0.10765104142E+02  0.95826199592E+02  0.92175390964E+02 0.  0.
        -11    1    4    4    0    0 -0.26857633572E+02  0.43737573697E+02 -0.29580058969E+02  0.59239241408E+02  0.00000000000E+00 0.  1.
         11    1    4    4    0    0  0.24175114665E+02 -0.20004169939E+02  0.18814954827E+02  0.36586958184E+02  0.00000000000E+00 0. -1.
        -11    1    3    3    0    0 -0.45796810341E+01 -0.37337972446E+02 -0.87315787178E+02  0.95074414830E+02  0.00000000000E+00 0. -1.
         11    1    3    3    0    0  0.41337222423E+02  0.38223764155E+02 -0.25427381105E+03  0.26043231959E+03  0.00000000000E+00 0.  1.
         -3    1    1    2    0  502 -0.34075022482E+02 -0.24619195468E+02  0.16996497284E+02  0.45344160181E+02  0.00000000000E+00 0.  1.
<scales pt_clust_5="13000.00000" pt_clust_6="13000.00000" pt_clust_7="13000.00000" pt_clust_8="13000.00000" pt_clust_9="42.03822"></scales>
<clustering>
<clus scale="   42.038">  1  9  2 -1</clus>
<clus scale="   91.377">  7  8 -1 -1</clus>
<clus scale="   92.175">  5  6 -1 -1</clus>
<clus scale="   96.841">  2  7  1 -1</clus>
<clus scale="   42.038">  1  5  2 -1</clus>
</clustering>
</event>
<event>
 9    1  0.1426358E-005  0.1429700E+03  0.7546771E-02  0.1216315E+00
         -1   -1    0    0    0  501 -0.00000000000E+00  0.00000000000E+00  0.53047327650E+03  0.53047327650E+03  0.00000000000E+00 0.  1.
         21   -1    0    0  501  502  0.00000000000E+00 -0.00000000000E+00 -0.80587933790E+02  0.80587933790E+02  0.00000000000E+00 0. -1.
         23    2    1    2    0    0  0.25187224763E+02  0.76174462600E+02  0.32908809581E+03  0.35776712215E+03  0.11515812538E+03 0.  0.
         23    2    1    2    0    0 -0.11440699670E+02 -0.92131454141E+02  0.16192190258E+03  0.20708986933E+03  0.89712970049E+02 0.  0.
        -11    1    4    4    0    0 -0.41259604130E+02 -0.65135970109E+02  0.14338317519E+03  0.16279982943E+03  0.00000000000E+00 0.  1.
         11    1    4    4    0    0  0.29818904460E+02 -0.26995484032E+02  0.18538727385E+02  0.44290039901E+02  0.00000000000E+00 0. -1.
        -11    1    3    3    0    0  0.43421391350E+02  0.51347713591E+01  0.23203324306E+03  0.23611693922E+03  0.00000000000E+00 0.  1.
         11    1    3    3    0    0 -0.18234166587E+02  0.71039691241E+02  0.97054852752E+02  0.12165018292E+03  0.00000000000E+00 0. -1.
         -1    1    1    2    0  502 -0.13746525093E+02  0.15956991541E+02 -0.41124655679E+02  0.46204218810E+02  0.00000000000E+00 0.  1.
<scales pt_clust_5="13000.00000" pt_clust_6="13000.00000" pt_clust_7="13000.00000" pt_clust_8="13000.00000" pt_clust_9="21.06164"></scales>
<clustering>
<clus scale="   21.062">  2  9  1 -1</clus>
<clus scale="   89.713">  5  6 -1 -1</clus>
<clus scale="  115.158">  7  8 -1 -1</clus>
<clus scale="  123.400">  2  5  1 -1</clus>
<clus scale="   21.062">  2  5  1 -1</clus>
</clustering>
</event>
<event>
 9    1  0.1426358E-005  0.1047622E+03  0.7546771E-02  0.1271467E+00
          2   -1    0    0  502    0 -0.00000000000E+00  0.00000000000E+00  0.11027168094E+03  0.11027168094E+03  0.00000000000E+00 0. -1.
         21   -1    0    0  501  502  0.00000000000E+00 -0.00000000000E+00 -0.15848154476E+03  0.15848154476E+03  0.00000000000E+00 0.  1.
         23    2    1    2    0    0  0.26228005070E+02 -0.27395630105E+02  0.19913294129E+00  0.97216622499E+02  0.89513145612E+02 0.  0.
         23    2    1    2    0    0 -0.71311860909E+02  0.22620022067E+02 -0.26350799456E+02  0.12111910071E+03  0.91533737056E+02 0.  0.
        -11    1    4    4    0    0 -0.20642230206E+02 -0.35514174602E+02 -0.10313571742E+02  0.42352426467E+02  0.00000000000E+00 0. -1.
         11    1    4    4    0    0 -0.50669630703E+02  0.58134196670E+02 -0.16037227714E+02  0.78766674240E+02  0.00000000000E+00 0.  1.
        -13    1    3    3    0    0  0.60522050840E+01  0.31504945678E+02 -0.11084833155E+02  0.33942072928E+02  0.00000000000E+00 0.  1.
         13    1    3    3    0    0  0.20175799986E+02 -0.58900575783E+02  0.11283966096E+02  0.63274549571E+02  0.00000000000E+00 0. -1.
          2    1    1    2  501    0  0.45083855839E+02  0.47756080372E+01 -0.22058197305E+02  0.50417502494E+02  0.00000000000E+00 0. -1.
<scales pt_clust_5="13000.00000" pt_clust_6="13000.00000" pt_clust_7="13000.00000" pt_clust_8="13000.00000" pt_clust_9="45.33608"></scales>
<clustering>
<clus scale="   45.336">  2  9  1 -1</clus>
<clus scale="   89.513">  7  8 -1 -1</clus>
<clus scale="   91.534">  5  6 -1 -1</clus>
<clus scale="  103.001">  1  7  2 -1</clus>
<clus scale="   45.336">  2  5  1 -1</clus>
</clustering>
</event>
<event>
 9    1  0.1426358E-005  0.1885510E+03  0.7546771E-02  0.1160187E+00
          1   -1    0    0  502    0 -0.00000000000E+00  0.00000000000E+00  0.10882923129E+04  0.10882923129E+04  0.00000000000E+00 0. -1.
         21   -1    0    0  501  502  0.00000000000E+00 -0.00000000000E+00 -0.74996775440E+02  0.74996775440E+02  0.00000000000E+00 0. -1.
         23    2    1    2    0    0 -0.35628748069E+02  0.17987042530E+03  0.80634121097E+03  0.83204193362E+03  0.92113262903E+02 0.  0.
         23    2    1    2    0    0  0.54006469725E+02 -0.11068343587E+03  0.20758927911E+03  0.25965816585E+03  0.95715894935E+02 0.  0.
        -11    1    3    3    0    0 -0.14614547352E+02  0.61987896637E+02  0.12532424915E+03  0.14057827623E+03  0.00000000000E+00 0.  1.
         11    1    3    3    0    0 -0.21014200717E+02  0.11788252866E+03  0.68101696182E+03  0.69146365739E+03  0.00000000000E+00 0. -1.
        -13    1    4    4    0    0  0.18715923141E+02 -0.11222064813E+03  0.18665994799E+03  0.21859939577E+03  0.00000000000E+00 0.  1.
         13    1    4    4    0    0  0.35290546584E+02  0.15372122601E+01  0.20929331122E+02  0.41058770085E+02  0.00000000000E+00 0. -1.
          1    1    1    2  501    0 -0.18377721656E+02 -0.69186989429E+02 -0.63495264698E+00  0.71588988849E+02  0.00000000000E+00 0. -1.
<scales pt_clust_5="13000.00000" pt_clust_6="13000.00000" pt_clust_7="13000.00000" pt_clust_8="13000.00000" pt_clust_9="71.58617"></scales>
<clustering>
<clus scale="   71.586">  2  9  1 -1</clus>
<clus scale="   92.113">  5  6 -1 -1</clus>
<clus scale="   95.716">  7  8 -1 -1</clus>
<clus scale="  186.748">  1  5  2 -1</clus>
<clus scale="   71.586">  2  5  1 -1</clus>
</clustering>
</event>
<event>
 9    1  0.1426358E-005  0.1425631E+03  0.7546771E-02  0.1210405E+00
         -4   -1    0    0    0  501 -0.00000000000E+00  0.00000000000E+00  0.34078247001E+03  0.34078247001E+03  0.00000000000E+00 0.  1.
         21   -1    0    0  501  502  0.00000000000E+00 -0.00000000000E+00 -0.22024226179E+03  0.22024226179E+03  0.00000000000E+00 0.  1.
         23    2    1    2    0    0 -0.28460683936E+02 -0.98273238107E+02  0.23668475692E+03  0.27351213118E+03  0.91222650074E+02 0.  0.
         23    2    1    2    0    0  0.17642937743E+02  0.14640504986E+03 -0.12409498475E+02  0.17264460864E+03  0.88918239766E+02 0.  0.
        -11    1    3    3    0    0  0.20038959455E+02  0.61125250149E+01  0.25555009740E+02  0.33045141563E+02  0.00000000000E+00 0. -1.
         11    1    3    3    0    0 -0.48499643391E+02 -0.10438576312E+03  0.21112974718E+03  0.24046698962E+03  0.00000000000E+00 0.  1.
        -13    1    4    4    0    0  0.87030232310E+01  0.11556976927E+03  0.29748208578E+02  0.11965395980E+03  0.00000000000E+00 0.  1.
         13    1    4    4    0    0  0.89399145116E+01  0.30835280599E+02 -0.42157707054E+02  0.52990648846E+02  0.00000000000E+00 0. -1.
         -4    1    1    2    0  502  0.10817746193E+02 -0.48131811757E+02 -0.10373505022E+03  0.11486799197E+03  0.00000000000E+00 0.  1.
<scales pt_clust_5="13000.00000" pt_clust_6="13000.00000" pt_clust_7="13000.00000" pt_clust_8="13000.00000" pt_clust_9="49.33249"></scales>
<clustering>
<clus scale="   49.332">  2  9  1 -1</clus>
<clus scale="   88.918">  7  8 -1 -1</clus>
<clus scale="   91.223">  5  6 -1 -1</clus>
<clus scale="  141.100">  2  7  1 -1</clus>
<clus scale="   49.332">  2  5  1 -1</clus>
</clustering>
</event>
<event>
 9    1  0.1426358E-005  0.1163860E+03  0.7546771E-02  0.1250195E+00
         21   -1    0    0  501  502  0.00000000000E+00  0.00000000000E+00  0.13214681044E+03  0.13214681044E+03  0.00000000000E+00 0.  1.
         -3   -1    0    0    0  501 -0.00000000000E+00 -0.00000000000E+00 -0.14635876157E+03  0.14635876157E+03  0.00000000000E+00 0.  1.
         23    2    1    2    0    0 -0.56166588410E+02 -0.14691649664E+02 -0.18325300498E+02  0.10928344812E+03  0.90755303821E+02 0.  0.
         23    2    1    2    0    0  0.86945190299E+02  0.39390942539E+02  0.50084806588E+01  0.12974835205E+03  0.87740740310E+02 0.  0.
        -13    1    4    4    0    0  0.10691761558E+00  0.42116316921E+02 -0.44644622930E+01  0.42352414405E+02  0.00000000000E+00 0. -1.
         13    1    4    4    0    0  0.86838272684E+02 -0.27253743819E+01  0.94729429518E+01  0.87395937642E+02  0.00000000000E+00 0.  1.
        -13    1    3    3    0    0 -0.42284458282E+02  0.34984696424E+02 -0.17819830898E+02  0.57701393131E+02  0.00000000000E+00 0.  1.
         13    1    3    3    0    0 -0.13882130128E+02 -0.49676346088E+02 -0.50546959939E+00  0.51582054991E+02  0.00000000000E+00 0. -1.
         -3    1    1    2    0  502 -0.30778601890E+02 -0.24699292875E+02 -0.89513128939E+00  0.39473771835E+02  0.00000000000E+00 0.  1.
<scales pt_clust_5="13000.00000" pt_clust_6="13000.00000" pt_clust_7="13000.00000" pt_clust_8="13000.00000" pt_clust_9="39.46362"></scales>
<clustering>
<clus scale="   39.464">  1  9  2 -1</clus>
<clus scale="   87.741">  5  6 -1 -1</clus>
<clus scale="   90.755">  7  8 -1 -1</clus>
<clus scale="  114.051">  1  5  2 -1</clus>
<clus scale="   39.464">  1  5  2 -1</clus>
</clustering>
</event>
<event>
 9    1  0.1426358E-005  0.2355184E+03  0.7546771E-02  0.1137505E+00
         21   -1    0    0  501  502  0.00000000000E+00  0.00000000000E+00  0.32679571661E+03  0.32679571661E+03  0.00000000000E+00 0. -1.
          1   -1    0    0  502    0 -0.00000000000E+00 -0.00000000000E+00 -0.49550569966E+03  0.49550569966E+03  0.00000000000E+00 0. -1.
         23    2    1    2    0    0 -0.41155918894E+02  0.13050290909E+03 -0.24019339418E+03  0.29095610616E+03  0.90762162632E+02 0.  0.
         23    2    1    2    0    0 -0.15246407987E+03 -0.21438745878E+03 -0.57480620054E+02  0.28404580962E+03  0.90392046930E+02 0.  0.
        -11    1    4    4    0    0 -0.10372431675E+03 -0.12990881161E+03  0.82347988614E+01  0.16644171692E+03  0.00000000000E+00 0. -1.
         11    1    4    4    0    0 -0.48739763125E+02 -0.84478647170E+02 -0.65715418915E+02  0.11760409270E+03  0.00000000000E+00 0.  1.
        -11    1    3    3    0    0 -0.49532874589E+02  0.46454199439E+02 -0.16280102680E+03  0.17639635097E+03  0.00000000000E+00 0. -1.
         11    1    3    3    0    0  0.83769556951E+01  0.84048709646E+02 -0.77392367386E+02  0.11455975519E+03  0.00000000000E+00 0.  1.
          1    1    1    2  501    0  0.19361999876E+03  0.83884549698E+02  0.12896403119E+03  0.24729950049E+03  0.00000000000E+00 0. -1.
<scales pt_clust_5="13000.00000" pt_clust_6="13000.00000" pt_clust_7="13000.00000" pt_clust_8="13000.00000" pt_clust_9="217.48144"></scales>
<clustering>
<clus scale="   90.392">  5  6 -1 -1</clus>
<clus scale="   90.762">  7  8 -1 -1</clus>
<clus scale="  164.203">  2  7  1 -1</clus>
<clus scale="  217.481">  1  9  2 -1</clus>
<clus scale="  217.481">  1  5  2 -1</clus>
</clustering>
</event>
<event>
 9    1  0.1426358E-005  0.1282336E+03  0.7546771E-02  0.1230452E+00
          1   -1    0    0  502    0 -0.00000000000E+00  0.00000000000E+00  0.41762329696E+03  0.41762329696E+03  0.00000000000E+00 0. -1.
         21   -1    0    0  501  502  0.00000000000E+00 -0.00000000000E+00 -0.88665066734E+02  0.88665066734E+02  0.00000000000E+00 0. -1.
         23    2    1    2    0    0  0.47321401810E+02 -0.80410111314E+02  0.19910050571E+03  0.23752289249E+03  0.89838811275E+02 0.  0.
         23    2    1    2    0    0 -0.63586409598E+02  0.65065349799E+02  0.17628953670E+03  0.21722980040E+03  0.88510192634E+02 0.  0.
        -11    1    4    4    0    0 -0.10761980772E+02 -0.21428439280E+02  0.21463547631E+02  0.32182015428E+02  0.00000000000E+00 0.  1.
         11    1    4    4    0    0 -0.52824428826E+02  0.86493789079E+02  0.15482598907E+03  0.18504778497E+03  0.00000000000E+00 0. -1.
        -11    1    3    3    0    0  0.14273180228E+02 -0.18246272087E+02 -0.31410364280E+01  0.23377686557E+02  0.00000000000E+00 0.  1.
         11    1    3    3    0    0  0.33048221581E+02 -0.62163839226E+02  0.20224154214E+03  0.21414520593E+03  0.00000000000E+00 0. -1.
          1    1    1    2  501    0  0.16265007788E+02  0.15344761515E+02 -0.46431812178E+02  0.51535670816E+02  0.00000000000E+00 0. -1.
<scales pt_clust_5="13000.00000" pt_clust_6="13000.00000" pt_clust_7="13000.00000" pt_clust_8="13000.00000" pt_clust_9="22.36095"></scales>
<clustering>
<clus scale="   22.361">  2  9  1 -1</clus>
<clus scale="   88.510">  5  6 -1 -1</clus>
<clus scale="   89.839">  7  8 -1 -1</clus>
<clus scale="  127.306">  2  5  1 -1</clus>
<clus scale="   22.361">  2  5  1 -1</clus>
</clustering>
</event>
<event>
 9    1  0.1426358E-005  0.1793216E+03  0.7546771E-02  0.1198106E+00
          1   -1    0    0  502    0 -0.00000000000E+00  0.00000000000E+00  0.12512397419E+03  0.12512397419E+03  0.00000000000E+00 0. -1.
         21   -1    0    0  501  502  0.00000000000E+00 -0.00000000000E+00 -0.37881425746E+03  0.37881425746E+03  0.00000000000E+00 0. -1.
         23    2    1    2    0    0  0.30402943605E+02 -0.67954474098E+01 -0.69348604482E+02  0.11555513861E+03  0.87024387557E+02 0.  0.
         23    2    1    2    0    0  0.10156585899E+03 -0.93784749644E+02 -0.42441777510E+02  0.17005370225E+03  0.89474880245E+02 0.  0.
        -11    1    4    4    0    0  0.11344433195E+03 -0.61565422295E+02 -0.41921708262E+02  0.13571052758E+03  0.00000000000E+00 0. -1.
         11    1    4    4    0    0 -0.11878472958E+02 -0.32219327349E+02 -0.52006924841E+00  0.34343174674E+02  0.00000000000E+00 0.  1.
        -13    1    3    3    0    0  0.36054590949E+02  0.34142426243E+02 -0.27593520149E+02  0.56807051961E+02  0.00000000000E+00 0. -1.
         13    1    3    3    0    0 -0.56516473439E+01 -0.40937873653E+02 -0.41755084333E+02  0.58748086646E+02  0.00000000000E+00 0.  1.
          1    1    1    2  501    0 -0.13196880259E+03  0.10058019705E+03 -0.14189990128E+03  0.21832939079E+03  0.00000000000E+00 0. -1.
<scales pt_clust_5="13000.00000" pt_clust_6="13000.00000" pt_clust_7="13000.00000" pt_clust_8="13000.00000" pt_clust_9="155.40424"></scales>
<clustering>
<clus scale="   87.024">  7  8 -1 -1</clus>
<clus scale="   89.475">  5  6 -1 -1</clus>
<clus scale="   92.433">  1  7  2 -1</clus>
<clus scale="  155.404">  2  9  1 -1</clus>
<clus scale="  155.404">  2  5  1 -1</clus>
</clustering>
</event>
<event>
 9    1  0.1426358E-005  0.1055990E+03  0.7546771E-02  0.1269299E+00
         21   -1    0    0  501  502  0.00000000000E+00  0.00000000000E+00  0.65117375256E+02  0.65117375256E+02  0.00000000000E+00 0.  1.
         -3   -1    0    0    0  501 -0.00000000000E+00 -0.00000000000E+00 -0.46135456959E+03  0.46135456959E+03  0.00000000000E+00 0.  1.
         23    2    1    2    0    0 -0.31262788015E+02  0.59064762786E+02 -0.28499869549E+03  0.30730854046E+03  0.93532210964E+02 0.  0.
         23    2    1    2    0    0  0.37760029787E+02  0.17239003608E+02 -0.96466408849E+02  0.14117177946E+03  0.94343522213E+02 0.  0.
        -11    1    4    4    0    0  0.29546898629E+02  0.49205586298E+02 -0.25298988431E+02  0.62723582146E+02  0.00000000000E+00 0.  1.
         11    1    4    4    0    0  0.82131311575E+01 -0.31966582690E+02 -0.71167420418E+02  0.78448197310E+02  0.00000000000E+00 0. -1.
        -13    1    3    3    0    0 -0.25771733547E+02  0.17662482030E+01 -0.12318179500E+02  0.28618864913E+02  0.00000000000E+00 0. -1.
         13    1    3    3    0    0 -0.54910544684E+01  0.57298514583E+02 -0.27268051599E+03  0.27868967554E+03  0.00000000000E+00 0.  1.
         -3    1    1    2    0  502 -0.64972417717E+01 -0.76303766394E+02 -0.14772089990E+02  0.77991624930E+02  0.00000000000E+00 0.  1.
<scales pt_clust_5="13000.00000" pt_clust_6="13000.00000" pt_clust_7="13000.00000" pt_clust_8="13000.00000" pt_clust_9="76.57989"></scales>
<clustering>
<clus scale="   76.580">  1  9  2 -1</clus>
<clus scale="   93.532">  7  8 -1 -1</clus>
<clus scale="   94.344">  5  6 -1 -1</clus>
<clus scale="  104.875">  2  7  1 -1</clus>
<clus scale="   76.580">  1  5  2 -1</clus>
</clustering>
</event>
<event>
 9    1  0.1426358E-005  0.2133213E+03  0.7546771E-02  0.1155383E+00
          1   -1    0    0  502    0 -0.00000000000E+00  0.00000000000E+00  0.77138507600E+03  0.77138507600E+03  0.00000000000E+00 0. -1.
         21   -1    0    0  501  502  0.00000000000E+00 -0.00000000000E+00 -0.11302561359E+04  0.11302561359E+04  0.00000000000E+00 0. -1.
         23    2    1    2    0    0 -0.67563280362E+02  0.89558557834E+02  0.56825563588E+03  0.58628522874E+03  0.90721384433E+02 0.  0.
         23    2    1    2    0    0 -0.81612138638E+02 -0.21186006309E+03  0.10453076125E+03  0.26581890784E+03  0.90486375839E+02 0.  0.
        -13    1    4    4    0    0 -0.21739050138E+02 -0.86269960212E+02 -0.44621875984E+01  0.89078636350E+02  0.00000000000E+00 0.  1.
         13    1    4    4    0    0 -0.59873088500E+02 -0.12559010287E+03  0.10899294885E+03  0.17674027149E+03  0.00000000000E+00 0. -1.
        -13    1    3    3    0    0 -0.24157496863E+02  0.95400945410E+02  0.43591422345E+03  0.44688492394E+03  0.00000000000E+00 0. -1.
         13    1    3    3    0    0 -0.43405783499E+02 -0.58423875758E+01  0.13234141243E+03  0.13940030480E+03  0.00000000000E+00 0.  1.
          1    1    1    2  501    0  0.14917541900E+03  0.12230150525E+03 -0.10316574571E+04  0.10495370754E+04  0.00000000000E+00 0. -1.
<scales pt_clust_5="13000.00000" pt_clust_6="13000.00000" pt_clust_7="13000.00000" pt_clust_8="13000.00000" pt_clust_9="193.17918"></scales>
<clustering>
<clus scale="   90.486">  5  6 -1 -1</clus>
<clus scale="   90.721">  7  8 -1 -1</clus>
<clus scale="  144.277">  1  7  2 -1</clus>
<clus scale="  193.179">  2  9  1 -1</clus>
<clus scale="  193.179">  2  5  1 -1</clus>
</clustering>
</event>
<event>
 9    1  0.1426358E-005  0.1048286E+03  0.7546771E-02  0.1277791E+00
         21   -1    0    0  501  502  0.00000000000E+00  0.00000000000E+00  0.10494799434E+03  0.10494799434E+03  0.00000000000E+00 0. -1.
          1   -1    0    0  502    0 -0.00000000000E+00 -0.00000000000E+00 -0.26286411872E+03  0.26286411872E+03  0.00000000000E+00 0. -1.
         23    2    1    2    0    0  0.77476022848E+01  0.15772198369E+02 -0.12096336635E+03  0.16046809917E+03  0.10396676042E+03 0.  0.
         23    2    1    2    0    0  0.34361696438E+02  0.83741596507E+01 -0.92305156378E+02  0.13372249769E+03  0.90058934942E+02 0.  0.
        -11    1    4    4    0    0 -0.10086148738E+02  0.40501050937E+02 -0.35945421772E+02  0.55083017979E+02  0.00000000000E+00 0.  1.
         11    1    4    4    0    0  0.44447845176E+02 -0.32126891286E+02 -0.56359734606E+02  0.78639479712E+02  0.00000000000E+00 0. -1.
        -13    1    3    3    0    0  0.27865805184E+02  0.22500718599E+02 -0.13184729871E+03  0.13662538422E+03  0.00000000000E+00 0. -1.
         13    1    3    3    0    0 -0.20118202899E+02 -0.67285202298E+01  0.10883932368E+02  0.23842714950E+02  0.00000000000E+00 0.  1.
          1    1    1    2  501    0 -0.42109298723E+02 -0.24146358020E+02  0.55352398343E+02  0.73621516196E+02  0.00000000000E+00 0. -1.
<scales pt_clust_5="13000.00000" pt_clust_6="13000.00000" pt_clust_7="13000.00000" pt_clust_8="13000.00000" pt_clust_9="48.54111"></scales>
<clustering>
<clus scale="   48.541">  1  9  2 -1</clus>
<clus scale="   90.059">  5  6 -1 -1</clus>
<clus scale="   91.053">  1  5  2 -1</clus>
<clus scale="  103.967">  7  8 -1 -1</clus>
<clus scale="   48.541">  1  5  2 -1</clus>
</clustering>
</event>
<event>
 9    1  0.1426358E-005  0.1608336E+03  0.7546771E-02  0.1193692E+00
         21   -1    0    0  501  502  0.00000000000E+00  0.00000000000E+00  0.48656820503E+03  0.48656820503E+03  0.00000000000E+00 0.  1.
          1   -1    0    0  502    0 -0.00000000000E+00 -0.00000000000E+00 -0.84421330072E+02  0.84421330072E+02  0.00000000000E+00 0. -1.
         23    2    1    2    0    0  0.12182535742E+02 -0.12873022496E+03  0.70757804200E+02  0.18949667391E+03  0.11909003977E+03 0.  0.
         23    2    1    2    0    0 -0.10769832794E+01  0.80735369093E+02  0.14712162075E+03  0.19075394902E+03  0.90680417168E+02 0.  0.
        -11    1    4    4    0    0  0.10280746126E+02  0.29122050148E+02 -0.35462218352E+01  0.31086383435E+02  0.00000000000E+00 0. -1.
         11    1    4    4    0    0 -0.11357729405E+02  0.51613318945E+02  0.15066784258E+03  0.15966756558E+03  0.00000000000E+00 0.  1.
        -13    1    3    3    0    0  0.50929131202E+02 -0.12380974521E+03  0.68477988542E+02  0.15037241877E+03  0.00000000000E+00 0. -1.
         13    1    3    3    0    0 -0.38746595459E+02 -0.49204797509E+01  0.22798156582E+01  0.39124255138E+02  0.00000000000E+00 0.  1.
          1    1    1    2  501    0 -0.11105552463E+02  0.47994855864E+02  0.18426745001E+03  0.19073891218E+03  0.00000000000E+00 0. -1.
<scales pt_clust_5="13000.00000" pt_clust_6="13000.00000" pt_clust_7="13000.00000" pt_clust_8="13000.00000" pt_clust_9="49.26296"></scales>
<clustering>
<clus scale="   49.263">  1  9  2 -1</clus>
<clus scale="   90.680">  5  6 -1 -1</clus>
<clus scale="  119.090">  7  8 -1 -1</clus>
<clus scale="  141.096">  1  5  2 -1</clus>
<clus scale="   49.263">  1  5  2 -1</clus>
</clustering>
</event>
<event>
 9    1  0.1426358E-005  0.1014938E+03  0.7546771E-02  0.1279229E+00
         21   -1    0    0  501  502  0.00000000000E+00  0.00000000000E+00  0.21233848972E+03  0.21233848972E+03  0.00000000000E+00 0.  1.
          1   -1    0    0  502    0 -0.00000000000E+00 -0.00000000000E+00 -0.15464761655E+03  0.15464761655E+03  0.00000000000E+00 0. -1.
         23    2    1    2    0    0  0.21528987935E+02  0.11376501353E+02 -0.44644116878E+02  0.10864397386E+03  0.96007779793E+02 0.  0.
         23    2    1    2    0    0 -0.30141836913E+02 -0.29936971765E+02 -0.44141750908E+02  0.11044315380E+03  0.91893652867E+02 0.  0.
        -11    1    4    4    0    0 -0.57875970877E+02 -0.71839004662E+01 -0.46359824363E+02  0.74501474790E+02  0.00000000000E+00 0.  1.
         11    1    4    4    0    0  0.27734133965E+02 -0.22753071298E+02  0.22180734543E+01  0.35941679011E+02  0.00000000000E+00 0. -1.
        -13    1    3    3    0    0  0.16665289647E+00  0.29636448648E+02  0.21608132579E+02  0.36677762407E+02  0.00000000000E+00 0.  1.
         13    1    3    3    0    0  0.21362335038E+02 -0.18259947295E+02 -0.66252249457E+02  0.71966211458E+02  0.00000000000E+00 0. -1.
          1    1    1    2  501    0  0.86128489784E+01  0.18560470412E+02  0.14647674096E+03  0.14789897860E+03  0.00000000000E+00 0. -1.
<scales pt_clust_5="13000.00000" pt_clust_6="13000.00000" pt_clust_7="13000.00000" pt_clust_8="13000.00000" pt_clust_9="20.46148"></scales>
<clustering>
<clus scale="   20.461">  1  9  2 -1</clus>
<clus scale="   91.894">  5  6 -1 -1</clus>
<clus scale="   96.008">  7  8 -1 -1</clus>
<clus scale="   97.611">  1  5  2 -1</clus>
<clus scale="   20.461">  1  5  2 -1</clus>
</clustering>
</event>
<event>
 9    1  0.1426358E-005  0.1045351E+03  0.7546771E-02  0.1273616E+00
         -2   -1    0    0    0  501 -0.00000000000E+00  0.00000000000E+00  0.33456226664E+02  0.33456226664E+02  0.00000000000E+00 0.  1.
         21   -1    0    0  501  502  0.00000000000E+00 -0.00000000000E+00 -0.57041614522E+03  0.57041614522E+03  0.00000000000E+00 0. -1.
         23    2    1    2    0    0  0.43162037708E+02  0.21055696065E+02 -0.85081341357E+02  0.13528169746E+03  0.93573496160E+02 0.  0.
         23    2    1    2    0    0 -0.26231270547E+02 -0.38688576126E+02 -0.35758226464E+03  0.37117730831E+03  0.87878511273E+02 0.  0.
        -11    1    3    3    0    0  0.48248417432E+02 -0.19427897196E+02 -0.14906011967E+02  0.54106766369E+02  0.00000000000E+00 0.  1.
         11    1    3    3    0    0 -0.50863797244E+01  0.40483593261E+02 -0.70175329390E+02  0.81174931087E+02  0.00000000000E+00 0. -1.
        -11    1    4    4    0    0 -0.36835935938E+02  0.16988377531E+02 -0.11142308342E+03  0.11857737839E+03  0.00000000000E+00 0.  1.
         11    1    4    4    0    0  0.10604665391E+02 -0.55676953657E+02 -0.24615918122E+03  0.25259992992E+03  0.00000000000E+00 0. -1.
         -2    1    1    2    0  502 -0.16930767161E+02  0.17632880061E+02 -0.94296312556E+02  0.97413366114E+02  0.00000000000E+00 0.  1.
<scales pt_clust_5="13000.00000" pt_clust_6="13000.00000" pt_clust_7="13000.00000" pt_clust_8="13000.00000" pt_clust_9="24.44523"></scales>
<clustering>
<clus scale="   24.445">  2  9  1 -1</clus>
<clus scale="   87.879">  7  8 -1 -1</clus>
<clus scale="   93.573">  5  6 -1 -1</clus>
<clus scale="   99.470">  2  7  1 -1</clus>
<clus scale="   24.445">  2  5  1 -1</clus>
</clustering>
</event>
<event>
 9    1  0.1426358E-005  0.1360086E+03  0.7546771E-02  0.1223767E+00
         21   -1    0    0  501  502  0.00000000000E+00  0.00000000000E+00  0.13646500037E+03  0.13646500037E+03  0.00000000000E+00 0. -1.
          1   -1    0    0  502    0 -0.00000000000E+00 -0.00000000000E+00 -0.32138505624E+03  0.32138505624E+03  0.00000000000E+00 0. -1.
         23    2    1    2    0    0  0.72856896917E+01  0.44384311377E+02 -0.63128563392E+02  0.12162353034E+03  0.93723098779E+02 0.  0.
         23    2    1    2    0    0 -0.89295443978E+02 -0.92454902876E+02 -0.16054622345E+03  0.23357025156E+03  0.11071760099E+03 0.  0.
        -11    1    4    4    0    0 -0.31204997981E+02 -0.10433638474E+03 -0.88972889958E+02  0.14062719590E+03  0.00000000000E+00 0. -1.
         11    1    4    4    0    0 -0.58090445997E+02  0.11881481867E+02 -0.71573333487E+02  0.92943055652E+02  0.00000000000E+00 0.  1.
        -11    1    3    3    0    0 -0.32143672152E+02  0.48192582052E+02 -0.57485424605E+02  0.81610750924E+02  0.00000000000E+00 0.  1.
         11    1    3    3    0    0  0.39429361844E+02 -0.38082706753E+01 -0.56431387869E+01  0.40012779412E+02  0.00000000000E+00 0. -1.
          1    1    1    2  501    0  0.82009754286E+02  0.48070591499E+02  0.38754730970E+02  0.10265627471E+03  0.00000000000E+00 0. -1.
<scales pt_clust_5="13000.00000" pt_clust_6="13000.00000" pt_clust_7="13000.00000" pt_clust_8="13000.00000" pt_clust_9="95.05988"></scales>
<clustering>
<clus scale="   93.723">  7  8 -1 -1</clus>
<clus scale="   95.060">  1  9  2 -1</clus>
<clus scale="  110.718">  5  6 -1 -1</clus>
<clus scale="  122.572">  2  7  1 -1</clus>
<clus scale="   95.060">  1  5  2 -1</clus>
</clustering>
</event>
<event>
 9    1  0.1426358E-005  0.1115487E+03  0.7546771E-02  0.1261597E+00
          1   -1    0    0  502    0 -0.00000000000E+00  0.00000000000E+00  0.32537639352E+03  0.32537639352E+03  0.00000000000E+00 0. -1.
         21   -1    0    0  501  502  0.00000000000E+00 -0.00000000000E+00 -0.13433879023E+03  0.13433879023E+03  0.00000000000E+00 0. -1.
         23    2    1    2    0    0 -0.23611156658E+02 -0.36610726305E+02  0.15108639660E+03  0.18089603070E+03  0.89434013023E+02 0.  0.
         23    2    1    2    0    0  0.22668755515E+02  0.60805617179E+02  0.13576392679E+03  0.17999426652E+03  0.98766880102E+02 0.  0.
        -13    1    3    3    0    0 -0.95244398231E+01  0.23737619554E+02  0.11247588369E+02  0.27940969564E+02  0.00000000000E+00 0.  1.
         13    1    3    3    0    0 -0.14086716835E+02 -0.60348345859E+02  0.13983880824E+03  0.15295506114E+03  0.00000000000E+00 0. -1.
        -13    1    4    4    0    0  0.43442359312E+02 -0.82837801105E+00  0.21412310259E+02  0.48439775220E+02  0.00000000000E+00 0.  1.
         13    1    4    4    0    0 -0.20773603796E+02  0.61633995190E+02  0.11435161653E+03  0.13155449130E+03  0.00000000000E+00 0. -1.
          1    1    1    2  501    0  0.94240114252E+00 -0.24194890874E+02 -0.95812720105E+02  0.98824886533E+02  0.00000000000E+00 0. -1.
<scales pt_clust_5="13000.00000" pt_clust_6="13000.00000" pt_clust_7="13000.00000" pt_clust_8="13000.00000" pt_clust_9="24.21324"></scales>
<clustering>
<clus scale="   24.213">  2  9  1 -1</clus>
<clus scale="   89.434">  5  6 -1 -1</clus>
<clus scale="   98.767">  7  8 -1 -1</clus>
<clus scale="  103.376">  1  5  2 -1</clus>
<clus scale="   24.213">  2  5  1 -1</clus>
</clustering>
</event>
<event>
 9    1  0.1426358E-005  0.1067277E+03  0.7546771E-02  0.1274960E+00
          2   -1    0    0  502    0 -0.00000000000E+00  0.00000000000E+00  0.15751611135E+03  0.15751611135E+03  0.00000000000E+00 0. -1.
         21   -1    0    0  501  502  0.00000000000E+00 -0.00000000000E+00 -0.10926194142E+03  0.10926194142E+03  0.00000000000E+00 0.  1.
         23    2    1    2    0    0 -0.29710716680E+02  0.33894302535E+02  0.67913134941E+02  0.13019949258E+03  0.10152912657E+03 0.  0.
         23    2    1    2    0    0  0.14851697778E+02 -0.12582511056E+02  0.19779907303E+02  0.89351369417E+02  0.84932502450E+02 0.  0.
        -13    1    3    3    0    0  0.15896791697E+02  0.37491366315E+02  0.73583597205E+02  0.84100275339E+02  0.00000000000E+00 0. -1.
         13    1    3    3    0    0 -0.45607508377E+02 -0.35970637794E+01 -0.56704622647E+01  0.46099217244E+02  0.00000000000E+00 0.  1.
        -13    1    4    4    0    0  0.17063186289E+02 -0.40616634443E+02 -0.13218808829E+02  0.45995654432E+02  0.00000000000E+00 0.  1.
         13    1    4    4    0    0 -0.22114885109E+01  0.28034123387E+02  0.32998716132E+02  0.43355714985E+02  0.00000000000E+00 0. -1.
          2    1    1    2  501    0  0.14859018901E+02 -0.21311791480E+02 -0.39438872309E+02  0.47227190768E+02  0.00000000000E+00 0. -1.
<scales pt_clust_5="13000.00000" pt_clust_6="13000.00000" pt_clust_7="13000.00000" pt_clust_8="13000.00000" pt_clust_9="25.98043"></scales>
<clustering>
<clus scale="   25.980">  2  9  1 -1</clus>
<clus scale="   84.933">  7  8 -1 -1</clus>
<clus scale="   91.083">  2  7  1 -1</clus>
<clus scale="  101.529">  5  6 -1 -1</clus>
<clus scale="   25.980">  2  5  1 -1</clus>
</clustering>
</event>
<event>
 9    1  0.1426358E-005  0.1092482E+03  0.7546771E-02  0.1264399E+00
         -1   -1    0    0    0  501 -0.00000000000E+00  0.00000000000E+00  0.34026952957E+03  0.34026952957E+03  0.00000000000E+00 0.  1.
         21   -1    0    0  501  502  0.00000000000E+00 -0.00000000000E+00 -0.68322033403E+02  0.68322033403E+02  0.00000000000E+00 0. -1.
         23    2    1    2    0    0 -0.67272852134E+02 -0.18825267639E+02  0.20124100739E+03  0.23142333874E+03  0.90436670222E+02 0.  0.
         23    2    1    2    0    0  0.39396736963E+01  0.21731616611E+02  0.37681392152E+02  0.10568259378E+03  0.96234812429E+02 0.  0.
        -11    1    3    3    0    0 -0.84661245694E+02  0.44562469471E+01  0.14065342516E+03  0.16422780115E+03  0.00000000000E+00 0.  1.
         11    1    3    3    0    0  0.17388393559E+02 -0.23281514586E+02  0.60587582224E+02  0.67195537588E+02  0.00000000000E+00 0. -1.
        -11    1    4    4    0    0 -0.27390084288E+02 -0.25958740029E+02  0.80980113936E+00  0.37745578272E+02  0.00000000000E+00 0.  1.
         11    1    4    4    0    0  0.31329757984E+02  0.47690356640E+02  0.36871591012E+02  0.67937015504E+02  0.00000000000E+00 0. -1.
         -1    1    1    2    0  502  0.63333178438E+02 -0.29063489718E+01  0.33025096629E+02  0.71485630463E+02  0.00000000000E+00 0.  1.
<scales pt_clust_5="13000.00000" pt_clust_6="13000.00000" pt_clust_7="13000.00000" pt_clust_8="13000.00000" pt_clust_9="63.39983"></scales>
<clustering>
<clus scale="   63.400">  2  9  1 -1</clus>
<clus scale="   90.437">  5  6 -1 -1</clus>
<clus scale="   96.235">  7  8 -1 -1</clus>
<clus scale="  104.177">  1  5  2 -1</clus>
<clus scale="   63.400">  2  5  1 -1</clus>
</clustering>
</event>
<event>
 9    1  0.1426358E-005  0.1028594E+03  0.7546771E-02  0.1274762E+00
         21   -1    0    0  501  502  0.00000000000E+00  0.00000000000E+00  0.96282933906E+02  0.96282933906E+02  0.00000000000E+00 0. -1.
          2   -1    0    0  502    0 -0.00000000000E+00 -0.00000000000E+00 -0.20998026597E+03  0.20998026597E+03  0.00000000000E+00 0. -1.
         23    2    1    2    0    0 -0.31709634273E+02 -0.34109038628E+02 -0.13192819853E+03  0.16740699021E+03  0.91929991744E+02 0.  0.
         23    2    1    2    0    0  0.14996904604E+02  0.45835204728E+02 -0.10478443620E+02  0.10362777243E+03  0.91121590730E+02 0.  0.
        -13    1    4    4    0    0 -0.46976198498E-01 -0.27742475696E+02 -0.60687110946E+01  0.28398528463E+02  0.00000000000E+00 0. -1.
         13    1    4    4    0    0  0.15043880802E+02  0.73577680425E+02 -0.44097325253E+01  0.75229243963E+02  0.00000000000E+00 0.  1.
        -13    1    3    3    0    0  0.31654042949E+01 -0.58758897844E+02 -0.62076948473E+02  0.85534644396E+02  0.00000000000E+00 0.  1.
         13    1    3    3    0    0 -0.34875038568E+02  0.24649859217E+02 -0.69851250062E+02  0.81872345818E+02  0.00000000000E+00 0. -1.
          2    1    1    2  501    0  0.16712729669E+02 -0.11726166101E+02  0.28709310090E+02  0.35228437238E+02  0.00000000000E+00 0. -1.
<scales pt_clust_5="13000.00000" pt_clust_6="13000.00000" pt_clust_7="13000.00000" pt_clust_8="13000.00000" pt_clust_9="20.41613"></scales>
<clustering>
<clus scale="   20.416">  1  9  2 -1</clus>
<clus scale="   91.122">  5  6 -1 -1</clus>
<clus scale="   91.930">  7  8 -1 -1</clus>
<clus scale="  102.138">  1  5  2 -1</clus>
<clus scale="   20.416">  1  5  2 -1</clus>
</clustering>
</event>
<event>
 9    1  0.1426358E-005  0.1284467E+03  0.7546771E-02  0.1234831E+00
          1   -1    0    0  502    0 -0.00000000000E+00  0.00000000000E+00  0.30360641415E+03  0.30360641415E+03  0.00000000000E+00 0. -1.
         21   -1    0    0  501  502  0.00000000000E+00 -0.00000000000E+00 -0.11986652946E+03  0.11986652946E+03  0.00000000000E+00 0.  1.
         23    2    1    2    0    0 -0.63234176044E+02 -0.16840744905E+02  0.23202676741E+03  0.25892559400E+03  0.94466241198E+02 0.  0.
         23    2    1    2    0    0  0.69807823488E+02  0.37331073364E+02 -0.46309522108E+02  0.14293771389E+03  0.10963519943E+03 0.  0.
        -11    1    3    3    0    0 -0.85526426800E+02 -0.17316654542E+02  0.21076845590E+03  0.22811834255E+03  0.00000000000E+00 0. -1.
         11    1    3    3    0    0  0.22292250756E+02  0.47590963747E+00  0.21258311508E+02  0.30807251451E+02  0.00000000000E+00 0.  1.
        -11    1    4    4    0    0  0.60270368595E+02  0.59025298784E+01 -0.77017283733E+02  0.97974584374E+02  0.00000000000E+00 0.  1.
         11    1    4    4    0    0  0.95374548930E+01  0.31428543485E+02  0.30707761625E+02  0.44963129511E+02  0.00000000000E+00 0. -1.
          1    1    1    2  501    0 -0.65736474449E+01 -0.20490328459E+02 -0.19773606180E+01  0.21609635724E+02  0.00000000000E+00 0. -1.
<scales pt_clust_5="13000.00000" pt_clust_6="13000.00000" pt_clust_7="13000.00000" pt_clust_8="13000.00000" pt_clust_9="21.51898"></scales>
<clustering>
<clus scale="   21.519">  2  9  1 -1</clus>
<clus scale="   94.466">  5  6 -1 -1</clus>
<clus scale="  109.635">  7  8 -1 -1</clus>
<clus scale="  115.769">  1  5  2 -1</clus>
<clus scale="   21.519">  2  5  1 -1</clus>
</clustering>
</event>
<event>
 9    1  0.1426358E-005  0.1690270E+03  0.7546771E-02  0.1179171E+00
          1   -1    0    0  502    0 -0.00000000000E+00  0.00000000000E+00  0.25268702575E+03  0.25268702575E+03  0.00000000000E+00 0. -1.
         21   -1    0    0  501  502  0.00000000000E+00 -0.00000000000E+00 -0.28294202992E+03  0.28294202992E+03  0.00000000000E+00 0. -1.
         23    2    1    2    0    0  0.83951870156E+02 -0.75646739577E+02  0.24253843675E+02  0.14767142282E+03  0.91914386643E+02 0.  0.
         23    2    1    2    0    0 -0.18248221634E+03  0.37907514030E+02  0.75770179420E+02  0.22031186580E+03  0.89774490944E+02 0.  0.
        -13    1    4    4    0    0 -0.46742630647E+02 -0.87471654197E+01 -0.15736718783E+02  0.50090226000E+02  0.00000000000E+00 0.  1.
         13    1    4    4    0    0 -0.13573958569E+03  0.46654679449E+02  0.91506898203E+02  0.17022163980E+03  0.00000000000E+00 0. -1.
        -13    1    3    3    0    0  0.17026935039E+02 -0.73450209586E+02  0.28431169066E+02  0.80580277857E+02  0.00000000000E+00 0. -1.
         13    1    3    3    0    0  0.66924935117E+02 -0.21965299913E+01 -0.41773253908E+01  0.67091144959E+02  0.00000000000E+00 0.  1.
          1    1    1    2  501    0  0.98530346179E+02  0.37739225548E+02 -0.13027902727E+03  0.16764576705E+03  0.00000000000E+00 0. -1.
<scales pt_clust_5="13000.00000" pt_clust_6="13000.00000" pt_clust_7="13000.00000" pt_clust_8="13000.00000" pt_clust_9="105.51056"></scales>
<clustering>
<clus scale="   89.774">  5  6 -1 -1</clus>
<clus scale="   91.914">  7  8 -1 -1</clus>
<clus scale="  105.511">  2  9  1 -1</clus>
<clus scale="  167.873">  2  5  1 -1</clus>
<clus scale="  105.511">  2  5  1 -1</clus>
</clustering>
</event>
<event>
 9    1  0.1426358E-005  0.1127703E+03  0.7546771E-02  0.1264482E+00
         21   -1    0    0  501  502  0.00000000000E+00  0.00000000000E+00  0.60469012961E+02  0.60469012961E+02  0.00000000000E+00 0. -1.
          1   -1    0    0  502    0 -0.00000000000E+00 -0.00000000000E+00 -0.35215615197E+03  0.35215615197E+03  0.00000000000E+00 0. -1.
         23    2    1    2    0    0  0.26764944313E+02 -0.23090252716E+02 -0.18206499153E+03  0.21525374458E+03  0.10925653939E+03 0.  0.
         23    2    1    2    0    0 -0.24019763156E+02  0.19033173746E+01 -0.13498672382E+03  0.16420842920E+03  0.90346117645E+02 0.  0.
        -11    1    4    4    0    0 -0.57510608534E+02 -0.54510154852E+01 -0.98105618147E+02  0.11385032269E+03  0.00000000000E+00 0.  1.
         11    1    4    4    0    0  0.33490845379E+02  0.73543328598E+01 -0.36881105674E+02  0.50358106514E+02  0.00000000000E+00 0. -1.
        -11    1    3    3    0    0  0.26232424878E+02  0.40950907194E+02 -0.99618341115E+02  0.11085545003E+03  0.00000000000E+00 0.  1.
         11    1    3    3    0    0  0.53251943498E+00 -0.64041159910E+02 -0.82446650419E+02  0.10439829455E+03  0.00000000000E+00 0. -1.
          1    1    1    2  501    0 -0.27451811577E+01  0.21186935341E+02  0.25364576347E+02  0.33162991150E+02  0.00000000000E+00 0. -1.
<scales pt_clust_5="13000.00000" pt_clust_6="13000.00000" pt_clust_7="13000.00000" pt_clust_8="13000.00000" pt_clust_9="21.36404"></scales>
<clustering>
<clus scale="   21.364">  1  9  2 -1</clus>
<clus scale="   90.346">  5  6 -1 -1</clus>
<clus scale="   94.565">  1  5  2 -1</clus>
<clus scale="  109.257">  7  8 -1 -1</clus>
<clus scale="   21.364">  1  5  2 -1</clus>
</clustering>
</event>
<event>
 9    1  0.1426358E-005  0.2039062E+03  0.7546771E-02  0.1147310E+00
         21   -1    0    0  501  502  0.00000000000E+00  0.00000000000E+00  0.24079254074E+03  0.24079254074E+03  0.00000000000E+00 0. -1.
          3   -1    0    0  502    0 -0.00000000000E+00 -0.00000000000E+00 -0.35089824984E+03  0.35089824984E+03  0.00000000000E+00 0. -1.
         23    2    1    2    0    0  0.11475304009E+03 -0.10250512408E+03 -0.12182110594E+03  0.21757957289E+03  0.93941088012E+02 0.  0.
         23    2    1    2    0    0 -0.15925725303E+03  0.19352776716E+03 -0.26180515852E+02  0.26593614330E+03  0.84974958651E+02 0.  0.
        -11    1    4    4    0    0 -0.72765249181E+02  0.68956563106E+02  0.29315826075E+02  0.10444714808E+03  0.00000000000E+00 0. -1.
         11    1    4    4    0    0 -0.86492003848E+02  0.12457120405E+03 -0.55496341927E+02  0.16148899522E+03  0.00000000000E+00 0.  1.
        -13    1    3    3    0    0  0.45809398199E+02 -0.80593876097E+02 -0.11069734303E+03  0.14438758804E+03  0.00000000000E+00 0.  1.
         13    1    3    3    0    0  0.68943641887E+02 -0.21911247986E+02 -0.11123762907E+02  0.73191984849E+02  0.00000000000E+00 0. -1.
          3    1    1    2  501    0  0.44504212944E+02 -0.91022643075E+02  0.37895912690E+02  0.10817507440E+03  0.00000000000E+00 0. -1.
<scales pt_clust_5="13000.00000" pt_clust_6="13000.00000" pt_clust_7="13000.00000" pt_clust_8="13000.00000" pt_clust_9="101.32002"></scales>
<clustering>
<clus scale="   84.975">  5  6 -1 -1</clus>
<clus scale="   93.941">  7  8 -1 -1</clus>
<clus scale="  101.320">  1  9  2 -1</clus>
<clus scale="  199.934">  1  5  2 -1</clus>
<clus scale="  101.320">  1  5  2 -1</clus>
</clustering>
</event>
<event>
 9    1  0.1426358E-005  0.9625871E+02  0.7546771E-02  0.1289194E+00
          4   -1    0    0  502    0 -0.00000000000E+00  0.00000000000E+00  0.31925516445E+03  0.31925516445E+03  0.00000000000E+00 0.  1.
         21   -1    0    0  501  502  0.00000000000E+00 -0.00000000000E+00 -0.11520568939E+03  0.11520568939E+03  0.00000000000E+00 0.  1.
         23    2    1    2    0    0  0.13588155496E+01  0.12348218109E+02  0.20427567227E+03  0.22478492744E+03  0.92980581030E+02 0.  0.
         23    2    1    2    0    0 -0.37161197103E+02 -0.65253045240E+02  0.49959100234E+02  0.12843987936E+03  0.91443843039E+02 0.  0.
        -13    1    3    3    0    0 -0.40825449970E+02 -0.54608692121E+01  0.13953867284E+03  0.14549082334E+03  0.00000000000E+00 0.  1.
         13    1    3    3    0    0  0.42184265519E+02  0.17809087321E+02  0.64736999430E+02  0.79294104092E+02  0.00000000000E+00 0. -1.
        -13    1    4    4    0    0  0.24524663135E+02 -0.44293593809E+01 -0.55763925248E+01  0.25537707024E+02  0.00000000000E+00 0. -1.
         13    1    4    4    0    0 -0.61685860239E+02 -0.60823685859E+02  0.55535492759E+02  0.10290217233E+03  0.00000000000E+00 0.  1.
          4    1    1    2  501    0  0.35802381553E+02  0.52904827131E+02 -0.50185297448E+02  0.81236047040E+02  0.00000000000E+00 0.  1.
<scales pt_clust_5="13000.00000" pt_clust_6="13000.00000" pt_clust_7="13000.00000" pt_clust_8="13000.00000" pt_clust_9="63.88060"></scales>
<clustering>
<clus scale="   63.881">  2  9  1 -1</clus>
<clus scale="   91.444">  7  8 -1 -1</clus>
<clus scale="   92.981">  5  6 -1 -1</clus>
<clus scale="   94.775">  2  7  1 -1</clus>
<clus scale="   63.881">  2  5  1 -1</clus>
</clustering>
</event>
<event>
 9    1  0.1426358E-005  0.1369688E+03  0.7546771E-02  0.1232909E+00
         21   -1    0    0  501  502  0.00000000000E+00  0.00000000000E+00  0.45219708317E+03  0.45219708317E+03  0.00000000000E+00 0. -1.
         -2   -1    0    0    0  501 -0.00000000000E+00 -0.00000000000E+00 -0.65839374884E+02  0.65839374884E+02  0.00000000000E+00 0.  1.
         23    2    1    2    0    0  0.40002601142E+02  0.10707571046E+02  0.80619232425E+02  0.12791793990E+03  0.90270031213E+02 0.  0.
         23    2    1    2    0    0  0.71055913053E+02  0.29181653945E+02  0.11675341690E+03  0.16731704519E+03  0.91995225672E+02 0.  0.
        -11    1    4    4    0    0 -0.20928628788E+02  0.86563081471E+01  0.95592098302E+01  0.24582873433E+02  0.00000000000E+00 0.  1.
         11    1    4    4    0    0  0.91984541840E+02  0.20525345798E+02  0.10719420707E+03  0.14273417176E+03  0.00000000000E+00 0. -1.
        -11    1    3    3    0    0  0.62448811145E+02 -0.14189154755E+02  0.63864610991E+02  0.90442659532E+02  0.00000000000E+00 0. -1.
         11    1    3    3    0    0 -0.22446210003E+02  0.24896725802E+02  0.16754621433E+02  0.37475280366E+02  0.00000000000E+00 0.  1.
         -2    1    1    2    0  502 -0.11105851419E+03 -0.39889224991E+02  0.18898505896E+03  0.22280147297E+03  0.00000000000E+00 0.  1.
<scales pt_clust_5="13000.00000" pt_clust_6="13000.00000" pt_clust_7="13000.00000" pt_clust_8="13000.00000" pt_clust_9="101.47581"></scales>
<clustering>
<clus scale="   90.270">  7  8 -1 -1</clus>
<clus scale="   91.995">  5  6 -1 -1</clus>
<clus scale="   99.315">  2  7  1 -1</clus>
<clus scale="  101.476">  1  9  2 -1</clus>
<clus scale="  101.476">  1  5  2 -1</clus>
</clustering>
</event>
<event>
 9    1  0.1426358E-005  0.9624368E+02  0.7546771E-02  0.1289406E+00
         21   -1    0    0  501  502  0.00000000000E+00  0.00000000000E+00  0.84713542968E+02  0.84713542968E+02  0.00000000000E+00 0.  1.
          2   -1    0    0  502    0 -0.00000000000E+00 -0.00000000000E+00 -0.20955259940E+03  0.20955259940E+03  0.00000000000E+00 0. -1.
         23    2    1    2    0    0  0.68359326712E+01  0.36579539726E+02 -0.12253358273E+03  0.15400677818E+03  0.85550079641E+02 0.  0.
         23    2    1    2    0    0  0.14572785864E+02 -0.53230408790E+02  0.19694141620E+02  0.10533705407E+03  0.87533954770E+02 0.  0.
        -11    1    3    3    0    0  0.28728961902E+02  0.15966068576E+02 -0.56905812713E+01  0.33356428360E+02  0.00000000000E+00 0.  1.
         11    1    3    3    0    0 -0.21893029231E+02  0.20613471150E+02 -0.11684300146E+03  0.12065034982E+03  0.00000000000E+00 0. -1.
        -11    1    4    4    0    0 -0.83775343745E+01 -0.63690267069E+02 -0.11460240699E+02  0.65253124970E+02  0.00000000000E+00 0.  1.
         11    1    4    4    0    0  0.22950320238E+02  0.10459858279E+02  0.31154382318E+02  0.40083929097E+02  0.00000000000E+00 0. -1.
          2    1    1    2  501    0 -0.21408718535E+02  0.16650869065E+02 -0.21999615324E+02  0.34922310123E+02  0.00000000000E+00 0. -1.
<scales pt_clust_5="13000.00000" pt_clust_6="13000.00000" pt_clust_7="13000.00000" pt_clust_8="13000.00000" pt_clust_9="27.12168"></scales>
<clustering>
<clus scale="   27.122">  1  9  2 -1</clus>
<clus scale="   85.550">  5  6 -1 -1</clus>
<clus scale="   87.534">  7  8 -1 -1</clus>
<clus scale="   94.443">  2  5  1 -1</clus>
<clus scale="   27.122">  1  5  2 -1</clus>
</clustering>
</event>
<event>
 9    1  0.1426358E-005  0.1095445E+03  0.7546771E-02  0.1265146E+00
         21   -1    0    0  501  502  0.00000000000E+00  0.00000000000E+00  0.21175139666E+03  0.21175139666E+03  0.00000000000E+00 0. -1.
         -3   -1    0    0    0  501 -0.00000000000E+00 -0.00000000000E+00 -0.19683583650E+03  0.19683583650E+03  0.00000000000E+00 0.  1.
         23    2    1    2    0    0  0.35712603219E+02 -0.29868430917E+02 -0.14671362829E+03  0.18209560436E+03  0.97295463445E+02 0.  0.
         23    2    1    2    0    0 -0.71544080944E+02  0.35836981007E+02  0.10359865804E+03  0.15802951632E+03  0.88531358034E+02 0.  0.
        -11    1    4    4    0    0 -0.49915004902E+02  0.88632310833E+01  0.20289018907E+01  0.50736387559E+02  0.00000000000E+00 0.  1.
         11    1    4    4    0    0 -0.21629076042E+02  0.26973749924E+02  0.10156975615E+03  0.10729312876E+03  0.00000000000E+00 0. -1.
        -13    1    3    3    0    0  0.66839195606E+01  0.34547093229E+02 -0.66244762082E+02  0.75010298856E+02  0.00000000000E+00 0. -1.
         13    1    3    3    0    0  0.29028683659E+02 -0.64415524145E+02 -0.80468866205E+02  0.10708530550E+03  0.00000000000E+00 0.  1.
         -3    1    1    2    0  502  0.35831477725E+02 -0.59685500908E+01  0.58030530406E+02  0.68462112481E+02  0.00000000000E+00 0.  1.
<scales pt_clust_5="13000.00000" pt_clust_6="13000.00000" pt_clust_7="13000.00000" pt_clust_8="13000.00000" pt_clust_9="36.32518"></scales>
<clustering>
<clus scale="   36.325">  1  9  2 -1</clus>
<clus scale="   88.531">  5  6 -1 -1</clus>
<clus scale="   97.295">  7  8 -1 -1</clus>
<clus scale="  101.840">  1  5  2 -1</clus>
<clus scale="   36.325">  1  5  2 -1</clus>
</clustering>
</event>
<event>
 9    1  0.1426358E-005  0.1128309E+03  0.7546771E-02  0.1255597E+00
         -3   -1    0    0    0  501 -0.00000000000E+00  0.00000000000E+00  0.18710938366E+03  0.18710938366E+03  0.00000000000E+00 0.  1.
         21   -1    0    0  501  502  0.00000000000E+00 -0.00000000000E+00 -0.19798242232E+03  0.19798242232E+03  0.00000000000E+00 0.  1.
         23    2    1    2    0    0 -0.59247736954E+00 -0.63279690844E+02  0.13214132863E+03  0.17263095369E+03  0.91298659014E+02 0.  0.
         23    2    1    2    0    0 -0.62899870773E+01  0.83618753101E+02 -0.83412309351E+02  0.14910904820E+03  0.90797770330E+02 0.  0.
        -13    1    3    3    0    0  0.39107167045E+02 -0.43904539924E+02  0.42029189583E+02  0.72273314005E+02  0.00000000000E+00 0. -1.
         13    1    3    3    0    0 -0.39699644415E+02 -0.19375150920E+02  0.90112139051E+02  0.10035763969E+03  0.00000000000E+00 0.  1.
        -13    1    4    4    0    0 -0.65953723828E+01  0.59996227581E+02  0.20991922379E+01  0.60394145981E+02  0.00000000000E+00 0.  1.
         13    1    4    4    0    0  0.30538530546E+00  0.23622525521E+02 -0.85511501589E+02  0.88714902221E+02  0.00000000000E+00 0. -1.
         -3    1    1    2    0  502  0.68824644469E+01 -0.20339062257E+02 -0.59602057941E+02  0.63351804087E+02  0.00000000000E+00 0.  1.
<scales pt_clust_5="13000.00000" pt_clust_6="13000.00000" pt_clust_7="13000.00000" pt_clust_8="13000.00000" pt_clust_9="21.47198"></scales>
<clustering>
<clus scale="   21.472">  2  9  1 -1</clus>
<clus scale="   90.798">  7  8 -1 -1</clus>
<clus scale="   91.299">  5  6 -1 -1</clus>
<clus scale="  112.426">  2  7  1 -1</clus>
<clus scale="   21.472">  2  5  1 -1</clus>
</clustering>
</event>
<event>
 9    1  0.1426358E-005  0.1325940E+03  0.7546771E-02  0.1224996E+00
         -1   -1    0    0    0  501 -0.00000000000E+00  0.00000000000E+00  0.71607582910E+02  0.71607582910E+02  0.00000000000E+00 0.  1.
         21   -1    0    0  501  502  0.00000000000E+00 -0.00000000000E+00 -0.37808212019E+03  0.37808212019E+03  0.00000000000E+00 0. -1.
         23    2    1    2    0    0 -0.81564998381E+02 -0.30913531112E+02 -0.58020760024E+02  0.13902884740E+03  0.91400855846E+02 0.  0.
         23    2    1    2    0    0  0.11501572196E+03  0.30250617564E+02 -0.22887964933E+03  0.27189828553E+03  0.86017833245E+02 0.  0.
        -13    1    4    4    0    0  0.37754248391E+02 -0.25799544393E+02 -0.42166163389E+02  0.62201166367E+02  0.00000000000E+00 0.  1.
         13    1    4    4    0    0  0.77261473567E+02  0.56050161956E+02 -0.18671348594E+03  0.20969711916E+03  0.00000000000E+00 0. -1.
        -13    1    3    3    0    0 -0.29042620024E+02 -0.59516460006E+02 -0.35364285714E+02  0.75075398724E+02  0.00000000000E+00 0.  1.
         13    1    3    3    0    0 -0.52522378357E+02  0.28602928894E+02 -0.22656474310E+02  0.63953448678E+02  0.00000000000E+00 0. -1.
         -1    1    1    2    0  502 -0.33450723578E+02  0.66291354823E+00 -0.19574127933E+02  0.38762570175E+02  0.00000000000E+00 0.  1.
<scales pt_clust_5="13000.00000" pt_clust_6="13000.00000" pt_clust_7="13000.00000" pt_clust_8="13000.00000" pt_clust_9="33.45731"></scales>
<clustering>
<clus scale="   33.457">  2  9  1 -1</clus>
<clus scale="   86.018">  5  6 -1 -1</clus>
<clus scale="   91.401">  7  8 -1 -1</clus>
<clus scale="  128.942">  2  5  1 -1</clus>
<clus scale="   33.457">  2  5  1 -1</clus>
</clustering>
</event>
<event>
 9    1  0.1426358E-005  0.9563647E+02  0.7546771E-02  0.1290818E+00
          2   -1    0    0  502    0 -0.00000000000E+00  0.00000000000E+00  0.42101291680E+03  0.42101291680E+03  0.00000000000E+00 0. -1.
         21   -1    0    0  501  502  0.00000000000E+00 -0.00000000000E+00 -0.49571971479E+02  0.49571971479E+02  0.00000000000E+00 0. -1.
         23    2    1    2    0    0  0.33749022929E+02 -0.57064902825E+01  0.28408085847E+03  0.29961392033E+03  0.88853849246E+02 0.  0.
         23    2    1    2    0    0 -0.80458341358E+01  0.33361901608E+02  0.90938639859E+02  0.13304628297E+03  0.90850015224E+02 0.  0.
        -13    1    4    4    0    0  0.26610301965E+02  0.21629632523E+02 -0.77803672667E+00  0.34300940438E+02  0.00000000000E+00 0. -1.
         13    1    4    4    0    0 -0.34656136101E+02  0.11732269085E+02  0.91716676586E+02  0.98745342529E+02  0.00000000000E+00 0.  1.
        -13    1    3    3    0    0  0.56856906986E+02  0.20234320578E+02  0.18766923185E+03  0.19713415784E+03  0.00000000000E+00 0. -1.
         13    1    3    3    0    0 -0.23107884058E+02 -0.25940810860E+02  0.96411626618E+02  0.10247976249E+03  0.00000000000E+00 0.  1.
          2    1    1    2  501    0 -0.25703188793E+02 -0.27655411325E+02 -0.35785530058E+01  0.37924684986E+02  0.00000000000E+00 0. -1.
<scales pt_clust_5="13000.00000" pt_clust_6="13000.00000" pt_clust_7="13000.00000" pt_clust_8="13000.00000" pt_clust_9="37.75547"></scales>
<clustering>
<clus scale="   37.755">  2  9  1 -1</clus>
<clus scale="   88.854">  7  8 -1 -1</clus>
<clus scale="   90.850">  5  6 -1 -1</clus>
<clus scale="   93.742">  1  7  2 -1</clus>
<clus scale="   37.755">  2  5  1 -1</clus>
</clustering>
</event>
<event>
 9    1  0.2178878E-005  0.1297069E+03  0.7546771E-02  0.1228483E+00
         -3   -1    0    0    0  501 -0.00000000000E+00  0.00000000000E+00  0.45871373970E+03  0.45871373970E+03  0.00000000000E+00 0.  1.
         21   -1    0    0  501  502  0.00000000000E+00 -0.00000000000E+00 -0.38308537399E+03  0.38308537399E+03  0.00000000000E+00 0.  1.
         23    2    1    2    0    0  0.95481389824E+02 -0.18897409401E+02  0.39262749374E+03  0.41443529057E+03  0.90146843266E+02 0.  0.
         23    2    1    2    0    0 -0.35150455727E+02  0.67163808436E+02 -0.20856111892E+02  0.12130802282E+03  0.92380340419E+02 0.  0.
        -11    1    4    4    0    0  0.30171166467E+02  0.35510046194E+02 -0.12481413247E+02  0.48239489460E+02  0.00000000000E+00 0.  1.
         11    1    4    4    0    0 -0.65321622194E+02  0.31653762243E+02 -0.83746986453E+01  0.73068533361E+02  0.00000000000E+00 0. -1.
        -13    1    3    3    0    0 -0.98167148973E+01  0.18474495660E+02  0.59921010389E+02  0.63468120874E+02  0.00000000000E+00 0. -1.
         13    1    3    3    0    0  0.10529810472E+03 -0.37371905061E+02  0.33270648335E+03  0.35096716970E+03  0.00000000000E+00 0.  1.
         -3    1    1    2    0  502 -0.60330934097E+02 -0.48266399036E+02 -0.29614301613E+03  0.30605580029E+03  0.00000000000E+00 0.  1.
<scales pt_clust_5="13000.00000" pt_clust_6="13000.00000" pt_clust_7="13000.00000" pt_clust_8="13000.00000" pt_clust_9="77.26233"></scales>
<clustering>
<clus scale="   77.262">  2  9  1 -1</clus>
<clus scale="   90.147">  7  8 -1 -1</clus>
<clus scale="   92.380">  5  6 -1 -1</clus>
<clus scale="  128.126">  1  7  2 -1</clus>
<clus scale="   77.262">  2  5  1 -1</clus>
</clustering>
</event>
<event>
 9    1  0.1426358E-005  0.9449656E+02  0.7546771E-02  0.1292951E+00
          2   -1    0    0  502    0 -0.00000000000E+00  0.00000000000E+00  0.55040289731E+03  0.55040289731E+03  0.00000000000E+00 0. -1.
         21   -1    0    0  501  502  0.00000000000E+00 -0.00000000000E+00 -0.22389814064E+02  0.22389814064E+02  0.00000000000E+00 0.  1.
         23    2    1    2    0    0 -0.53152172678E+01  0.28343509243E+02  0.32279236087E+03  0.33666194630E+03  0.91185260868E+02 0.  0.
         23    2    1    2    0    0 -0.11323733342E+01 -0.60261651874E+01  0.17559768250E+03  0.19848558262E+03  0.92327587824E+02 0.  0.
        -11    1    4    4    0    0 -0.26534503280E+02  0.16302503179E+02  0.15372612496E+02  0.34729939377E+02  0.00000000000E+00 0.  1.
         11    1    4    4    0    0  0.25402129945E+02 -0.22328668366E+02  0.16022507000E+03  0.16375564325E+03  0.00000000000E+00 0. -1.
        -13    1    3    3    0    0 -0.38734617509E+02 -0.94364477572E+01  0.89481295348E+02  0.97960805208E+02  0.00000000000E+00 0.  1.
         13    1    3    3    0    0  0.33419400241E+02  0.37779957001E+02  0.23331106552E+03  0.23870114109E+03  0.00000000000E+00 0. -1.
          2    1    1    2  501    0  0.64475906020E+01 -0.22317344056E+02  0.29623039874E+02  0.37645182449E+02  0.00000000000E+00 0. -1.
<scales pt_clust_5="13000.00000" pt_clust_6="13000.00000" pt_clust_7="13000.00000" pt_clust_8="13000.00000" pt_clust_9="23.23005"></scales>
<clustering>
<clus scale="   23.230">  2  9  1 -1</clus>
<clus scale="   91.185">  7  8 -1 -1</clus>
<clus scale="   92.328">  5  6 -1 -1</clus>
<clus scale="   93.381">  1  7  2 -1</clus>
<clus scale="   23.230">  2  5  1 -1</clus>
</clustering>
</event>
<event>
 9    1  0.1426358E-005  0.9782377E+02  0.7546771E-02  0.1292805E+00
         -3   -1    0    0    0  501 -0.00000000000E+00  0.00000000000E+00  0.29831773963E+03  0.29831773963E+03  0.00000000000E+00 0.  1.
         21   -1    0    0  501  502  0.00000000000E+00 -0.00000000000E+00 -0.72228717466E+02  0.72228717466E+02  0.00000000000E+00 0. -1.
         23    2    1    2    0    0 -0.13732952569E+02  0.27712764134E+02  0.15282304480E+03  0.17326980869E+03  0.75570842913E+02 0.  0.
         23    2    1    2    0    0  0.20033449374E+02 -0.71730421826E+02  0.67363271359E+01  0.11725512125E+03  0.90314964694E+02 0.  0.
        -13    1    3    3    0    0 -0.40187969653E+02  0.34789078357E+02  0.11374063034E+03  0.12554793455E+03  0.00000000000E+00 0.  1.
         13    1    3    3    0    0  0.26455017084E+02 -0.70763142235E+01  0.39082414460E+02  0.47721874145E+02  0.00000000000E+00 0. -1.
        -13    1    4    4    0    0 -0.13109073102E+02  0.17463629102E+02  0.28690930031E+01  0.22024028552E+02  0.00000000000E+00 0.  1.
         13    1    4    4    0    0  0.33142522476E+02 -0.89194050928E+02  0.38672341327E+01  0.95231092700E+02  0.00000000000E+00 0. -1.
         -3    1    1    2    0  502 -0.63004968055E+01  0.44017657692E+02  0.66529650224E+02  0.80021527151E+02  0.00000000000E+00 0.  1.
<scales pt_clust_5="13000.00000" pt_clust_6="13000.00000" pt_clust_7="13000.00000" pt_clust_8="13000.00000" pt_clust_9="44.46631"></scales>
<clustering>
<clus scale="   44.466">  2  9  1 -1</clus>
<clus scale="   75.571">  5  6 -1 -1</clus>
<clus scale="   84.402">  1  5  2 -1</clus>
<clus scale="   90.315">  7  8 -1 -1</clus>
<clus scale="   44.466">  2  5  1 -1</clus>
</clustering>
</event>
<event>
 9    1  0.1426358E-005  0.1077791E+03  0.7546771E-02  0.1268057E+00
          2   -1    0    0  502    0 -0.00000000000E+00  0.00000000000E+00  0.26434584670E+03  0.26434584670E+03  0.00000000000E+00 0. -1.
         21   -1    0    0  501  502  0.00000000000E+00 -0.00000000000E+00 -0.69461196284E+02  0.69461196284E+02  0.00000000000E+00 0.  1.
         23    2    1    2    0    0  0.21895046334E+02  0.48522343510E+02  0.16184349328E+03  0.19435814078E+03  0.93530528156E+02 0.  0.
         23    2    1    2    0    0 -0.46919056069E+02 -0.35874516050E+02  0.38360968797E+02  0.11090999895E+03  0.85680133150E+02 0.  0.
        -11    1    3    3    0    0 -0.96505436943E+01  0.37403340950E+02  0.11449152641E+02  0.40289279020E+02  0.00000000000E+00 0.  1.
         11    1    3    3    0    0  0.31545590028E+02  0.11119002561E+02  0.15039434064E+03  0.15406886176E+03  0.00000000000E+00 0. -1.
        -11    1    4    4    0    0  0.23760307772E+02 -0.19980679897E+02  0.62486812481E+01  0.31667425091E+02  0.00000000000E+00 0.  1.
         11    1    4    4    0    0 -0.70679363841E+02 -0.15893836153E+02  0.32112287549E+02  0.79242573862E+02  0.00000000000E+00 0. -1.
          2    1    1    2  501    0  0.25024009735E+02 -0.12647827460E+02 -0.53198116594E+01  0.28538903251E+02  0.00000000000E+00 0. -1.
<scales pt_clust_5="13000.00000" pt_clust_6="13000.00000" pt_clust_7="13000.00000" pt_clust_8="13000.00000" pt_clust_9="28.03870"></scales>
<clustering>
<clus scale="   28.039">  2  9  1 -1</clus>
<clus scale="   85.680">  7  8 -1 -1</clus>
<clus scale="   93.531">  5  6 -1 -1</clus>
<clus scale="  101.042">  2  7  1 -1</clus>
<clus scale="   28.039">  2  5  1 -1</clus>
</clustering>
</event>
<event>
 9    1  0.1426358E-005  0.2401103E+03  0.7546771E-02  0.1136336E+00
         21   -1    0    0  501  502  0.00000000000E+00  0.00000000000E+00  0.80283798715E+02  0.80283798715E+02  0.00000000000E+00 0. -1.
          2   -1    0    0  502    0 -0.00000000000E+00 -0.00000000000E+00 -0.17440114091E+04  0.17440114091E+04  0.00000000000E+00 0. -1.
         23    2    1    2    0    0  0.29032751377E+02 -0.12719694751E+03 -0.65656266473E+03  0.67563967226E+03  0.91610424638E+02 0.  0.
         23    2    1    2    0    0 -0.34422349912E+02  0.31624845007E+03 -0.80643721909E+03  0.87286369630E+03  0.10174509142E+03 0.  0.
        -11    1    4    4    0    0  0.23977999919E+02  0.57962657157E+02 -0.95965708837E+02  0.11464742203E+03  0.00000000000E+00 0.  1.
         11    1    4    4    0    0 -0.58400349832E+02  0.25828579291E+03 -0.71047151026E+03  0.75821627427E+03  0.00000000000E+00 0. -1.
        -11    1    3    3    0    0 -0.13385609085E+02 -0.11065891686E+03 -0.40855126942E+03  0.42348401405E+03  0.00000000000E+00 0. -1.
         11    1    3    3    0    0  0.42418360462E+02 -0.16538030646E+02 -0.24801139532E+03  0.25215565821E+03  0.00000000000E+00 0.  1.
          2    1    1    2  501    0  0.53895985357E+01 -0.18905150257E+03 -0.20072772658E+03  0.27579183928E+03  0.00000000000E+00 0. -1.
<scales pt_clust_5="13000.00000" pt_clust_6="13000.00000" pt_clust_7="13000.00000" pt_clust_8="13000.00000" pt_clust_9="217.48766"></scales>
<clustering>
<clus scale="   91.610">  7  8 -1 -1</clus>
<clus scale="  101.745">  5  6 -1 -1</clus>
<clus scale="  159.419">  2  7  1 -1</clus>
<clus scale="  217.488">  1  9  2 -1</clus>
<clus scale="  217.488">  1  5  2 -1</clus>
</clustering>
</event>
<event>
 9    1  0.1426358E-005  0.1824944E+03  0.7546771E-02  0.1165528E+00
          1   -1    0    0  502    0 -0.00000000000E+00  0.00000000000E+00  0.52577039347E+03  0.52577039347E+03  0.00000000000E+00 0. -1.
         21   -1    0    0  501  502  0.00000000000E+00 -0.00000000000E+00 -0.12896301889E+03  0.12896301889E+03  0.00000000000E+00 0.  1.
         23    2    1    2    0    0  0.16132693429E+03 -0.31445895565E+01  0.39972286469E+03  0.44079428623E+03  0.92113875442E+02 0.  0.
         23    2    1    2    0    0 -0.14335700425E+03 -0.25332306555E+02  0.20438838748E+02  0.17296014769E+03  0.91129085012E+02 0.  0.
        -11    1    4    4    0    0 -0.71861178721E+02 -0.47821675342E+02 -0.18826628299E+02  0.88348081885E+02  0.00000000000E+00 0.  1.
         11    1    4    4    0    0 -0.71495825533E+02  0.22489368787E+02  0.39265467047E+02  0.84612065804E+02  0.00000000000E+00 0. -1.
        -11    1    3    3    0    0  0.15470096696E+03 -0.25024434703E+02  0.29977990708E+03  0.33827001670E+03  0.00000000000E+00 0.  1.
         11    1    3    3    0    0  0.66259673243E+01  0.21879845146E+02  0.99942957613E+02  0.10252426953E+03  0.00000000000E+00 0. -1.
          1    1    1    2  501    0 -0.17969930033E+02  0.28476896111E+02 -0.23354328857E+02  0.40978978439E+02  0.00000000000E+00 0. -1.
<scales pt_clust_5="13000.00000" pt_clust_6="13000.00000" pt_clust_7="13000.00000" pt_clust_8="13000.00000" pt_clust_9="33.67272"></scales>
<clustering>
<clus scale="   33.673">  2  9  1 -1</clus>
<clus scale="   91.129">  5  6 -1 -1</clus>
<clus scale="   92.114">  7  8 -1 -1</clus>
<clus scale="  181.999">  2  5  1 -1</clus>
<clus scale="   33.673">  2  5  1 -1</clus>
</clustering>
</event>
<event>
 9    1  0.1426358E-005  0.1079269E+03  0.7546771E-02  0.1264956E+00
         21   -1    0    0  501  502  0.00000000000E+00  0.00000000000E+00  0.87755745322E+03  0.87755745322E+03  0.00000000000E+00 0.  1.
          2   -1    0    0  502    0 -0.00000000000E+00 -0.00000000000E+00 -0.44602930612E+02  0.44602930612E+02  0.00000000000E+00 0. -1.
         23    2    1    2    0    0 -0.44365664998E+02 -0.73793532319E+01  0.61211819384E+02  0.11923764678E+03  0.91912798308E+02 0.  0.
         23    2    1    2    0    0  0.82675180160E+02  0.65860684338E+02  0.38615490216E+03  0.41104821968E+03  0.93124729689E+02 0.  0.
        -11    1    3    3    0    0  0.14570005699E+02 -0.34289099444E+02  0.26652637140E+02  0.45808192207E+02  0.00000000000E+00 0.  1.
         11    1    3    3    0    0 -0.58935670697E+02  0.26909746212E+02  0.34559182245E+02  0.73429454575E+02  0.00000000000E+00 0. -1.
        -13    1    4    4    0    0  0.44490393844E+02  0.98624140687E+01  0.48074287011E+02  0.66240466690E+02  0.00000000000E+00 0. -1.
         13    1    4    4    0    0  0.38184786316E+02  0.55998270270E+02  0.33808061515E+03  0.34480775299E+03  0.00000000000E+00 0.  1.
          2    1    1    2  501    0 -0.38309515162E+02 -0.58481331106E+02  0.38558780106E+03  0.39187451737E+03  0.00000000000E+00 0. -1.
<scales pt_clust_5="13000.00000" pt_clust_6="13000.00000" pt_clust_7="13000.00000" pt_clust_8="13000.00000" pt_clust_9="69.91198"></scales>
<clustering>
<clus scale="   69.912">  1  9  2 -1</clus>
<clus scale="   91.913">  5  6 -1 -1</clus>
<clus scale="   93.125">  7  8 -1 -1</clus>
<clus scale="  106.883">  2  5  1 -1</clus>
<clus scale="   69.912">  1  5  2 -1</clus>
</clustering>
</event>
<event>
 9    1  0.1426358E-005  0.9375238E+02  0.7546771E-02  0.1294032E+00
         -2   -1    0    0    0  501 -0.00000000000E+00  0.00000000000E+00  0.38006575388E+02  0.38006575388E+02  0.00000000000E+00 0.  1.
         21   -1    0    0  501  502  0.00000000000E+00 -0.00000000000E+00 -0.32169683537E+03  0.32169683537E+03  0.00000000000E+00 0.  1.
         23    2    1    2    0    0  0.19381554156E+02 -0.51581227390E+01 -0.87446131776E+02  0.12872049893E+03  0.92303250275E+02 0.  0.
         23    2    1    2    0    0 -0.96616867318E+01 -0.19165379730E+02 -0.16412597164E+03  0.18953795343E+03  0.92339814019E+02 0.  0.
        -11    1    3    3    0    0 -0.19633432125E+02  0.38311016889E+01 -0.86383342301E+02  0.88669221403E+02  0.00000000000E+00 0.  1.
         11    1    3    3    0    0  0.39014986281E+02 -0.89892244278E+01 -0.10627894754E+01  0.40051277530E+02  0.00000000000E+00 0. -1.
        -13    1    4    4    0    0 -0.34088513722E+01 -0.48298023789E+02 -0.42853271738E+02  0.64658504995E+02  0.00000000000E+00 0.  1.
         13    1    4    4    0    0 -0.62528353596E+01  0.29132644059E+02 -0.12127269990E+03  0.12487944844E+03  0.00000000000E+00 0. -1.
         -2    1    1    2    0  502 -0.97198674242E+01  0.24323502469E+02 -0.32118156563E+02  0.41444958392E+02  0.00000000000E+00 0.  1.
<scales pt_clust_5="13000.00000" pt_clust_6="13000.00000" pt_clust_7="13000.00000" pt_clust_8="13000.00000" pt_clust_9="26.19369"></scales>
<clustering>
<clus scale="   26.194">  2  9  1 -1</clus>
<clus scale="   92.303">  5  6 -1 -1</clus>
<clus scale="   92.340">  7  8 -1 -1</clus>
<clus scale="   93.716">  1  5  2 -1</clus>
<clus scale="   26.194">  2  5  1 -1</clus>
</clustering>
</event>
<event>
 9    1  0.1426358E-005  0.3364668E+03  0.7546771E-02  0.1068368E+00
         -1   -1    0    0    0  501 -0.00000000000E+00  0.00000000000E+00  0.20165335800E+04  0.20165335800E+04  0.00000000000E+00 0.  1.
         21   -1    0    0  501  502  0.00000000000E+00 -0.00000000000E+00 -0.14387945213E+03  0.14387945213E+03  0.00000000000E+00 0.  1.
         23    2    1    2    0    0  0.45714165464E+02  0.31473098067E+03  0.12713814157E+04  0.13137071301E+04  0.90941433091E+02 0.  0.
         23    2    1    2    0    0 -0.69846339928E+02 -0.32708180590E+03  0.67998551914E+03  0.76345561240E+03  0.92860900899E+02 0.  0.
        -11    1    3    3    0    0 -0.25184178114E+02  0.13038003063E+03  0.47692941487E+03  0.49507056263E+03  0.00000000000E+00 0.  1.
         11    1    3    3    0    0  0.70898343579E+02  0.18435095004E+03  0.79445200088E+03  0.81863656747E+03  0.00000000000E+00 0. -1.
        -13    1    4    4    0    0 -0.69645310784E+02 -0.30181951852E+03  0.66616965443E+03  0.73466148637E+03  0.00000000000E+00 0.  1.
         13    1    4    4    0    0 -0.20102914400E+00 -0.25262287374E+02  0.13815864712E+02  0.28794126030E+02  0.00000000000E+00 0. -1.
         -1    1    1    2    0  502  0.24132174463E+02  0.12350825222E+02 -0.78712807042E+02  0.83250289612E+02  0.00000000000E+00 0.  1.
<scales pt_clust_5="13000.00000" pt_clust_6="13000.00000" pt_clust_7="13000.00000" pt_clust_8="13000.00000" pt_clust_9="27.10913"></scales>
<clustering>
<clus scale="   27.109">  2  9  1 -1</clus>
<clus scale="   90.941">  5  6 -1 -1</clus>
<clus scale="   92.861">  7  8 -1 -1</clus>
<clus scale="  335.942">  1  5  2 -1</clus>
<clus scale="   27.109">  2  5  1 -1</clus>
</clustering>
</event>
<event>
 9    1  0.1426358E-005  0.9260888E+02  0.7546771E-02  0.1297051E+00
         -3   -1    0    0    0  501 -0.00000000000E+00  0.00000000000E+00  0.18275878867E+03  0.18275878867E+03  0.00000000000E+00 0.  1.
         21   -1    0    0  501  502  0.00000000000E+00 -0.00000000000E+00 -0.10499869398E+03  0.10499869398E+03  0.00000000000E+00 0. -1.
         23    2    1    2    0    0  0.24574097437E+01  0.47580863809E+01  0.10817167722E+03  0.14180124518E+03  0.91530339959E+02 0.  0.
         23    2    1    2    0    0 -0.24399253900E+02  0.13550417277E+02  0.95644488335E+01  0.96816346196E+02  0.92211652246E+02 0.  0.
        -11    1    4    4    0    0  0.20913453164E+02  0.25766062350E+02 -0.22397003493E+02  0.40036086943E+02  0.00000000000E+00 0. -1.
         11    1    4    4    0    0 -0.45312707064E+02 -0.12215645072E+02  0.31961452326E+02  0.56780259253E+02  0.00000000000E+00 0.  1.
        -11    1    3    3    0    0  0.39076805195E+02 -0.26296561254E+01  0.15928099776E+02  0.42280210005E+02  0.00000000000E+00 0.  1.
         11    1    3    3    0    0 -0.36619395451E+02  0.73877425063E+01  0.92243577439E+02  0.99521035170E+02  0.00000000000E+00 0. -1.
         -3    1    1    2    0  502  0.21941844157E+02 -0.18308503658E+02 -0.39976031358E+02  0.49139891274E+02  0.00000000000E+00 0.  1.
<scales pt_clust_5="13000.00000" pt_clust_6="13000.00000" pt_clust_7="13000.00000" pt_clust_8="13000.00000" pt_clust_9="28.57702"></scales>
<clustering>
<clus scale="   28.577">  2  9  1 -1</clus>
<clus scale="   91.530">  7  8 -1 -1</clus>
<clus scale="   91.931">  1  7  2 -1</clus>
<clus scale="   92.212">  5  6 -1 -1</clus>
<clus scale="   28.577">  2  5  1 -1</clus>
</clustering>
</event>
<event>
 9    1  0.1426358E-005  0.1097192E+03  0.7546771E-02  0.1261148E+00
         21   -1    0    0  501  502  0.00000000000E+00  0.00000000000E+00  0.77796512244E+02  0.77796512244E+02  0.00000000000E+00 0.  1.
         -2   -1    0    0    0  501 -0.00000000000E+00 -0.00000000000E+00 -0.62643434563E+03  0.62643434563E+03  0.00000000000E+00 0.  1.
         23    2    1    2    0    0  0.64960878167E+02 -0.30154637898E+02 -0.51167739378E+03  0.52490440212E+03  0.92637239663E+02 0.  0.
         23    2    1    2    0    0 -0.12950958662E+02 -0.10642782088E+02 -0.57397555804E+02  0.11013731700E+03  0.92491907982E+02 0.  0.
        -13    1    3    3    0    0  0.76469524871E+02 -0.46897102740E+02 -0.47064726887E+03  0.47911979522E+03  0.00000000000E+00 0.  1.
         13    1    3    3    0    0 -0.11508646704E+02  0.16742464841E+02 -0.41030124911E+02  0.45784606891E+02  0.00000000000E+00 0. -1.
        -13    1    4    4    0    0  0.83614714157E+01  0.36462816010E+02 -0.72407077039E+01  0.38103530068E+02  0.00000000000E+00 0.  1.
         13    1    4    4    0    0 -0.21312430078E+02 -0.47105598097E+02 -0.50156848100E+02  0.72033786928E+02  0.00000000000E+00 0. -1.
         -2    1    1    2    0  502 -0.52009919505E+02  0.40797419986E+02  0.20437116199E+02  0.69189138764E+02  0.00000000000E+00 0.  1.
<scales pt_clust_5="13000.00000" pt_clust_6="13000.00000" pt_clust_7="13000.00000" pt_clust_8="13000.00000" pt_clust_9="66.10190"></scales>
<clustering>
<clus scale="   66.102">  1  9  2 -1</clus>
<clus scale="   92.492">  7  8 -1 -1</clus>
<clus scale="   92.637">  5  6 -1 -1</clus>
<clus scale="  109.597">  1  7  2 -1</clus>
<clus scale="   66.102">  1  5  2 -1</clus>
</clustering>
</event>
<event>
 9    1  0.1426358E-005  0.9351795E+02  0.7546771E-02  0.1295506E+00
         21   -1    0    0  501  502  0.00000000000E+00  0.00000000000E+00  0.27432590146E+03  0.27432590146E+03  0.00000000000E+00 0. -1.
         -2   -1    0    0    0  501 -0.00000000000E+00 -0.00000000000E+00 -0.50995202859E+02  0.50995202859E+02  0.00000000000E+00 0.  1.
         23    2    1    2    0    0 -0.10935238633E+02 -0.12960212355E+02  0.45333579279E+02  0.10339005835E+03  0.91360955597E+02 0.  0.
         23    2    1    2    0    0 -0.15995571791E+01 -0.10028306261E+02  0.17084046317E+03  0.19478678651E+03  0.93017755468E+02 0.  0.
        -13    1    4    4    0    0  0.21202217712E+02  0.32468854911E+02  0.41746715043E+02  0.56978494118E+02  0.00000000000E+00 0.  1.
         13    1    4    4    0    0 -0.22801774891E+02 -0.42497161172E+02  0.12909374812E+03  0.13780829239E+03  0.00000000000E+00 0. -1.
        -13    1    3    3    0    0  0.20133400587E+02 -0.43448093540E+02  0.32972017942E+02  0.58139871161E+02  0.00000000000E+00 0. -1.
         13    1    3    3    0    0 -0.31068639220E+02  0.30487881185E+02  0.12361561337E+02  0.45250187191E+02  0.00000000000E+00 0.  1.
         -2    1    1    2    0  502  0.12534795812E+02  0.22988518616E+02  0.71566561516E+01  0.27144259457E+02  0.00000000000E+00 0.  1.
<scales pt_clust_5="13000.00000" pt_clust_6="13000.00000" pt_clust_7="13000.00000" pt_clust_8="13000.00000" pt_clust_9="26.18385"></scales>
<clustering>
<clus scale="   26.184">  1  9  2 -1</clus>
<clus scale="   91.361">  7  8 -1 -1</clus>
<clus scale="   91.870">  2  7  1 -1</clus>
<clus scale="   93.018">  5  6 -1 -1</clus>
<clus scale="   26.184">  1  5  2 -1</clus>
</clustering>
</event>
<event>
 9    1  0.1426358E-005  0.1935526E+03  0.7546771E-02  0.1155466E+00
         -1   -1    0    0    0  501 -0.00000000000E+00  0.00000000000E+00  0.62020140391E+03  0.62020140391E+03  0.00000000000E+00 0.  1.
         21   -1    0    0  501  502  0.00000000000E+00 -0.00000000000E+00 -0.41574043962E+03  0.41574043962E+03  0.00000000000E+00 0.  1.
         23    2    1    2    0    0 -0.61484348026E+02 -0.16335078681E+03  0.56624834436E+03  0.59956309583E+03  0.91514555059E+02 0.  0.
         23    2    1    2    0    0  0.74177516910E+02  0.10624435426E+03 -0.15362684689E+03  0.22015416827E+03  0.89869254448E+02 0.  0.
        -11    1    4    4    0    0  0.29430223220E+02  0.13658078919E+01 -0.79483554202E+00  0.29472618369E+02  0.00000000000E+00 0.  1.
         11    1    4    4    0    0  0.44747293689E+02  0.10487854637E+03 -0.15283201135E+03  0.19068154990E+03  0.00000000000E+00 0. -1.
        -13    1    3    3    0    0 -0.27258020807E+02 -0.15658285545E+03  0.41627678548E+03  0.44558675076E+03  0.00000000000E+00 0.  1.
         13    1    3    3    0    0 -0.34226327219E+02 -0.67679313604E+01  0.14997155888E+03  0.15397634508E+03  0.00000000000E+00 0. -1.
         -1    1    1    2    0  502 -0.12693168883E+02  0.57106432551E+02 -0.20816053318E+03  0.21622457943E+03  0.00000000000E+00 0.  1.
<scales pt_clust_5="13000.00000" pt_clust_6="13000.00000" pt_clust_7="13000.00000" pt_clust_8="13000.00000" pt_clust_9="58.50010"></scales>
<clustering>
<clus scale="   58.500">  2  9  1 -1</clus>
<clus scale="   89.869">  5  6 -1 -1</clus>
<clus scale="   91.515">  7  8 -1 -1</clus>
<clus scale="  192.780">  2  5  1 -1</clus>
<clus scale="   58.500">  2  5  1 -1</clus>
</clustering>
</event>
<event>
 9    1  0.1426358E-005  0.9769291E+02  0.7546771E-02  0.1285285E+00
         -2   -1    0    0    0  501 -0.00000000000E+00  0.00000000000E+00  0.10390362624E+04  0.10390362624E+04  0.00000000000E+00 0.  1.
         21   -1    0    0  501  502  0.00000000000E+00 -0.00000000000E+00 -0.17409310770E+02  0.17409310770E+02  0.00000000000E+00 0. -1.
         23    2    1    2    0    0 -0.12815325213E+01 -0.27777635538E+02  0.46887747386E+03  0.47848563108E+03  0.91264310104E+02 0.  0.
         23    2    1    2    0    0  0.58037893552E+02  0.27336470387E+02  0.34216677593E+03  0.35986236425E+03  0.91143507456E+02 0.  0.
        -11    1    4    4    0    0  0.54473680419E+02 -0.17600544940E+02  0.25913745333E+03  0.26538534391E+03  0.00000000000E+00 0.  1.
         11    1    4    4    0    0  0.35642131324E+01  0.44937015327E+02  0.83029322594E+02  0.94477020340E+02  0.00000000000E+00 0. -1.
        -13    1    3    3    0    0  0.14531613538E+01 -0.61515808390E+02  0.29723071857E+03  0.30353320481E+03  0.00000000000E+00 0.  1.
         13    1    3    3    0    0 -0.27346938751E+01  0.33738172852E+02  0.17164675529E+03  0.17495242627E+03  0.00000000000E+00 0. -1.
         -2    1    1    2    0  502 -0.56756361031E+02  0.44116515002E+00  0.21058270183E+03  0.21809757783E+03  0.00000000000E+00 0.  1.
<scales pt_clust_5="13000.00000" pt_clust_6="13000.00000" pt_clust_7="13000.00000" pt_clust_8="13000.00000" pt_clust_9="56.75808"></scales>
<clustering>
<clus scale="   56.758">  2  9  1 -1</clus>
<clus scale="   91.144">  5  6 -1 -1</clus>
<clus scale="   91.264">  7  8 -1 -1</clus>
<clus scale="   97.580">  2  5  1 -1</clus>
<clus scale="   56.758">  2  5  1 -1</clus>
</clustering>
</event>
<event>
 9    1  0.1426358E-005  0.1817969E+03  0.7546771E-02  0.1166177E+00
          2   -1    0    0  502    0 -0.00000000000E+00  0.00000000000E+00  0.37372045157E+03  0.37372045157E+03  0.00000000000E+00 0. -1.
         21   -1    0    0  501  502  0.00000000000E+00 -0.00000000000E+00 -0.12809919943E+03  0.12809919943E+03  0.00000000000E+00 0. -1.
         23    2    1    2    0    0 -0.58502589963E+01  0.15802491423E+03  0.21928320489E+03  0.28590997858E+03  0.93023077012E+02 0.  0.
         23    2    1    2    0    0  0.31874671327E+02 -0.15029394403E+03  0.42730323721E+02  0.18419619475E+03  0.92185103526E+02 0.  0.
        -11    1    4    4    0    0  0.77213483092E+01 -0.14453798356E+03  0.12802259216E+02  0.14530913857E+03  0.00000000000E+00 0. -1.
         11    1    4    4    0    0  0.24153323018E+02 -0.57559604732E+01  0.29928064504E+02  0.38887056185E+02  0.00000000000E+00 0.  1.
        -13    1    3    3    0    0 -0.11718025504E+02  0.10984297353E+03  0.74585486630E+02  0.13328835572E+03  0.00000000000E+00 0. -1.
         13    1    3    3    0    0  0.58677665082E+01  0.48181940698E+02  0.14469771826E+03  0.15262162286E+03  0.00000000000E+00 0.  1.
          2    1    1    2  501    0 -0.26024412331E+02 -0.77309701992E+01 -0.16392276473E+02  0.31713477661E+02  0.00000000000E+00 0. -1.
<scales pt_clust_5="13000.00000" pt_clust_6="13000.00000" pt_clust_7="13000.00000" pt_clust_8="13000.00000" pt_clust_9="27.14844"></scales>
<clustering>
<clus scale="   27.148">  2  9  1 -1</clus>
<clus scale="   92.185">  5  6 -1 -1</clus>
<clus scale="   93.023">  7  8 -1 -1</clus>
<clus scale="  181.370">  2  5  1 -1</clus>
<clus scale="   27.148">  2  5  1 -1</clus>
</clustering>
</event>
<event>
 9    1  0.1426358E-005  0.1066805E+03  0.7546771E-02  0.1273849E+00
         21   -1    0    0  501  502  0.00000000000E+00  0.00000000000E+00  0.48794135854E+02  0.48794135854E+02  0.00000000000E+00 0. -1.
         -1   -1    0    0    0  501 -0.00000000000E+00 -0.00000000000E+00 -0.36202943930E+03  0.36202943930E+03  0.00000000000E+00 0.  1.
         23    2    1    2    0    0  0.12570598214E+02  0.22221740828E+02 -0.20246994971E+03  0.22955896447E+03  0.10512569587E+03 0.  0.
         23    2    1    2    0    0  0.27241428263E+02 -0.11338400575E+02 -0.99930046965E+02  0.13859321018E+03  0.91386043141E+02 0.  0.
        -13    1    3    3    0    0  0.54497323295E+02 -0.98531822247E+01 -0.10536019043E+03  0.11902862334E+03  0.00000000000E+00 0. -1.
         13    1    3    3    0    0 -0.41926725081E+02  0.32074923053E+02 -0.97109759273E+02  0.11053034113E+03  0.00000000000E+00 0.  1.
        -13    1    4    4    0    0  0.48893157178E+02  0.46897545826E+01 -0.17940421793E+02  0.52291427127E+02  0.00000000000E+00 0. -1.
         13    1    4    4    0    0 -0.21651728915E+02 -0.16028155158E+02 -0.81989625172E+02  0.86301783056E+02  0.00000000000E+00 0.  1.
         -1    1    1    2    0  502 -0.39812026477E+02 -0.10883340253E+02 -0.10835306771E+02  0.42671400494E+02  0.00000000000E+00 0.  1.
<scales pt_clust_5="13000.00000" pt_clust_6="13000.00000" pt_clust_7="13000.00000" pt_clust_8="13000.00000" pt_clust_9="41.27281"></scales>
<clustering>
<clus scale="   41.273">  1  9  2 -1</clus>
<clus scale="   91.386">  7  8 -1 -1</clus>
<clus scale="   93.170">  1  7  2 -1</clus>
<clus scale="  105.126">  5  6 -1 -1</clus>
<clus scale="   41.273">  1  5  2 -1</clus>
</clustering>
</event>
<event>
 9    1  0.1426358E-005  0.1415373E+03  0.7546771E-02  0.1211275E+00
          3   -1    0    0  502    0 -0.00000000000E+00  0.00000000000E+00  0.32140173078E+03  0.32140173078E+03  0.00000000000E+00 0. -1.
         21   -1    0    0  501  502  0.00000000000E+00 -0.00000000000E+00 -0.18042952913E+03  0.18042952913E+03  0.00000000000E+00 0. -1.
         23    2    1    2    0    0 -0.11165427802E+03 -0.24605710921E+02  0.24401266868E+03  0.28443046397E+03  0.91029597105E+02 0.  0.
         23    2    1    2    0    0  0.87894481349E+02  0.20988897797E+01 -0.19977162558E+02  0.12812259319E+03  0.91030031704E+02 0.  0.
        -11    1    3    3    0    0 -0.67383595608E+02 -0.59169716025E+02  0.14098408982E+03  0.16708715640E+03  0.00000000000E+00 0. -1.
         11    1    3    3    0    0 -0.44270682408E+02  0.34564005104E+02  0.10302857885E+03  0.11734330757E+03  0.00000000000E+00 0.  1.
        -11    1    4    4    0    0  0.14497219052E+02  0.38903727543E+02 -0.19840509926E+02  0.46014293552E+02  0.00000000000E+00 0.  1.
         11    1    4    4    0    0  0.73397262297E+02 -0.36804837764E+02 -0.13665263185E+00  0.82108299638E+02  0.00000000000E+00 0. -1.
          3    1    1    2  501    0  0.23759796667E+02  0.22506821141E+02 -0.83063304473E+02  0.89278202746E+02  0.00000000000E+00 0. -1.
<scales pt_clust_5="13000.00000" pt_clust_6="13000.00000" pt_clust_7="13000.00000" pt_clust_8="13000.00000" pt_clust_9="32.72743"></scales>
<clustering>
<clus scale="   32.727">  2  9  1 -1</clus>
<clus scale="   91.030">  5  6 -1 -1</clus>
<clus scale="   91.030">  7  8 -1 -1</clus>
<clus scale="  141.537">  1  5  2 -1</clus>
<clus scale="   32.727">  2  5  1 -1</clus>
</clustering>
</event>
<event>
 9    1  0.1426358E-005  0.1389963E+03  0.7546771E-02  0.1214902E+00
         21   -1    0    0  501  502  0.00000000000E+00  0.00000000000E+00  0.51167952619E+03  0.51167952619E+03  0.00000000000E+00 0. -1.
          3   -1    0    0  502    0 -0.00000000000E+00 -0.00000000000E+00 -0.15845800539E+03  0.15845800539E+03  0.00000000000E+00 0. -1.
         23    2    1    2    0    0  0.85285340529E+02 -0.17985560467E+02 -0.50351546805E+02  0.13787530380E+03  0.94219167036E+02 0.  0.
         23    2    1    2    0    0 -0.12743020206E+03  0.10060587494E+03  0.96491339595E+02  0.21147960139E+03  0.95147489288E+02 0.  0.
        -11    1    4    4    0    0 -0.35189784264E+02 -0.14521875019E+02  0.34801565437E+02  0.51578626654E+02  0.00000000000E+00 0. -1.
         11    1    4    4    0    0 -0.92240417794E+02  0.11512774996E+03  0.61689774158E+02  0.15990097474E+03  0.00000000000E+00 0.  1.
        -13    1    3    3    0    0  0.63816908735E+01  0.23404168168E+02 -0.41846889120E+02  0.48369858332E+02  0.00000000000E+00 0. -1.
         13    1    3    3    0    0  0.78903649656E+02 -0.41389728635E+02 -0.85046576853E+01  0.89505445464E+02  0.00000000000E+00 0.  1.
          3    1    1    2  501    0  0.42144861529E+02 -0.82620314474E+02  0.30708172801E+03  0.32078262639E+03  0.00000000000E+00 0. -1.
<scales pt_clust_5="13000.00000" pt_clust_6="13000.00000" pt_clust_7="13000.00000" pt_clust_8="13000.00000" pt_clust_9="92.74862"></scales>
<clustering>
<clus scale="   92.749">  1  9  2 -1</clus>
<clus scale="   94.219">  7  8 -1 -1</clus>
<clus scale="   95.147">  5  6 -1 -1</clus>
<clus scale="  138.362">  2  7  1 -1</clus>
<clus scale="   92.749">  1  5  2 -1</clus>
</clustering>
</event>
<event>
 9    1  0.1426358E-005  0.1054180E+03  0.7546771E-02  0.1272038E+00
         -3   -1    0    0    0  501 -0.00000000000E+00  0.00000000000E+00  0.52549401360E+02  0.52549401360E+02  0.00000000000E+00 0.  1.
         21   -1    0    0  501  502  0.00000000000E+00 -0.00000000000E+00 -0.39533738563E+03  0.39533738563E+03  0.00000000000E+00 0. -1.
         23    2    1    2    0    0 -0.33626529346E+02 -0.32189831671E+02 -0.43785109996E+02  0.11253008402E+03  0.92622649568E+02 0.  0.
         23    2    1    2    0    0  0.23248592448E+02  0.38925252467E+01 -0.13577210741E+03  0.16936657563E+03  0.98464831211E+02 0.  0.
        -13    1    3    3    0    0 -0.31942739926E+01  0.30679238118E+02 -0.26280836500E+02  0.40522850405E+02  0.00000000000E+00 0. -1.
         13    1    3    3    0    0 -0.30432255354E+02 -0.62869069788E+02 -0.17504273496E+02  0.72007233613E+02  0.00000000000E+00 0.  1.
        -13    1    4    4    0    0  0.23887017847E+02 -0.45281078268E+02 -0.58126660993E+02  0.77457565085E+02  0.00000000000E+00 0.  1.
         13    1    4    4    0    0 -0.63842539864E+00  0.49173603514E+02 -0.77645446417E+02  0.91909010542E+02  0.00000000000E+00 0. -1.
         -3    1    1    2    0  502  0.10377936898E+02  0.28297306424E+02 -0.16323076686E+03  0.16599012734E+03  0.00000000000E+00 0.  1.
<scales pt_clust_5="13000.00000" pt_clust_6="13000.00000" pt_clust_7="13000.00000" pt_clust_8="13000.00000" pt_clust_9="30.14032"></scales>
<clustering>
<clus scale="   30.140">  2  9  1 -1</clus>
<clus scale="   92.623">  5  6 -1 -1</clus>
<clus scale="   98.465">  7  8 -1 -1</clus>
<clus scale="   99.983">  1  5  2 -1</clus>
<clus scale="   30.140">  2  5  1 -1</clus>
</clustering>
</event>
<event>
 9    1  0.1426358E-005  0.2716630E+03  0.7546771E-02  0.1100629E+00
         21   -1    0    0  501  502  0.00000000000E+00  0.00000000000E+00  0.94361403386E+03  0.94361403386E+03  0.00000000000E+00 0. -1.
         -2   -1    0    0    0  501 -0.00000000000E+00 -0.00000000000E+00 -0.10662596213E+03  0.10662596213E+03  0.00000000000E+00 0.  1.
         23    2    1    2    0    0 -0.24917593769E+03  0.27911097755E+02  0.32449457100E+03  0.42158244849E+03  0.97812867082E+02 0.  0.
         23    2    1    2    0    0  0.25834734759E+03 -0.20415270228E+01  0.52955871080E+03  0.59633772627E+03  0.91862591661E+02 0.  0.
        -13    1    4    4    0    0  0.22248445400E+02 -0.50118390642E+01  0.86102162251E+01  0.24377195839E+02  0.00000000000E+00 0.  1.
         13    1    4    4    0    0  0.23609890219E+03  0.29703120414E+01  0.52094849457E+03  0.57196053043E+03  0.00000000000E+00 0. -1.
        -13    1    3    3    0    0 -0.17055671200E+03  0.55847574856E+02  0.17665806001E+03  0.25182655498E+03  0.00000000000E+00 0.  1.
         13    1    3    3    0    0 -0.78619225683E+02 -0.27936477100E+02  0.14783651099E+03  0.16975589351E+03  0.00000000000E+00 0. -1.
         -2    1    1    2    0  502 -0.91714099066E+01 -0.25869570733E+02 -0.17065210070E+02  0.32319821230E+02  0.00000000000E+00 0.  1.
<scales pt_clust_5="13000.00000" pt_clust_6="13000.00000" pt_clust_7="13000.00000" pt_clust_8="13000.00000" pt_clust_9="27.44723"></scales>
<clustering>
<clus scale="   27.447">  1  9  2 -1</clus>
<clus scale="   91.863">  5  6 -1 -1</clus>
<clus scale="   97.813">  7  8 -1 -1</clus>
<clus scale="  269.578">  1  5  2 -1</clus>
<clus scale="   27.447">  1  5  2 -1</clus>
</clustering>
</event>
<event>
 9    1  0.1426358E-005  0.9320877E+02  0.7546771E-02  0.1297493E+00
         -1   -1    0    0    0  501 -0.00000000000E+00  0.00000000000E+00  0.92522679085E+02  0.92522679085E+02  0.00000000000E+00 0.  1.
         21   -1    0    0  501  502  0.00000000000E+00 -0.00000000000E+00 -0.13805668350E+03  0.13805668350E+03  0.00000000000E+00 0. -1.
         23    2    1    2    0    0 -0.18286387599E+01 -0.24011181975E+02  0.22963007968E+02  0.97517075557E+02  0.91664603369E+02 0.  0.
         23    2    1    2    0    0 -0.43199694731E+01  0.41980794793E+01 -0.37315411753E+02  0.95610229253E+02  0.87821352619E+02 0.  0.
        -11    1    3    3    0    0  0.13616428382E+02 -0.54684361222E+02  0.27796060079E+02  0.62836354446E+02  0.00000000000E+00 0.  1.
         11    1    3    3    0    0 -0.15445067142E+02  0.30673179247E+02 -0.48330521104E+01  0.34680721112E+02  0.00000000000E+00 0. -1.
        -11    1    4    4    0    0 -0.11806486998E+02 -0.36547118189E+02  0.20514357647E+01  0.38461583064E+02  0.00000000000E+00 0.  1.
         11    1    4    4    0    0  0.74865175251E+01  0.40745197668E+02 -0.39366847518E+02  0.57148646188E+02  0.00000000000E+00 0. -1.
         -1    1    1    2    0  502  0.61486082330E+01  0.19813102495E+02 -0.31181600628E+02  0.37452057773E+02  0.00000000000E+00 0.  1.
<scales pt_clust_5="13000.00000" pt_clust_6="13000.00000" pt_clust_7="13000.00000" pt_clust_8="13000.00000" pt_clust_9="20.74523"></scales>
<clustering>
<clus scale="   20.745">  2  9  1 -1</clus>
<clus scale="   87.821">  7  8 -1 -1</clus>
<clus scale="   89.432">  2  7  1 -1</clus>
<clus scale="   91.665">  5  6 -1 -1</clus>
<clus scale="   20.745">  2  5  1 -1</clus>
</clustering>
</event>
<event>
 9    1  0.1426358E-005  0.1207541E+03  0.7546771E-02  0.1242502E+00
         21   -1    0    0  501  502  0.00000000000E+00  0.00000000000E+00  0.99328629871E+02  0.99328629871E+02  0.00000000000E+00 0. -1.
         -4   -1    0    0    0  501 -0.00000000000E+00 -0.00000000000E+00 -0.19336160845E+03  0.19336160845E+03  0.00000000000E+00 0.  1.
         23    2    1    2    0    0  0.14625894392E+02  0.69776604591E+02 -0.61287682928E+02  0.12981476910E+03  0.89515377797E+02 0.  0.
         23    2    1    2    0    0 -0.38076838030E+02 -0.81548004263E+02 -0.41924355702E+02  0.13507676869E+03  0.91586894512E+02 0.  0.
        -11    1    3    3    0    0 -0.27659539956E+02  0.57699170407E+02 -0.14508950682E+02  0.65610624644E+02  0.00000000000E+00 0. -1.
         11    1    3    3    0    0  0.42285434348E+02  0.12077434184E+02 -0.46778732246E+02  0.64204144454E+02  0.00000000000E+00 0.  1.
        -13    1    4    4    0    0 -0.59257784931E+02 -0.21846518478E+02 -0.93503818662E+01  0.63845008306E+02  0.00000000000E+00 0. -1.
         13    1    4    4    0    0  0.21180946901E+02 -0.59701485785E+02 -0.32573973836E+02  0.71231760389E+02  0.00000000000E+00 0.  1.
         -4    1    1    2    0  502  0.23450943638E+02  0.11771399672E+02  0.91790600488E+01  0.27798700530E+02  0.00000000000E+00 0.  1.
<scales pt_clust_5="13000.00000" pt_clust_6="13000.00000" pt_clust_7="13000.00000" pt_clust_8="13000.00000" pt_clust_9="26.23952"></scales>
<clustering>
<clus scale="   26.240">  1  9  2 -1</clus>
<clus scale="   89.515">  5  6 -1 -1</clus>
<clus scale="   91.587">  7  8 -1 -1</clus>
<clus scale="  119.191">  2  5  1 -1</clus>
<clus scale="   26.240">  1  5  2 -1</clus>
</clustering>
</event>
<event>
 9    1  0.1426358E-005  0.9530633E+02  0.7546771E-02  0.1292069E+00
         21   -1    0    0  501  502  0.00000000000E+00  0.00000000000E+00  0.69381486509E+02  0.69381486509E+02  0.00000000000E+00 0.  1.
          3   -1    0    0  502    0 -0.00000000000E+00 -0.00000000000E+00 -0.21787767649E+03  0.21787767649E+03  0.00000000000E+00 0. -1.
         23    2    1    2    0    0 -0.30328382196E+01  0.20916500730E+02 -0.89409104552E+02  0.13136517601E+03  0.93894213782E+02 0.  0.
         23    2    1    2    0    0  0.23567571182E+02  0.30425497707E+01 -0.62252386072E+01  0.94330310941E+02  0.91075608403E+02 0.  0.
        -11    1    4    4    0    0 -0.20752571766E+02 -0.23949368279E+02 -0.23702812896E+02  0.39573536803E+02  0.00000000000E+00 0.  1.
         11    1    4    4    0    0  0.44320142949E+02  0.26991918050E+02  0.17477574289E+02  0.54756774138E+02  0.00000000000E+00 0. -1.
        -13    1    3    3    0    0 -0.49393025633E+01 -0.28425118259E+02  0.42557207603E+00  0.28854205403E+02  0.00000000000E+00 0.  1.
         13    1    3    3    0    0  0.19064643437E+01  0.49341618988E+02 -0.89834676628E+02  0.10251097061E+03  0.00000000000E+00 0. -1.
          3    1    1    2  501    0 -0.20534732963E+02 -0.23959050500E+02 -0.52861846818E+02  0.61563676041E+02  0.00000000000E+00 0. -1.
<scales pt_clust_5="13000.00000" pt_clust_6="13000.00000" pt_clust_7="13000.00000" pt_clust_8="13000.00000" pt_clust_9="31.55491"></scales>
<clustering>
<clus scale="   31.555">  1  9  2 -1</clus>
<clus scale="   91.076">  5  6 -1 -1</clus>
<clus scale="   92.531">  1  5  2 -1</clus>
<clus scale="   93.894">  7  8 -1 -1</clus>
<clus scale="   31.555">  1  5  2 -1</clus>
</clustering>
</event>
<event>
 9    1  0.1426358E-005  0.9799150E+02  0.7546771E-02  0.1285401E+00
         21   -1    0    0  501  502  0.00000000000E+00  0.00000000000E+00  0.12360156001E+03  0.12360156001E+03  0.00000000000E+00 0.  1.
          1   -1    0    0  502    0 -0.00000000000E+00 -0.00000000000E+00 -0.22256444309E+03  0.22256444309E+03  0.00000000000E+00 0. -1.
         23    2    1    2    0    0  0.30424493787E+02 -0.39799267304E+02 -0.50839882240E+02  0.11544319224E+03  0.90734808696E+02 0.  0.
         23    2    1    2    0    0 -0.36617256024E+02 -0.58763192078E+02 -0.66519482450E+02  0.13026715278E+03  0.88038363039E+02 0.  0.
        -11    1    3    3    0    0 -0.93635702412E+01 -0.30846481727E+02  0.16882078424E+02  0.36389372824E+02  0.00000000000E+00 0.  1.
         11    1    3    3    0    0  0.39788064028E+02 -0.89527855773E+01 -0.67721960664E+02  0.79053819420E+02  0.00000000000E+00 0. -1.
        -11    1    4    4    0    0 -0.54927603529E+02 -0.50068491686E+01 -0.34880372504E+02  0.65259103228E+02  0.00000000000E+00 0.  1.
         11    1    4    4    0    0  0.18310347505E+02 -0.53756342910E+02 -0.31639109946E+02  0.65008049555E+02  0.00000000000E+00 0. -1.
          1    1    1    2  501    0  0.61927622376E+01  0.98562459382E+02  0.18396481605E+02  0.10045565807E+03  0.00000000000E+00 0. -1.
<scales pt_clust_5="13000.00000" pt_clust_6="13000.00000" pt_clust_7="13000.00000" pt_clust_8="13000.00000" pt_clust_9="98.75682"></scales>
<clustering>
<clus scale="   88.038">  7  8 -1 -1</clus>
<clus scale="   90.735">  5  6 -1 -1</clus>
<clus scale="   98.757">  1  9  2 -1</clus>
<clus scale="   98.757">  1  7  2 -1</clus>
<clus scale="   97.992">  1  5  2 -1</clus>
</clustering>
</event>
<event>
 9    1  0.1426358E-005  0.1312012E+03  0.7546771E-02  0.1226262E+00
         21   -1    0    0  501  502  0.00000000000E+00  0.00000000000E+00  0.70965995932E+02  0.70965995932E+02  0.00000000000E+00 0. -1.
          1   -1    0    0  502    0 -0.00000000000E+00 -0.00000000000E+00 -0.61006492110E+03  0.61006492110E+03  0.00000000000E+00 0. -1.
         23    2    1    2    0    0  0.23565448827E+02  0.63666224526E+02 -0.21354207764E+03  0.24070549840E+03  0.87921553193E+02 0.  0.
         23    2    1    2    0    0  0.91152721761E+01 -0.14633183216E+03 -0.30320656373E+03  0.34866753628E+03  0.90214950418E+02 0.  0.
        -11    1    3    3    0    0 -0.31494686592E+02  0.10247823897E+02 -0.48804037082E+02  0.58981075047E+02  0.00000000000E+00 0. -1.
         11    1    3    3    0    0  0.55060135419E+02  0.53418400630E+02 -0.16473804056E+03  0.18172442336E+03  0.00000000000E+00 0.  1.
        -11    1    4    4    0    0  0.38943483811E+02 -0.53278023471E+02 -0.72051048990E+02  0.97706173689E+02  0.00000000000E+00 0.  1.
         11    1    4    4    0    0 -0.29828211635E+02 -0.93053808689E+02 -0.23115551474E+03  0.25096136259E+03  0.00000000000E+00 0. -1.
          1    1    1    2  501    0 -0.32680721003E+02  0.82665607633E+02 -0.22350283806E+02  0.91657882350E+02  0.00000000000E+00 0. -1.
<scales pt_clust_5="13000.00000" pt_clust_6="13000.00000" pt_clust_7="13000.00000" pt_clust_8="13000.00000" pt_clust_9="88.89113"></scales>
<clustering>
<clus scale="   87.922">  5  6 -1 -1</clus>
<clus scale="   88.891">  1  9  2 -1</clus>
<clus scale="   90.215">  7  8 -1 -1</clus>
<clus scale="  129.635">  2  5  1 -1</clus>
<clus scale="   88.891">  1  5  2 -1</clus>
</clustering>
</event>
<event>
 9    1  0.1426358E-005  0.1031556E+03  0.7546771E-02  0.1276791E+00
         21   -1    0    0  501  502  0.00000000000E+00  0.00000000000E+00  0.40177435571E+03  0.40177435571E+03  0.00000000000E+00 0. -1.
         -2   -1    0    0    0  501 -0.00000000000E+00 -0.00000000000E+00 -0.51688570023E+02  0.51688570023E+02  0.00000000000E+00 0.  1.
         23    2    1    2    0    0  0.35300234647E+02  0.83762893320E+01  0.34414183450E+02  0.10022249877E+03  0.86855883215E+02 0.  0.
         23    2    1    2    0    0 -0.63399015451E+02 -0.35418057715E+02  0.21631384759E+03  0.24650354426E+03  0.93265442157E+02 0.  0.
        -11    1    3    3    0    0 -0.34475940400E+01  0.27801879625E+02 -0.17160308669E+02  0.32852802148E+02  0.00000000000E+00 0.  1.
         11    1    3    3    0    0  0.38747828687E+02 -0.19425590293E+02  0.51574492119E+02  0.67369696627E+02  0.00000000000E+00 0. -1.
        -11    1    4    4    0    0 -0.41852717413E+01  0.29296767974E+02  0.42207055919E+02  0.51548546853E+02  0.00000000000E+00 0.  1.
         11    1    4    4    0    0 -0.59213743709E+02 -0.64714825688E+02  0.17410679167E+03  0.19495499741E+03  0.00000000000E+00 0. -1.
         -2    1    1    2    0  502  0.28098780803E+02  0.27041768383E+02  0.99357754646E+02  0.10673688270E+03  0.00000000000E+00 0.  1.
<scales pt_clust_5="13000.00000" pt_clust_6="13000.00000" pt_clust_7="13000.00000" pt_clust_8="13000.00000" pt_clust_9="38.99742"></scales>
<clustering>
<clus scale="   38.997">  1  9  2 -1</clus>
<clus scale="   86.856">  5  6 -1 -1</clus>
<clus scale="   93.265">  7  8 -1 -1</clus>
<clus scale="   97.399">  2  5  1 -1</clus>
<clus scale="   38.997">  1  5  2 -1</clus>
</clustering>
</event>
<event>
 9    1  0.1426358E-005  0.1137851E+03  0.7546771E-02  0.1253882E+00
         21   -1    0    0  501  502  0.00000000000E+00  0.00000000000E+00  0.22936874937E+03  0.22936874937E+03  0.00000000000E+00 0.  1.
          2   -1    0    0  502    0 -0.00000000000E+00 -0.00000000000E+00 -0.97732850024E+02  0.97732850024E+02  0.00000000000E+00 0. -1.
         23    2    1    2    0    0  0.48810339908E+02 -0.59683766983E+02  0.80298155385E+01  0.11921863819E+03  0.90575959458E+02 0.  0.
         23    2    1    2    0    0  0.34793945596E+01  0.67356257700E+02  0.69674220573E+02  0.13237316504E+03  0.90106526802E+02 0.  0.
        -11    1    4    4    0    0  0.29252357245E+02 -0.10072269742E+02  0.18377344046E+02  0.35984410463E+02  0.00000000000E+00 0.  1.
         11    1    4    4    0    0 -0.25772962686E+02  0.77428527442E+02  0.51296876526E+02  0.96388754576E+02  0.00000000000E+00 0. -1.
        -11    1    3    3    0    0  0.45391256006E+02 -0.83407221912E+02  0.55169640727E+01  0.95118703111E+02  0.00000000000E+00 0.  1.
         11    1    3    3    0    0  0.34190839017E+01  0.23723454928E+02  0.25128514658E+01  0.24099935082E+02  0.00000000000E+00 0. -1.
          2    1    1    2  501    0 -0.52289734468E+02 -0.76724907167E+01  0.53931863235E+02  0.75509796163E+02  0.00000000000E+00 0. -1.
<scales pt_clust_5="13000.00000" pt_clust_6="13000.00000" pt_clust_7="13000.00000" pt_clust_8="13000.00000" pt_clust_9="52.84963"></scales>
<clustering>
<clus scale="   52.850">  1  9  2 -1</clus>
<clus scale="   90.107">  5  6 -1 -1</clus>
<clus scale="   90.576">  7  8 -1 -1</clus>
<clus scale="  113.412">  1  5  2 -1</clus>
<clus scale="   52.850">  1  5  2 -1</clus>
</clustering>
</event>
<event>
 9    1  0.1426358E-005  0.2150919E+03  0.7546771E-02  0.1147040E+00
         21   -1    0    0  501  502  0.00000000000E+00  0.00000000000E+00  0.77583685505E+03  0.77583685505E+03  0.00000000000E+00 0. -1.
          2   -1    0    0  502    0 -0.00000000000E+00 -0.00000000000E+00 -0.37919526830E+03  0.37919526830E+03  0.00000000000E+00 0. -1.
         23    2    1    2    0    0 -0.12576699796E+03  0.72712404780E+02 -0.40658879023E+02  0.17619275271E+03  0.91029171577E+02 0.  0.
         23    2    1    2    0    0 -0.18220170816E+02 -0.20688173221E+03 -0.20575596521E+03  0.30634008691E+03  0.91524345846E+02 0.  0.
        -13    1    3    3    0    0 -0.13623276248E+03  0.48305652589E+02 -0.38303617674E+02  0.14953250072E+03  0.00000000000E+00 0. -1.
         13    1    3    3    0    0  0.10465764525E+02  0.24406752191E+02 -0.23552613486E+01  0.26660251980E+02  0.00000000000E+00 0.  1.
        -13    1    4    4    0    0 -0.62602213503E+01 -0.15805554766E+03 -0.20109992393E+03  0.25585528316E+03  0.00000000000E+00 0. -1.
         13    1    4    4    0    0 -0.11959949465E+02 -0.48826184550E+02 -0.46560412758E+01  0.50484803747E+02  0.00000000000E+00 0.  1.
          2    1    1    2  501    0  0.14398716877E+03  0.13416932743E+03  0.64305643098E+03  0.67249928373E+03  0.00000000000E+00 0. -1.
<scales pt_clust_5="13000.00000" pt_clust_6="13000.00000" pt_clust_7="13000.00000" pt_clust_8="13000.00000" pt_clust_9="194.64790"></scales>
<clustering>
<clus scale="   91.029">  5  6 -1 -1</clus>
<clus scale="   91.524">  7  8 -1 -1</clus>
<clus scale="  171.437">  2  5  1 -1</clus>
<clus scale="  194.648">  1  9  2 -1</clus>
<clus scale="  194.648">  1  5  2 -1</clus>
</clustering>
</event>
<event>
 9    1  0.1426358E-005  0.9732913E+02  0.7546771E-02  0.1286449E+00
          3   -1    0    0  502    0 -0.00000000000E+00  0.00000000000E+00  0.55737639686E+02  0.55737639686E+02  0.00000000000E+00 0. -1.
         21   -1    0    0  501  502  0.00000000000E+00 -0.00000000000E+00 -0.34550963692E+03  0.34550963692E+03  0.00000000000E+00 0. -1.
         23    2    1    2    0    0 -0.26337100459E+02 -0.40402231101E+02 -0.54797534003E+02  0.11724083542E+03  0.91742360007E+02 0.  0.
         23    2    1    2    0    0  0.12633698335E+02 -0.15050351018E+02 -0.18915013275E+03  0.21077638344E+03  0.90899877311E+02 0.  0.
        -11    1    3    3    0    0 -0.96110128866E+01 -0.65053370898E+02 -0.14861590816E+02  0.67417946539E+02  0.00000000000E+00 0.  1.
         11    1    3    3    0    0 -0.16726087572E+02  0.24651139797E+02 -0.39935943187E+02  0.49822888886E+02  0.00000000000E+00 0. -1.
        -13    1    4    4    0    0  0.33334496191E+02  0.16125163551E+01 -0.17938811198E+03  0.18246611621E+03  0.00000000000E+00 0.  1.
         13    1    4    4    0    0 -0.20700797856E+02 -0.16662867373E+02 -0.97620207752E+01  0.28310267229E+02  0.00000000000E+00 0. -1.
          3    1    1    2  501    0  0.13703402124E+02  0.55452582119E+02 -0.45824330480E+02  0.73230057745E+02  0.00000000000E+00 0. -1.
<scales pt_clust_5="13000.00000" pt_clust_6="13000.00000" pt_clust_7="13000.00000" pt_clust_8="13000.00000" pt_clust_9="57.12071"></scales>
<clustering>
<clus scale="   57.121">  2  9  1 -1</clus>
<clus scale="   90.900">  7  8 -1 -1</clus>
<clus scale="   91.742">  5  6 -1 -1</clus>
<clus scale="   96.535">  2  7  1 -1</clus>
<clus scale="   57.121">  2  5  1 -1</clus>
</clustering>
</event>
<event>
 9    1  0.1808905E-005  0.9412091E+02  0.7546771E-02  0.1293259E+00
          1   -1    0    0  502    0 -0.00000000000E+00  0.00000000000E+00  0.64756874883E+03  0.64756874883E+03  0.00000000000E+00 0. -1.
         21   -1    0    0  501  502  0.00000000000E+00 -0.00000000000E+00 -0.82518312778E+02  0.82518312778E+02  0.00000000000E+00 0. -1.
         23    2    1    2    0    0  0.20774613270E+02 -0.33603460761E+01  0.42158289482E+03  0.43178513730E+03  0.90903196356E+02 0.  0.
         23    2    1    2    0    0 -0.54719953836E+01  0.52648579495E+02  0.19734351066E+03  0.22369548927E+03  0.91068079293E+02 0.  0.
        -11    1    4    4    0    0 -0.34685602794E+01  0.75715954794E+02  0.17820955128E+03  0.19365841290E+03  0.00000000000E+00 0.  1.
         11    1    4    4    0    0 -0.20034351042E+01 -0.23067375299E+02  0.19133959380E+02  0.30037076372E+02  0.00000000000E+00 0. -1.
        -11    1    3    3    0    0 -0.33716309724E+02  0.13152130746E+02  0.15098740935E+03  0.15526418089E+03  0.00000000000E+00 0.  1.
         11    1    3    3    0    0  0.54490922993E+02 -0.16512476822E+02  0.27059548547E+03  0.27652095641E+03  0.00000000000E+00 0. -1.
          1    1    1    2  501    0 -0.15302617886E+02 -0.49288233419E+02 -0.53875969422E+02  0.74606435037E+02  0.00000000000E+00 0. -1.
<scales pt_clust_5="13000.00000" pt_clust_6="13000.00000" pt_clust_7="13000.00000" pt_clust_8="13000.00000" pt_clust_9="51.60911"></scales>
<clustering>
<clus scale="   51.609">  2  9  1 -1</clus>
<clus scale="   90.903">  7  8 -1 -1</clus>
<clus scale="   91.068">  5  6 -1 -1</clus>
<clus scale="   93.961">  1  7  2 -1</clus>
<clus scale="   51.609">  2  5  1 -1</clus>
</clustering>
</event>
<event>
 9    1  0.1426358E-005  0.1902647E+03  0.7546771E-02  0.1158326E+00
          2   -1    0    0  502    0 -0.00000000000E+00  0.00000000000E+00  0.42561861994E+03  0.42561861994E+03  0.00000000000E+00 0. -1.
         21   -1    0    0  501  502  0.00000000000E+00 -0.00000000000E+00 -0.24269803870E+03  0.24269803870E+03  0.00000000000E+00 0.  1.
         23    2    1    2    0    0  0.14870949244E+03  0.73066439115E+02  0.32230592786E+03  0.37366489970E+03  0.91055633932E+02 0.  0.
         23    2    1    2    0    0 -0.14543666965E+03 -0.97209390235E+02 -0.16632988941E+03  0.25832543454E+03  0.92004932421E+02 0.  0.
        -11    1    4    4    0    0 -0.14866599823E+03 -0.60626489535E+02 -0.14136208902E+03  0.21391678400E+03  0.00000000000E+00 0.  1.
         11    1    4    4    0    0  0.32293285805E+01 -0.36582900699E+02 -0.24967800391E+02  0.44408650542E+02  0.00000000000E+00 0. -1.
        -13    1    3    3    0    0  0.34255858886E+02 -0.20811201891E+02  0.84964521184E+02  0.93944344439E+02  0.00000000000E+00 0.  1.
         13    1    3    3    0    0  0.11445363355E+03  0.93877641006E+02  0.23734140667E+03  0.27972055526E+03  0.00000000000E+00 0. -1.
          2    1    1    2  501    0 -0.32728227857E+01  0.24142951120E+02  0.26944542793E+02  0.36326324395E+02  0.00000000000E+00 0. -1.
<scales pt_clust_5="13000.00000" pt_clust_6="13000.00000" pt_clust_7="13000.00000" pt_clust_8="13000.00000" pt_clust_9="24.36379"></scales>
<clustering>
<clus scale="   24.364">  2  9  1 -1</clus>
<clus scale="   91.056">  7  8 -1 -1</clus>
<clus scale="   92.005">  5  6 -1 -1</clus>
<clus scale="  189.808">  1  7  2 -1</clus>
<clus scale="   24.364">  2  5  1 -1</clus>
</clustering>
</event>
<event>
 9    1  0.1426358E-005  0.1049938E+03  0.7546771E-02  0.1270501E+00
         21   -1    0    0  501  502  0.00000000000E+00  0.00000000000E+00  0.65541181876E+02  0.65541181876E+02  0.00000000000E+00 0. -1.
          1   -1    0    0  502    0 -0.00000000000E+00 -0.00000000000E+00 -0.67061335283E+03  0.67061335283E+03  0.00000000000E+00 0. -1.
         23    2    1    2    0    0  0.54617033487E+02 -0.32163253050E+00 -0.54193633153E+03  0.55168775421E+03  0.87642837206E+02 0.  0.
         23    2    1    2    0    0 -0.65568068536E+02  0.19119395796E+02 -0.94429897184E+02  0.14635380208E+03  0.88530825111E+02 0.  0.
        -13    1    3    3    0    0  0.77454752650E+02  0.96925893524E+01 -0.39280392896E+03  0.40048484566E+03  0.00000000000E+00 0. -1.
         13    1    3    3    0    0 -0.22837719163E+02 -0.10014221883E+02 -0.14913240257E+03  0.15120290855E+03  0.00000000000E+00 0.  1.
        -13    1    4    4    0    0 -0.61458730239E+00 -0.24815166182E+02 -0.16549045760E+01  0.24877879720E+02  0.00000000000E+00 0.  1.
         13    1    4    4    0    0 -0.64953481234E+02  0.43934561979E+02 -0.92774992608E+02  0.12147592236E+03  0.00000000000E+00 0. -1.
          1    1    1    2  501    0  0.10951035049E+02 -0.18797763266E+02  0.31294057763E+02  0.38112978415E+02  0.00000000000E+00 0. -1.
<scales pt_clust_5="13000.00000" pt_clust_6="13000.00000" pt_clust_7="13000.00000" pt_clust_8="13000.00000" pt_clust_9="21.75502"></scales>
<clustering>
<clus scale="   21.755">  1  9  2 -1</clus>
<clus scale="   87.643">  5  6 -1 -1</clus>
<clus scale="   88.531">  7  8 -1 -1</clus>
<clus scale="  104.246">  2  5  1 -1</clus>
<clus scale="   21.755">  1  5  2 -1</clus>
</clustering>
</event>
<event>
 9    1  0.1426358E-005  0.9428788E+02  0.7546771E-02  0.1294094E+00
          1   -1    0    0  502    0 -0.00000000000E+00  0.00000000000E+00  0.77097507914E+03  0.77097507914E+03  0.00000000000E+00 0. -1.
         21   -1    0    0  501  502  0.00000000000E+00 -0.00000000000E+00 -0.15527956277E+02  0.15527956277E+02  0.00000000000E+00 0.  1.
         23    2    1    2    0    0  0.28605626401E+01 -0.27175725453E+01  0.36726559455E+03  0.37853878010E+03  0.91607985876E+02 0.  0.
         23    2    1    2    0    0  0.23914700843E+02  0.48517821063E+01  0.27394798992E+03  0.29061532743E+03  0.93884581518E+02 0.  0.
        -11    1    3    3    0    0  0.18363525694E+02  0.38747089101E+02  0.12213534021E+03  0.12944341357E+03  0.00000000000E+00 0.  1.
         11    1    3    3    0    0 -0.15502963054E+02 -0.41464661646E+02  0.24513025434E+03  0.24909536652E+03  0.00000000000E+00 0. -1.
        -11    1    4    4    0    0  0.30619600624E+02  0.33260468486E+02  0.24628621266E+03  0.25040111273E+03  0.00000000000E+00 0.  1.
         11    1    4    4    0    0 -0.67048997814E+01 -0.28408686379E+02  0.27661777259E+02  0.40214214701E+02  0.00000000000E+00 0. -1.
          1    1    1    2  501    0 -0.26775263483E+02 -0.21342095611E+01  0.11423353839E+03  0.11734892790E+03  0.00000000000E+00 0. -1.
<scales pt_clust_5="13000.00000" pt_clust_6="13000.00000" pt_clust_7="13000.00000" pt_clust_8="13000.00000" pt_clust_9="26.86020"></scales>
<clustering>
<clus scale="   26.860">  2  9  1 -1</clus>
<clus scale="   91.608">  5  6 -1 -1</clus>
<clus scale="   92.021">  1  5  2 -1</clus>
<clus scale="   93.885">  7  8 -1 -1</clus>
<clus scale="   26.860">  2  5  1 -1</clus>
</clustering>
</event>
<event>
 9    1  0.1426358E-005  0.1384457E+03  0.7546771E-02  0.1215805E+00
          1   -1    0    0  502    0 -0.00000000000E+00  0.00000000000E+00  0.23285254473E+03  0.23285254473E+03  0.00000000000E+00 0. -1.
         21   -1    0    0  501  502  0.00000000000E+00 -0.00000000000E+00 -0.23167843522E+03  0.23167843522E+03  0.00000000000E+00 0. -1.
         23    2    1    2    0    0  0.10790755941E+03 -0.63536781200E+02  0.15101597289E+03  0.21618979407E+03  0.90836331107E+02 0.  0.
         23    2    1    2    0    0 -0.46566457350E+02 -0.70972073595E+01 -0.68161391629E+02  0.12414943652E+03  0.92457027730E+02 0.  0.
        -11    1    3    3    0    0  0.70088278039E+02 -0.56432142464E+02  0.15317327473E+03  0.17764854492E+03  0.00000000000E+00 0.  1.
         11    1    3    3    0    0  0.37819281367E+02 -0.71046387364E+01 -0.21573018362E+01  0.38541249149E+02  0.00000000000E+00 0. -1.
        -11    1    4    4    0    0 -0.47368384213E+02 -0.43640657380E+02 -0.29171754295E+02  0.70705459818E+02  0.00000000000E+00 0. -1.
         11    1    4    4    0    0  0.80192686240E+00  0.36543450021E+02 -0.38989637334E+02  0.53443976701E+02  0.00000000000E+00 0.  1.
          1    1    1    2  501    0 -0.61341102056E+02  0.70633988560E+02 -0.81680471753E+02  0.12419174935E+03  0.00000000000E+00 0. -1.
<scales pt_clust_5="13000.00000" pt_clust_6="13000.00000" pt_clust_7="13000.00000" pt_clust_8="13000.00000" pt_clust_9="93.55154"></scales>
<clustering>
<clus scale="   90.836">  5  6 -1 -1</clus>
<clus scale="   92.457">  7  8 -1 -1</clus>
<clus scale="   93.552">  2  9  1 -1</clus>
<clus scale="  137.369">  1  5  2 -1</clus>
<clus scale="   93.552">  2  5  1 -1</clus>
</clustering>
</event>
<event>
 9    1  0.1426358E-005  0.1067210E+03  0.7546771E-02  0.1268164E+00
         21   -1    0    0  501  502  0.00000000000E+00  0.00000000000E+00  0.31073530420E+02  0.31073530420E+02  0.00000000000E+00 0. -1.
          3   -1    0    0  502    0 -0.00000000000E+00 -0.00000000000E+00 -0.73798125309E+03  0.73798125309E+03  0.00000000000E+00 0. -1.
         23    2    1    2    0    0  0.91768976815E+01  0.67368351799E+02 -0.49933120604E+03  0.51244769650E+03  0.92996118449E+02 0.  0.
         23    2    1    2    0    0  0.20298673664E+02 -0.18861560811E+02 -0.13597169483E+03  0.16523439644E+03  0.89701222632E+02 0.  0.
        -11    1    4    4    0    0 -0.28358038326E+02 -0.32623788687E+02 -0.59033096771E+02  0.73166908097E+02  0.00000000000E+00 0.  1.
         11    1    4    4    0    0  0.48656711990E+02  0.13762227876E+02 -0.76938598059E+02  0.92067488339E+02  0.00000000000E+00 0. -1.
        -13    1    3    3    0    0  0.30271726115E+02 -0.11301324353E+02 -0.18101357416E+03  0.18387498841E+03  0.00000000000E+00 0.  1.
         13    1    3    3    0    0 -0.21094828434E+02  0.78669676152E+02 -0.31831763189E+03  0.32857270809E+03  0.00000000000E+00 0. -1.
          3    1    1    2  501    0 -0.29475571345E+02 -0.48506790988E+02 -0.71604821797E+02  0.91372690574E+02  0.00000000000E+00 0. -1.
<scales pt_clust_5="13000.00000" pt_clust_6="13000.00000" pt_clust_7="13000.00000" pt_clust_8="13000.00000" pt_clust_9="56.76018"></scales>
<clustering>
<clus scale="   56.760">  1  9  2 -1</clus>
<clus scale="   89.701">  5  6 -1 -1</clus>
<clus scale="   92.996">  7  8 -1 -1</clus>
<clus scale="  103.862">  1  5  2 -1</clus>
<clus scale="   56.760">  1  5  2 -1</clus>
</clustering>
</event>
<event>
 9    1  0.1426358E-005  0.1023539E+03  0.7546771E-02  0.1277078E+00
         -1   -1    0    0    0  501 -0.00000000000E+00  0.00000000000E+00  0.48481214802E+03  0.48481214802E+03  0.00000000000E+00 0.  1.
         21   -1    0    0  501  502  0.00000000000E+00 -0.00000000000E+00 -0.47446927078E+02  0.47446927078E+02  0.00000000000E+00 0.  1.
         23    2    1    2    0    0 -0.40554342848E+02 -0.13032580259E+02  0.29983876713E+03  0.31698121495E+03  0.93591139998E+02 0.  0.
         23    2    1    2    0    0  0.44435176128E+02 -0.39252271487E+02  0.65465346485E+02  0.12616237452E+03  0.90088886441E+02 0.  0.
        -11    1    4    4    0    0  0.25435273351E+02  0.26390535102E+02  0.37161245887E+02  0.52195513881E+02  0.00000000000E+00 0. -1.
         11    1    4    4    0    0  0.18999902776E+02 -0.65642806589E+02  0.28304100597E+02  0.73966860640E+02  0.00000000000E+00 0.  1.
        -13    1    3    3    0    0  0.21814613541E+02 -0.20982218677E+02  0.43168278915E+02  0.52722207550E+02  0.00000000000E+00 0. -1.
         13    1    3    3    0    0 -0.62368956389E+02  0.79496384189E+01  0.25667048821E+03  0.26425900740E+03  0.00000000000E+00 0.  1.
         -1    1    1    2    0  502 -0.38808332795E+01  0.52284851746E+02  0.72061107330E+02  0.89115485627E+02  0.00000000000E+00 0.  1.
<scales pt_clust_5="13000.00000" pt_clust_6="13000.00000" pt_clust_7="13000.00000" pt_clust_8="13000.00000" pt_clust_9="52.42868"></scales>
<clustering>
<clus scale="   52.429">  2  9  1 -1</clus>
<clus scale="   90.089">  5  6 -1 -1</clus>
<clus scale="   93.591">  7  8 -1 -1</clus>
<clus scale="   99.162">  2  5  1 -1</clus>
<clus scale="   52.429">  2  5  1 -1</clus>
</clustering>
</event>
<event>
 9    1  0.1426358E-005  0.1060675E+03  0.7546771E-02  0.1272193E+00
         21   -1    0    0  501  502  0.00000000000E+00  0.00000000000E+00  0.11435159854E+03  0.11435159854E+03  0.00000000000E+00 0. -1.
          2   -1    0    0  502    0 -0.00000000000E+00 -0.00000000000E+00 -0.31331314326E+03  0.31331314326E+03  0.00000000000E+00 0. -1.
         23    2    1    2    0    0  0.28777476170E+02 -0.29290318710E+02 -0.23913182353E+03  0.25901798640E+03  0.90665441869E+02 0.  0.
         23    2    1    2    0    0 -0.38497199722E+01  0.22156503534E+02 -0.19287725336E+02  0.10378121287E+03  0.99462519594E+02 0.  0.
        -11    1    3    3    0    0 -0.21186312998E+02 -0.13524322348E+02 -0.15948968076E+02  0.29768048913E+02  0.00000000000E+00 0.  1.
         11    1    3    3    0    0  0.49963789168E+02 -0.15765996362E+02 -0.22318285546E+03  0.22924993749E+03  0.00000000000E+00 0. -1.
        -11    1    4    4    0    0 -0.22106955502E+02 -0.10272477881E+02  0.32116266381E+02  0.40319918770E+02  0.00000000000E+00 0.  1.
         11    1    4    4    0    0  0.18257235529E+02  0.32428981415E+02 -0.51403991717E+02  0.63461294103E+02  0.00000000000E+00 0. -1.
          2    1    1    2  501    0 -0.24927756198E+02  0.71338151758E+01  0.59458004155E+02  0.64865542518E+02  0.00000000000E+00 0. -1.
<scales pt_clust_5="13000.00000" pt_clust_6="13000.00000" pt_clust_7="13000.00000" pt_clust_8="13000.00000" pt_clust_9="25.92845"></scales>
<clustering>
<clus scale="   25.928">  1  9  2 -1</clus>
<clus scale="   90.665">  5  6 -1 -1</clus>
<clus scale="   97.866">  2  5  1 -1</clus>
<clus scale="   99.463">  7  8 -1 -1</clus>
<clus scale="   25.928">  1  5  2 -1</clus>
</clustering>
</event>
<event>
 9    1  0.1426358E-005  0.1033847E+03  0.7546771E-02  0.1274995E+00
         -1   -1    0    0    0  501 -0.00000000000E+00  0.00000000000E+00  0.23488904554E+03  0.23488904554E+03  0.00000000000E+00 0.  1.
         21   -1    0    0  501  502  0.00000000000E+00 -0.00000000000E+00 -0.76824203511E+02  0.76824203511E+02  0.00000000000E+00 0.  1.
         23    2    1    2    0    0 -0.55972873823E+02 -0.19423813431E+02  0.12215744816E+03  0.16454597285E+03  0.92966057825E+02 0.  0.
         23    2    1    2    0    0  0.14503126088E+02  0.28084529019E+02  0.43245604304E+02  0.10417195897E+03  0.89345023963E+02 0.  0.
        -11    1    3    3    0    0 -0.75158040063E+02 -0.17102257072E+00  0.11329504569E+03  0.13595781556E+03  0.00000000000E+00 0.  1.
         11    1    3    3    0    0  0.19185166240E+02 -0.19252790860E+02  0.88624024738E+01  0.28588157289E+02  0.00000000000E+00 0. -1.
        -11    1    4    4    0    0  0.40606315087E+02 -0.15130345356E+02  0.27346993580E+02  0.51241177128E+02  0.00000000000E+00 0. -1.
         11    1    4    4    0    0 -0.26103188999E+02  0.43214874375E+02  0.15898610724E+02  0.52930781839E+02  0.00000000000E+00 0.  1.
         -1    1    1    2    0  502  0.41469747735E+02 -0.86607155881E+01 -0.73382104353E+01  0.42995317234E+02  0.00000000000E+00 0.  1.
<scales pt_clust_5="13000.00000" pt_clust_6="13000.00000" pt_clust_7="13000.00000" pt_clust_8="13000.00000" pt_clust_9="42.36447"></scales>
<clustering>
<clus scale="   42.364">  2  9  1 -1</clus>
<clus scale="   89.345">  7  8 -1 -1</clus>
<clus scale="   92.966">  5  6 -1 -1</clus>
<clus scale="  100.141">  2  7  1 -1</clus>
<clus scale="   42.364">  2  5  1 -1</clus>
</clustering>
</event>
<event>
 9    1  0.1426358E-005  0.1135167E+03  0.7546771E-02  0.1255535E+00
          2   -1    0    0  502    0 -0.00000000000E+00  0.00000000000E+00  0.77356962302E+03  0.77356962302E+03  0.00000000000E+00 0. -1.
         21   -1    0    0  501  502  0.00000000000E+00 -0.00000000000E+00 -0.23876721562E+03  0.23876721562E+03  0.00000000000E+00 0. -1.
         23    2    1    2    0    0  0.40365077173E+02  0.28568330136E+02  0.44947874033E+03  0.46127357594E+03  0.91086140086E+02 0.  0.
         23    2    1    2    0    0 -0.90672204780E+02 -0.95046223480E+02  0.28996265452E+03  0.33009441291E+03  0.87342699213E+02 0.  0.
        -11    1    3    3    0    0  0.59250501582E+02 -0.50969032661E+01  0.34064827821E+03  0.34580030337E+03  0.00000000000E+00 0. -1.
         11    1    3    3    0    0 -0.18885424409E+02  0.33665233402E+02  0.10883046211E+03  0.11547327257E+03  0.00000000000E+00 0.  1.
        -11    1    4    4    0    0 -0.99006874364E+02 -0.76296382887E+02  0.28130350570E+03  0.30782326347E+03  0.00000000000E+00 0. -1.
         11    1    4    4    0    0  0.83346695842E+01 -0.18749840592E+02  0.86591488111E+01  0.22271149442E+02  0.00000000000E+00 0.  1.
          2    1    1    2  501    0  0.50307127607E+02  0.66477893344E+02 -0.20463898744E+03  0.22096884978E+03  0.00000000000E+00 0. -1.
<scales pt_clust_5="13000.00000" pt_clust_6="13000.00000" pt_clust_7="13000.00000" pt_clust_8="13000.00000" pt_clust_9="83.36736"></scales>
<clustering>
<clus scale="   83.367">  2  9  1 -1</clus>
<clus scale="   87.343">  7  8 -1 -1</clus>
<clus scale="   91.086">  5  6 -1 -1</clus>
<clus scale="  110.535">  2  7  1 -1</clus>
<clus scale="   83.367">  2  5  1 -1</clus>
</clustering>
</event>
<event>
 9    1  0.1426358E-005  0.1240909E+03  0.7546771E-02  0.1239664E+00
          1   -1    0    0  502    0 -0.00000000000E+00  0.00000000000E+00  0.40473405466E+03  0.40473405466E+03  0.00000000000E+00 0. -1.
         21   -1    0    0  501  502  0.00000000000E+00 -0.00000000000E+00 -0.82917196477E+02  0.82917196477E+02  0.00000000000E+00 0.  1.
         23    2    1    2    0    0  0.21411707333E+01 -0.69762898599E+02  0.20088234669E+03  0.22882276789E+03  0.84467125324E+02 0.  0.
         23    2    1    2    0    0  0.72747865553E+01  0.12417947854E+03  0.41086124972E+02  0.16174300929E+03  0.94864461099E+02 0.  0.
        -11    1    3    3    0    0  0.26186746696E+02 -0.32290086093E+02  0.27575373231E+02  0.49887839913E+02  0.00000000000E+00 0. -1.
         11    1    3    3    0    0 -0.24045575962E+02 -0.37472812506E+02  0.17330697346E+03  0.17893492798E+03  0.00000000000E+00 0.  1.
        -13    1    4    4    0    0  0.33947012809E+01  0.82079842988E+02  0.72105434556E+02  0.10930607629E+03  0.00000000000E+00 0. -1.
         13    1    4    4    0    0  0.38800852744E+01  0.42099635548E+02 -0.31019309584E+02  0.52436932997E+02  0.00000000000E+00 0.  1.
          1    1    1    2  501    0 -0.94159572885E+01 -0.54416579937E+02  0.79848386512E+02  0.97085473951E+02  0.00000000000E+00 0. -1.
<scales pt_clust_5="13000.00000" pt_clust_6="13000.00000" pt_clust_7="13000.00000" pt_clust_8="13000.00000" pt_clust_9="55.22524"></scales>
<clustering>
<clus scale="   55.225">  2  9  1 -1</clus>
<clus scale="   84.467">  5  6 -1 -1</clus>
<clus scale="   94.864">  7  8 -1 -1</clus>
<clus scale="  116.336">  1  5  2 -1</clus>
<clus scale="   55.225">  2  5  1 -1</clus>
</clustering>
</event>
<event>
 9    1  0.1426358E-005  0.1005187E+03  0.7546771E-02  0.1280484E+00
         21   -1    0    0  501  502  0.00000000000E+00  0.00000000000E+00  0.30248794550E+03  0.30248794550E+03  0.00000000000E+00 0. -1.
          1   -1    0    0  502    0 -0.00000000000E+00 -0.00000000000E+00 -0.14341786233E+03  0.14341786233E+03  0.00000000000E+00 0. -1.
         23    2    1    2    0    0  0.75013963799E+01 -0.41518931686E+02 -0.91221206159E+02  0.13578982889E+03  0.91309783375E+02 0.  0.
         23    2    1    2    0    0  0.17184589924E+02  0.14663108764E+02  0.54369742176E+02  0.11082753025E+03  0.93895450945E+02 0.  0.
        -13    1    4    4    0    0  0.43795804817E+02  0.32544194980E+02  0.90427716294E+01  0.55307945769E+02  0.00000000000E+00 0.  1.
         13    1    4    4    0    0 -0.26611214893E+02 -0.17881086216E+02  0.45326970547E+02  0.55519584484E+02  0.00000000000E+00 0. -1.
        -13    1    3    3    0    0 -0.31627050445E+02  0.94661084708E+01 -0.48307045898E+02  0.58510240238E+02  0.00000000000E+00 0.  1.
         13    1    3    3    0    0  0.39128446825E+02 -0.50985040157E+02 -0.42914160261E+02  0.77279588649E+02  0.00000000000E+00 0. -1.
          1    1    1    2  501    0 -0.24685986304E+02  0.26855822923E+02  0.19592154715E+03  0.19928844869E+03  0.00000000000E+00 0. -1.
<scales pt_clust_5="13000.00000" pt_clust_6="13000.00000" pt_clust_7="13000.00000" pt_clust_8="13000.00000" pt_clust_9="36.47784"></scales>
<clustering>
<clus scale="   36.478">  1  9  2 -1</clus>
<clus scale="   91.310">  7  8 -1 -1</clus>
<clus scale="   93.895">  5  6 -1 -1</clus>
<clus scale="   98.108">  2  7  1 -1</clus>
<clus scale="   36.478">  1  5  2 -1</clus>
</clustering>
</event>
<event>
 9    1  0.1426358E-005  0.9430745E+02  0.7546771E-02  0.1293985E+00
          1   -1    0    0  502    0 -0.00000000000E+00  0.00000000000E+00  0.10504188319E+03  0.10504188319E+03  0.00000000000E+00 0. -1.
         21   -1    0    0  501  502  0.00000000000E+00 -0.00000000000E+00 -0.48862606563E+03  0.48862606563E+03  0.00000000000E+00 0.  1.
         23    2    1    2    0    0  0.18281901232E+02 -0.17196759636E+02  0.55714680825E+02  0.11022997715E+03  0.91741842947E+02 0.  0.
         23    2    1    2    0    0 -0.25059872023E+02 -0.62916274482E+02 -0.32383987769E+03  0.34274391894E+03  0.89524705020E+02 0.  0.
        -11    1    4    4    0    0  0.96748491814E+01 -0.72531243647E+02 -0.25141398426E+03  0.26184609123E+03  0.00000000000E+00 0.  1.
         11    1    4    4    0    0 -0.34734721204E+02  0.96149691648E+01 -0.72425893430E+02  0.80897827710E+02  0.00000000000E+00 0. -1.
        -13    1    3    3    0    0 -0.11012107323E+01 -0.37537501092E+02 -0.99135252664E+01  0.38840116330E+02  0.00000000000E+00 0.  1.
         13    1    3    3    0    0  0.19383111964E+02  0.20340741457E+02  0.65628206092E+02  0.71389860815E+02  0.00000000000E+00 0. -1.
          1    1    1    2  501    0  0.67779707910E+01  0.80113034117E+02 -0.11545898558E+03  0.14069405273E+03  0.00000000000E+00 0. -1.
<scales pt_clust_5="13000.00000" pt_clust_6="13000.00000" pt_clust_7="13000.00000" pt_clust_8="13000.00000" pt_clust_9="80.39925"></scales>
<clustering>
<clus scale="   80.399">  2  9  1 -1</clus>
<clus scale="   89.525">  5  6 -1 -1</clus>
<clus scale="   91.742">  7  8 -1 -1</clus>
<clus scale="   92.152">  2  5  1 -1</clus>
<clus scale="   80.399">  2  5  1 -1</clus>
</clustering>
</event>
<event>
 9    1  0.1426358E-005  0.1076430E+03  0.7546771E-02  0.1265878E+00
         21   -1    0    0  501  502  0.00000000000E+00  0.00000000000E+00  0.16093746852E+03  0.16093746852E+03  0.00000000000E+00 0.  1.
          1   -1    0    0  502    0 -0.00000000000E+00 -0.00000000000E+00 -0.21508449843E+03  0.21508449843E+03  0.00000000000E+00 0. -1.
         23    2    1    2    0    0  0.49233319909E+02 -0.18230561179E+02 -0.15931304259E+03  0.19193135989E+03  0.93277694124E+02 0.  0.
         23    2    1    2    0    0 -0.66158750728E+02  0.47910071833E+01  0.11437474301E+03  0.16059821394E+03  0.91160684698E+02 0.  0.
        -13    1    4    4    0    0 -0.63092642410E+01 -0.27283937499E+02  0.79449253929E+02  0.84240156758E+02  0.00000000000E+00 0. -1.
         13    1    4    4    0    0 -0.59849486487E+02  0.32074944683E+02  0.34925489080E+02  0.76358057182E+02  0.00000000000E+00 0.  1.
        -13    1    3    3    0    0 -0.20512641770E+02 -0.15359172611E+02 -0.10756152678E+02  0.27791500069E+02  0.00000000000E+00 0.  1.
         13    1    3    3    0    0  0.69745961679E+02 -0.28713885685E+01 -0.14855688991E+03  0.16413985982E+03  0.00000000000E+00 0. -1.
          1    1    1    2  501    0  0.16925430819E+02  0.13439553996E+02 -0.92087303377E+01  0.23492393119E+02  0.00000000000E+00 0. -1.
<scales pt_clust_5="13000.00000" pt_clust_6="13000.00000" pt_clust_7="13000.00000" pt_clust_8="13000.00000" pt_clust_9="21.61232"></scales>
<clustering>
<clus scale="   21.612">  1  9  2 -1</clus>
<clus scale="   91.161">  5  6 -1 -1</clus>
<clus scale="   93.278">  7  8 -1 -1</clus>
<clus scale="  105.814">  1  5  2 -1</clus>
<clus scale="   21.612">  1  5  2 -1</clus>
</clustering>
</event>
<event>
 9    1  0.1426358E-005  0.9615067E+02  0.7546771E-02  0.1288926E+00
         21   -1    0    0  501  502  0.00000000000E+00  0.00000000000E+00  0.49900256686E+02  0.49900256686E+02  0.00000000000E+00 0.  1.
          2   -1    0    0  502    0 -0.00000000000E+00 -0.00000000000E+00 -0.54653017954E+03  0.54653017954E+03  0.00000000000E+00 0. -1.
         23    2    1    2    0    0  0.18717135275E+02 -0.18494731886E+02 -0.19827423017E+03  0.21994273558E+03  0.91486339549E+02 0.  0.
         23    2    1    2    0    0 -0.52069309101E+02 -0.25803507725E+01 -0.35403027321E+02  0.11059179841E+03  0.90880693057E+02 0.  0.
        -11    1    3    3    0    0  0.51208468276E+02 -0.17024407424E+02 -0.16418760495E+03  0.17282854883E+03  0.00000000000E+00 0. -1.
         11    1    3    3    0    0 -0.32491333001E+02 -0.14703244622E+01 -0.34086625219E+02  0.47114186749E+02  0.00000000000E+00 0.  1.
        -13    1    4    4    0    0  0.10526749706E+02 -0.21433143128E+02 -0.38322502395E+02  0.45153142455E+02  0.00000000000E+00 0. -1.
         13    1    4    4    0    0 -0.62596058807E+02  0.18852792355E+02  0.29194750742E+01  0.65438655950E+02  0.00000000000E+00 0.  1.
          2    1    1    2  501    0  0.33352173826E+02  0.21075082659E+02 -0.26295266537E+03  0.26589590224E+03  0.00000000000E+00 0. -1.
<scales pt_clust_5="13000.00000" pt_clust_6="13000.00000" pt_clust_7="13000.00000" pt_clust_8="13000.00000" pt_clust_9="39.45286"></scales>
<clustering>
<clus scale="   39.453">  1  9  2 -1</clus>
<clus scale="   90.881">  7  8 -1 -1</clus>
<clus scale="   91.486">  5  6 -1 -1</clus>
<clus scale="   95.575">  1  7  2 -1</clus>
<clus scale="   39.453">  1  5  2 -1</clus>
</clustering>
</event>
<event>
 9    1  0.1426358E-005  0.9965832E+02  0.7546771E-02  0.1281526E+00
         21   -1    0    0  501  502  0.00000000000E+00  0.00000000000E+00  0.14589265880E+03  0.14589265880E+03  0.00000000000E+00 0. -1.
         -1   -1    0    0    0  501 -0.00000000000E+00 -0.00000000000E+00 -0.90529412738E+02  0.90529412738E+02  0.00000000000E+00 0.  1.
         23    2    1    2    0    0  0.27186875951E+02  0.22703629145E+02 -0.44662587196E+01  0.98588186327E+02  0.91897236171E+02 0.  0.
         23    2    1    2    0    0 -0.19673786598E+02 -0.41405013168E+02  0.39369296317E+02  0.10911440739E+03  0.90854715964E+02 0.  0.
        -11    1    3    3    0    0 -0.28326928883E+02 -0.97664831088E+01 -0.14852568413E+02  0.33442456260E+02  0.00000000000E+00 0. -1.
         11    1    3    3    0    0  0.55513804834E+02  0.32470112254E+02  0.10386309693E+02  0.65145730067E+02  0.00000000000E+00 0.  1.
        -13    1    4    4    0    0 -0.37268432912E+02 -0.15588939519E+02  0.59522441766E+02  0.71936584578E+02  0.00000000000E+00 0.  1.
         13    1    4    4    0    0  0.17594646314E+02 -0.25816073649E+02 -0.20153145448E+02  0.37177822811E+02  0.00000000000E+00 0. -1.
         -1    1    1    2    0  502 -0.75130893529E+01  0.18701384023E+02  0.20460208468E+02  0.28719477825E+02  0.00000000000E+00 0.  1.
<scales pt_clust_5="13000.00000" pt_clust_6="13000.00000" pt_clust_7="13000.00000" pt_clust_8="13000.00000" pt_clust_9="20.15411"></scales>
<clustering>
<clus scale="   20.154">  1  9  2 -1</clus>
<clus scale="   90.855">  7  8 -1 -1</clus>
<clus scale="   91.897">  5  6 -1 -1</clus>
<clus scale="   98.698">  1  7  2 -1</clus>
<clus scale="   20.154">  1  5  2 -1</clus>
</clustering>
</event>
<event>
 9    1  0.1426358E-005  0.9856946E+02  0.7546771E-02  0.1284059E+00
         -1   -1    0    0    0  501 -0.00000000000E+00  0.00000000000E+00  0.21210778699E+03  0.21210778699E+03  0.00000000000E+00 0.  1.
         21   -1    0    0  501  502  0.00000000000E+00 -0.00000000000E+00 -0.31518038766E+03  0.31518038766E+03  0.00000000000E+00 0.  1.
         23    2    1    2    0    0 -0.44856557583E+02  0.27795654027E+02  0.14045130486E+03  0.17576282891E+03  0.91549406601E+02 0.  0.
         23    2    1    2    0    0 -0.12803461668E+02  0.24771069952E+02 -0.13324864034E+01  0.97075700842E+02  0.92975166774E+02 0.  0.
        -13    1    3    3    0    0  0.60150653470E+01  0.47383991714E+02  0.43840699288E+02  0.64833869203E+02  0.00000000000E+00 0.  1.
         13    1    3    3    0    0 -0.50871622930E+02 -0.19588337687E+02  0.96610605570E+02  0.11092895971E+03  0.00000000000E+00 0. -1.
        -13    1    4    4    0    0 -0.49520012973E+02  0.50614595254E+01 -0.16932750471E+02  0.52579160281E+02  0.00000000000E+00 0. -1.
         13    1    4    4    0    0  0.36716551305E+02  0.19709610427E+02  0.15600264068E+02  0.44496540561E+02  0.00000000000E+00 0.  1.
         -1    1    1    2    0  502  0.57660019252E+02 -0.52566723979E+02 -0.24219141913E+03  0.25444964490E+03  0.00000000000E+00 0.  1.
<scales pt_clust_5="13000.00000" pt_clust_6="13000.00000" pt_clust_7="13000.00000" pt_clust_8="13000.00000" pt_clust_9="78.02524"></scales>
<clustering>
<clus scale="   78.025">  2  9  1 -1</clus>
<clus scale="   91.549">  5  6 -1 -1</clus>
<clus scale="   92.975">  7  8 -1 -1</clus>
<clus scale="   97.226">  1  5  2 -1</clus>
<clus scale="   78.025">  2  5  1 -1</clus>
</clustering>
</event>
<event>
 9    1  0.1426358E-005  0.9026961E+02  0.7546771E-02  0.1305171E+00
         21   -1    0    0  501  502  0.00000000000E+00  0.00000000000E+00  0.21790599045E+03  0.21790599045E+03  0.00000000000E+00 0.  1.
          1   -1    0    0  502    0 -0.00000000000E+00 -0.00000000000E+00 -0.18715494130E+03  0.18715494130E+03  0.00000000000E+00 0. -1.
         23    2    1    2    0    0 -0.18607300708E+02 -0.21197981581E+02 -0.15588595676E+03  0.17799511549E+03  0.81155674855E+02 0.  0.
         23    2    1    2    0    0  0.27519266794E+02 -0.92453829513E+01  0.10185768554E+03  0.13654645510E+03  0.86180967424E+02 0.  0.
        -13    1    3    3    0    0 -0.19661956816E+02 -0.45806266908E+02 -0.14018908717E+03  0.14878772394E+03  0.00000000000E+00 0. -1.
         13    1    3    3    0    0  0.10546561081E+01  0.24608285326E+02 -0.15696869586E+02  0.29207391548E+02  0.00000000000E+00 0.  1.
        -13    1    4    4    0    0 -0.17204681654E+02  0.20147399582E+02  0.66302511706E+01  0.27310785622E+02  0.00000000000E+00 0. -1.
         13    1    4    4    0    0  0.44723948448E+02 -0.29392782533E+02  0.95227434370E+02  0.10923566948E+03  0.00000000000E+00 0.  1.
          1    1    1    2  501    0 -0.89119660858E+01  0.30443364533E+02  0.84779320366E+02  0.90519361163E+02  0.00000000000E+00 0. -1.
<scales pt_clust_5="13000.00000" pt_clust_6="13000.00000" pt_clust_7="13000.00000" pt_clust_8="13000.00000" pt_clust_9="31.72100"></scales>
<clustering>
<clus scale="   31.721">  1  9  2 -1</clus>
<clus scale="   81.156">  5  6 -1 -1</clus>
<clus scale="   85.485">  2  5  1 -1</clus>
<clus scale="   86.181">  7  8 -1 -1</clus>
<clus scale="   31.721">  1  5  2 -1</clus>
</clustering>
</event>
<event>
 9    1  0.1426358E-005  0.9317998E+02  0.7546771E-02  0.1295743E+00
          1   -1    0    0  502    0 -0.00000000000E+00  0.00000000000E+00  0.27924574112E+03  0.27924574112E+03  0.00000000000E+00 0. -1.
         21   -1    0    0  501  502  0.00000000000E+00 -0.00000000000E+00 -0.65983099416E+02  0.65983099416E+02  0.00000000000E+00 0.  1.
         23    2    1    2    0    0 -0.17878328370E+00  0.24258205618E+02  0.10610286129E+03  0.14148514463E+03  0.90397657456E+02 0.  0.
         23    2    1    2    0    0 -0.46562813848E+02  0.23012159007E+02  0.80069736722E+02  0.13195835798E+03  0.91127330729E+02 0.  0.
        -11    1    4    4    0    0 -0.17881535153E+02  0.56272764591E+02  0.58153824063E+02  0.82874848943E+02  0.00000000000E+00 0.  1.
         11    1    4    4    0    0 -0.28681278695E+02 -0.33260605584E+02  0.21915912658E+02  0.49083509034E+02  0.00000000000E+00 0. -1.
        -13    1    3    3    0    0  0.13129543958E+01  0.46023497926E+02  0.11006935488E+03  0.11931114404E+03  0.00000000000E+00 0.  1.
         13    1    3    3    0    0 -0.14917376795E+01 -0.21765292308E+02 -0.39664935856E+01  0.22174000584E+02  0.00000000000E+00 0. -1.
          1    1    1    2  501    0  0.46741597132E+02 -0.47270364625E+02  0.27090043691E+02  0.71785337928E+02  0.00000000000E+00 0. -1.
<scales pt_clust_5="13000.00000" pt_clust_6="13000.00000" pt_clust_7="13000.00000" pt_clust_8="13000.00000" pt_clust_9="66.47755"></scales>
<clustering>
<clus scale="   66.478">  2  9  1 -1</clus>
<clus scale="   90.398">  7  8 -1 -1</clus>
<clus scale="   91.127">  5  6 -1 -1</clus>
<clus scale="   92.467">  1  7  2 -1</clus>
<clus scale="   66.478">  2  5  1 -1</clus>
</clustering>
</event>
<event>
 9    1  0.1426358E-005  0.9236892E+02  0.7546771E-02  0.1300517E+00
          1   -1    0    0  502    0 -0.00000000000E+00  0.00000000000E+00  0.14994602272E+03  0.14994602272E+03  0.00000000000E+00 0. -1.
         21   -1    0    0  501  502  0.00000000000E+00 -0.00000000000E+00 -0.25241845421E+03  0.25241845421E+03  0.00000000000E+00 0.  1.
         23    2    1    2    0    0 -0.84401587004E+01  0.15452693278E+02  0.11941330467E+03  0.14781112720E+03  0.85314535589E+02 0.  0.
         23    2    1    2    0    0 -0.90224149548E+01 -0.45140195747E+01 -0.21359485127E+03  0.23234220764E+03  0.90875522632E+02 0.  0.
        -13    1    3    3    0    0 -0.29484451527E+02  0.30699392368E+02  0.23879471974E+02  0.48805888532E+02  0.00000000000E+00 0.  1.
         13    1    3    3    0    0  0.21044292827E+02 -0.15246699090E+02  0.95533832693E+02  0.99005238663E+02  0.00000000000E+00 0. -1.
        -13    1    4    4    0    0 -0.44669169956E+02 -0.11863512638E+02 -0.67670970085E+02  0.81947775252E+02  0.00000000000E+00 0.  1.
         13    1    4    4    0    0  0.35646755001E+02  0.73494930629E+01 -0.14592388119E+03  0.15039443238E+03  0.00000000000E+00 0. -1.
          1    1    1    2  501    0  0.17462573655E+02 -0.10938673703E+02 -0.82908848924E+01  0.22211142099E+02  0.00000000000E+00 0. -1.
<scales pt_clust_5="13000.00000" pt_clust_6="13000.00000" pt_clust_7="13000.00000" pt_clust_8="13000.00000" pt_clust_9="20.60573"></scales>
<clustering>
<clus scale="   20.606">  2  9  1 -1</clus>
<clus scale="   85.315">  5  6 -1 -1</clus>
<clus scale="   86.904">  1  5  2 -1</clus>
<clus scale="   90.876">  7  8 -1 -1</clus>
<clus scale="   20.606">  2  5  1 -1</clus>
</clustering>
</event>
<event>
 9    1  0.1426358E-005  0.1183395E+03  0.7546771E-02  0.1246233E+00
          1   -1    0    0  502    0 -0.00000000000E+00  0.00000000000E+00  0.40362363158E+03  0.40362363158E+03  0.00000000000E+00 0. -1.
         21   -1    0    0  501  502  0.00000000000E+00 -0.00000000000E+00 -0.57721854647E+02  0.57721854647E+02  0.00000000000E+00 0. -1.
         23    2    1    2    0    0  0.55733179736E+02  0.47461095343E+02  0.18256110268E+03  0.21662431095E+03  0.90767797088E+02 0.  0.
         23    2    1    2    0    0 -0.72438148599E+02 -0.29093887894E+02  0.17866207593E+03  0.21554660341E+03  0.91904630912E+02 0.  0.
        -11    1    3    3    0    0  0.40811378308E+02 -0.17518147317E+02  0.10702334756E+03  0.11587256366E+03  0.00000000000E+00 0.  1.
         11    1    3    3    0    0  0.14921801428E+02  0.64979242660E+02  0.75537755120E+02  0.10075174730E+03  0.00000000000E+00 0. -1.
        -13    1    4    4    0    0 -0.29631746025E+02  0.11213186270E+02  0.14367707485E+03  0.14712877950E+03  0.00000000000E+00 0. -1.
         13    1    4    4    0    0 -0.42806402573E+02 -0.40307074163E+02  0.34985001076E+02  0.68417823914E+02  0.00000000000E+00 0.  1.
          1    1    1    2  501    0  0.16704968863E+02 -0.18367207449E+02 -0.15321401675E+02  0.29174571865E+02  0.00000000000E+00 0. -1.
<scales pt_clust_5="13000.00000" pt_clust_6="13000.00000" pt_clust_7="13000.00000" pt_clust_8="13000.00000" pt_clust_9="24.82761"></scales>
<clustering>
<clus scale="   24.828">  2  9  1 -1</clus>
<clus scale="   90.768">  5  6 -1 -1</clus>
<clus scale="   91.905">  7  8 -1 -1</clus>
<clus scale="  117.459">  1  5  2 -1</clus>
<clus scale="   24.828">  2  5  1 -1</clus>
</clustering>
</event>
<event>
 9    1  0.1426358E-005  0.1011988E+03  0.7546771E-02  0.1279262E+00
         -3   -1    0    0    0  501 -0.00000000000E+00  0.00000000000E+00  0.12025334982E+03  0.12025334982E+03  0.00000000000E+00 0.  1.
         21   -1    0    0  501  502  0.00000000000E+00 -0.00000000000E+00 -0.56264808295E+03  0.56264808295E+03  0.00000000000E+00 0. -1.
         23    2    1    2    0    0  0.11918881961E+02 -0.35020481379E+02  0.89101523895E+02  0.13289827577E+03  0.91402277213E+02 0.  0.
         23    2    1    2    0    0 -0.39644487207E+02  0.15283665277E+02 -0.33666982810E+03  0.35222654436E+03  0.94401745816E+02 0.  0.
        -13    1    4    4    0    0 -0.57989276925E+02  0.41551174577E+02 -0.24075550324E+03  0.25110250634E+03  0.00000000000E+00 0.  1.
         13    1    4    4    0    0  0.18344789717E+02 -0.26267509299E+02 -0.95914324855E+02  0.10112403803E+03  0.00000000000E+00 0. -1.
        -13    1    3    3    0    0  0.80108998839E+01 -0.64139620403E+02  0.78445598116E+02  0.10164535054E+03  0.00000000000E+00 0.  1.
         13    1    3    3    0    0  0.39079820773E+01  0.29119139024E+02  0.10655925779E+02  0.31252925233E+02  0.00000000000E+00 0. -1.
         -3    1    1    2    0  502  0.27725605246E+02  0.19736816101E+02 -0.19482642893E+03  0.19777661264E+03  0.00000000000E+00 0.  1.
<scales pt_clust_5="13000.00000" pt_clust_6="13000.00000" pt_clust_7="13000.00000" pt_clust_8="13000.00000" pt_clust_9="34.03309"></scales>
<clustering>
<clus scale="   34.033">  2  9  1 -1</clus>
<clus scale="   91.402">  7  8 -1 -1</clus>
<clus scale="   94.402">  5  6 -1 -1</clus>
<clus scale="   98.407">  1  7  2 -1</clus>
<clus scale="   34.033">  2  5  1 -1</clus>
</clustering>
</event>
<event>
 9    1  0.1426358E-005  0.1217428E+03  0.7546771E-02  0.1240506E+00
         21   -1    0    0  501  502  0.00000000000E+00  0.00000000000E+00  0.42728877654E+03  0.42728877654E+03  0.00000000000E+00 0. -1.
         -2   -1    0    0    0  501 -0.00000000000E+00 -0.00000000000E+00 -0.67629530733E+02  0.67629530733E+02  0.00000000000E+00 0.  1.
         23    2    1    2    0    0  0.65557572934E+02  0.49648289733E+02  0.22207336719E+02  0.12527276809E+03  0.91855062893E+02 0.  0.
         23    2    1    2    0    0 -0.73044473282E+02 -0.20862183827E+02  0.23880790567E+03  0.26661480114E+03  0.91013793391E+02 0.  0.
        -11    1    4    4    0    0  0.19418456779E+02 -0.12020454821E+02  0.73886705775E+02  0.77335716768E+02  0.00000000000E+00 0.  1.
         11    1    4    4    0    0 -0.92462930061E+02 -0.88417290053E+01  0.16492119990E+03  0.18927908438E+03  0.00000000000E+00 0. -1.
        -13    1    3    3    0    0  0.34562957449E+02 -0.13706189274E+02 -0.20860191411E+02  0.42633381730E+02  0.00000000000E+00 0. -1.
         13    1    3    3    0    0  0.30994615485E+02  0.63354479006E+02  0.43067528130E+02  0.82639386363E+02  0.00000000000E+00 0.  1.
         -2    1    1    2    0  502  0.74869003480E+01 -0.28786105906E+02  0.98644003422E+02  0.10303073804E+03  0.00000000000E+00 0.  1.
<scales pt_clust_5="13000.00000" pt_clust_6="13000.00000" pt_clust_7="13000.00000" pt_clust_8="13000.00000" pt_clust_9="29.74380"></scales>
<clustering>
<clus scale="   29.744">  1  9  2 -1</clus>
<clus scale="   91.014">  5  6 -1 -1</clus>
<clus scale="   91.855">  7  8 -1 -1</clus>
<clus scale="  121.109">  1  5  2 -1</clus>
<clus scale="   29.744">  1  5  2 -1</clus>
</clustering>
</event>
<event>
 9    1  0.1426358E-005  0.1162174E+03  0.7546771E-02  0.1249707E+00
         21   -1    0    0  501  502  0.00000000000E+00  0.00000000000E+00  0.39688308790E+02  0.39688308790E+02  0.00000000000E+00 0. -1.
          2   -1    0    0  502    0 -0.00000000000E+00 -0.00000000000E+00 -0.73212327239E+03  0.73212327239E+03  0.00000000000E+00 0. -1.
         23    2    1    2    0    0  0.54584100343E+01 -0.53360516572E+02 -0.32379207894E+03  0.34086486371E+03  0.92034808399E+02 0.  0.
         23    2    1    2    0    0 -0.13937793829E+02  0.90438022389E+02 -0.37063260234E+03  0.39285996960E+03  0.92720719379E+02 0.  0.
        -11    1    3    3    0    0 -0.43162194755E+02 -0.22857051254E+02 -0.16138950347E+03  0.16861788659E+03  0.00000000000E+00 0.  1.
         11    1    3    3    0    0  0.48620604789E+02 -0.30503465318E+02 -0.16240257547E+03  0.17224697712E+03  0.00000000000E+00 0. -1.
        -13    1    4    4    0    0 -0.35593225845E+02  0.42829787965E+02 -0.29913382508E+03  0.30427341943E+03  0.00000000000E+00 0.  1.
         13    1    4    4    0    0  0.21655432016E+02  0.47608234425E+02 -0.71498777260E+02  0.88586550167E+02  0.00000000000E+00 0. -1.
          2    1    1    2  501    0  0.84793837951E+01 -0.37077505818E+02  0.19897176830E+01  0.38086747875E+02  0.00000000000E+00 0. -1.
<scales pt_clust_5="13000.00000" pt_clust_6="13000.00000" pt_clust_7="13000.00000" pt_clust_8="13000.00000" pt_clust_9="38.03474"></scales>
<clustering>
<clus scale="   38.035">  1  9  2 -1</clus>
<clus scale="   92.035">  5  6 -1 -1</clus>
<clus scale="   92.721">  7  8 -1 -1</clus>
<clus scale="  115.671">  2  5  1 -1</clus>
<clus scale="   38.035">  1  5  2 -1</clus>
</clustering>
</event>
<event>
 9    1  0.1426358E-005  0.1089385E+03  0.7546771E-02  0.1262934E+00
          1   -1    0    0  502    0 -0.00000000000E+00  0.00000000000E+00  0.28604655734E+03  0.28604655734E+03  0.00000000000E+00 0. -1.
         21   -1    0    0  501  502  0.00000000000E+00 -0.00000000000E+00 -0.12579223583E+03  0.12579223583E+03  0.00000000000E+00 0.  1.
         23    2    1    2    0    0 -0.48166495806E+02  0.31580951190E+02  0.18701386775E+03  0.21595580782E+03  0.91352922245E+02 0.  0.
         23    2    1    2    0    0  0.41106224583E+02 -0.52029528544E+02  0.45111077623E+02  0.12082715067E+03  0.90373654757E+02 0.  0.
        -13    1    3    3    0    0 -0.21552196120E+02  0.25542083831E+02  0.18564662265E+03  0.18863076023E+03  0.00000000000E+00 0. -1.
         13    1    3    3    0    0 -0.26614299686E+02  0.60388673590E+01  0.13672451070E+01  0.27325047592E+02  0.00000000000E+00 0.  1.
        -13    1    4    4    0    0 -0.22702254981E+02 -0.28284268535E+02 -0.45550934438E+01  0.36553263932E+02  0.00000000000E+00 0.  1.
         13    1    4    4    0    0  0.63808479564E+02 -0.23745260010E+02  0.49666171067E+02  0.84273886736E+02  0.00000000000E+00 0. -1.
          1    1    1    2  501    0  0.70602712236E+01  0.20448577354E+02 -0.71870623860E+02  0.75055834681E+02  0.00000000000E+00 0. -1.
<scales pt_clust_5="13000.00000" pt_clust_6="13000.00000" pt_clust_7="13000.00000" pt_clust_8="13000.00000" pt_clust_9="21.63312"></scales>
<clustering>
<clus scale="   21.633">  2  9  1 -1</clus>
<clus scale="   90.374">  7  8 -1 -1</clus>
<clus scale="   91.353">  5  6 -1 -1</clus>
<clus scale="  108.119">  2  7  1 -1</clus>
<clus scale="   21.633">  2  5  1 -1</clus>
</clustering>
</event>
<event>
 9    1  0.1426358E-005  0.4096483E+03  0.7546771E-02  0.1040492E+00
         21   -1    0    0  501  502  0.00000000000E+00  0.00000000000E+00  0.69000039966E+03  0.69000039966E+03  0.00000000000E+00 0. -1.
          1   -1    0    0  502    0 -0.00000000000E+00 -0.00000000000E+00 -0.11827356828E+04  0.11827356828E+04  0.00000000000E+00 0. -1.
         23    2    1    2    0    0 -0.39865653430E+03 -0.72970970545E+02 -0.10736972451E+04  0.11511866376E+04  0.90294549865E+02 0.  0.
         23    2    1    2    0    0  0.31761568359E+03  0.31816226278E+02  0.49858055606E+03  0.59887903894E+03  0.90451852869E+02 0.  0.
        -11    1    4    4    0    0  0.20229949849E+03  0.51480286337E+02  0.37166876683E+03  0.42627805386E+03  0.00000000000E+00 0. -1.
         11    1    4    4    0    0  0.11531618510E+03 -0.19664060059E+02  0.12691178923E+03  0.17260098508E+03  0.00000000000E+00 0.  1.
        -11    1    3    3    0    0 -0.30948054855E+03 -0.26209453231E+02 -0.73744075522E+03  0.80017748833E+03  0.00000000000E+00 0.  1.
         11    1    3    3    0    0 -0.89175985746E+02 -0.46761517314E+02 -0.33625648983E+03  0.35100914929E+03  0.00000000000E+00 0. -1.
          1    1    1    2  501    0  0.81040850712E+02  0.41154744267E+02  0.82381405831E+02  0.12267040591E+03  0.00000000000E+00 0. -1.
<scales pt_clust_5="13000.00000" pt_clust_6="13000.00000" pt_clust_7="13000.00000" pt_clust_8="13000.00000" pt_clust_9="90.89187"></scales>
<clustering>
<clus scale="   90.295">  7  8 -1 -1</clus>
<clus scale="   90.452">  5  6 -1 -1</clus>
<clus scale="   90.892">  1  9  2 -1</clus>
<clus scale="  409.614">  2  7  1 -1</clus>
<clus scale="   90.892">  1  5  2 -1</clus>
</clustering>
</event>
<event>
 9    1  0.1426358E-005  0.1016085E+03  0.7546771E-02  0.1279132E+00
          2   -1    0    0  502    0 -0.00000000000E+00  0.00000000000E+00  0.12409524757E+03  0.12409524757E+03  0.00000000000E+00 0. -1.
         21   -1    0    0  501  502  0.00000000000E+00 -0.00000000000E+00 -0.12630026074E+03  0.12630026074E+03  0.00000000000E+00 0.  1.
         23    2    1    2    0    0 -0.33802171610E+02 -0.25420198436E+02  0.14463236522E+02  0.10431308992E+03  0.94251059538E+02 0.  0.
         23    2    1    2    0    0 -0.18345287385E+01  0.43468844073E+02  0.63917473938E+01  0.99957680055E+02  0.89765123887E+02 0.  0.
        -11    1    3    3    0    0 -0.55346488690E+02 -0.40384947105E+02  0.28912937132E+02  0.74364882146E+02  0.00000000000E+00 0.  1.
         11    1    3    3    0    0  0.21544317080E+02  0.14964748669E+02 -0.14449700610E+02  0.29948207775E+02  0.00000000000E+00 0. -1.
        -13    1    4    4    0    0  0.87055626478E+01 -0.26863650823E+02 -0.21903705125E+01  0.28323846482E+02  0.00000000000E+00 0. -1.
         13    1    4    4    0    0 -0.10540091386E+02  0.70332494895E+02  0.85821179063E+01  0.71633833573E+02  0.00000000000E+00 0.  1.
          2    1    1    2  501    0  0.35636700349E+02 -0.18048645637E+02 -0.23059997080E+02  0.46124738334E+02  0.00000000000E+00 0. -1.
<scales pt_clust_5="13000.00000" pt_clust_6="13000.00000" pt_clust_7="13000.00000" pt_clust_8="13000.00000" pt_clust_9="39.94656"></scales>
<clustering>
<clus scale="   39.947">  2  9  1 -1</clus>
<clus scale="   89.765">  7  8 -1 -1</clus>
<clus scale="   94.251">  5  6 -1 -1</clus>
<clus scale="   97.462">  2  7  1 -1</clus>
<clus scale="   39.947">  2  5  1 -1</clus>
</clustering>
</event>
<event>
 9    1  0.1426358E-005  0.1309398E+03  0.7546771E-02  0.1227156E+00
         -4   -1    0    0    0  501 -0.00000000000E+00  0.00000000000E+00  0.86520435820E+03  0.86520435820E+03  0.00000000000E+00 0.  1.
         21   -1    0    0  501  502  0.00000000000E+00 -0.00000000000E+00 -0.37251277289E+02  0.37251277289E+02  0.00000000000E+00 0.  1.
         23    2    1    2    0    0  0.53695104791E+02 -0.84332146285E+02  0.62953743675E+03  0.64379757894E+03  0.90348564993E+02 0.  0.
         23    2    1    2    0    0 -0.61722542758E+02  0.57531171359E+02  0.19662723030E+03  0.23062360558E+03  0.86055050938E+02 0.  0.
        -11    1    4    4    0    0 -0.19345295015E+02 -0.11893997363E+02  0.61806448135E+01  0.23535249793E+02  0.00000000000E+00 0.  1.
         11    1    4    4    0    0 -0.42377247743E+02  0.69425168722E+02  0.19044658549E+03  0.20708835579E+03  0.00000000000E+00 0. -1.
        -13    1    3    3    0    0  0.25323798153E+02  0.15238386575E+02  0.10195842263E+03  0.10615565516E+03  0.00000000000E+00 0. -1.
         13    1    3    3    0    0  0.28371306638E+02 -0.99570532860E+02  0.52757901412E+03  0.53764192377E+03  0.00000000000E+00 0.  1.
         -4    1    1    2    0  502  0.80274379670E+01  0.26800974925E+02  0.17884138576E+01  0.28034450973E+02  0.00000000000E+00 0.  1.
<scales pt_clust_5="13000.00000" pt_clust_6="13000.00000" pt_clust_7="13000.00000" pt_clust_8="13000.00000" pt_clust_9="27.97735"></scales>
<clustering>
<clus scale="   27.977">  2  9  1 -1</clus>
<clus scale="   86.055">  5  6 -1 -1</clus>
<clus scale="   90.349">  7  8 -1 -1</clus>
<clus scale="  128.015">  2  5  1 -1</clus>
<clus scale="   27.977">  2  5  1 -1</clus>
</clustering>
</event>
<event>
 9    1  0.1426358E-005  0.9809432E+02  0.7546771E-02  0.1284397E+00
          1   -1    0    0  502    0 -0.00000000000E+00  0.00000000000E+00  0.12687977565E+03  0.12687977565E+03  0.00000000000E+00 0. -1.
         21   -1    0    0  501  502  0.00000000000E+00 -0.00000000000E+00 -0.27505881499E+03  0.27505881499E+03  0.00000000000E+00 0. -1.
         23    2    1    2    0    0  0.11406302169E+02  0.64660716572E+02  0.35309271147E+02  0.11798434454E+03  0.91446426562E+02 0.  0.
         23    2    1    2    0    0  0.29371357359E+02  0.54299487745E+01 -0.15426565026E+02  0.97352345860E+02  0.91363774874E+02 0.  0.
        -11    1    3    3    0    0  0.50801200879E+02  0.25482809002E+02  0.14491658886E+02  0.58652738577E+02  0.00000000000E+00 0.  1.
         11    1    3    3    0    0 -0.39394898710E+02  0.39177907571E+02  0.20817612262E+02  0.59331605964E+02  0.00000000000E+00 0. -1.
        -13    1    4    4    0    0  0.40574548028E+02 -0.34234940596E+02 -0.17997279874E+02  0.56055572320E+02  0.00000000000E+00 0.  1.
         13    1    4    4    0    0 -0.11203190669E+02  0.39664889371E+02  0.25707148480E+01  0.41296773540E+02  0.00000000000E+00 0. -1.
          1    1    1    2  501    0 -0.40777659528E+02 -0.70090665347E+02 -0.16806174546E+03  0.18660190024E+03  0.00000000000E+00 0. -1.
<scales pt_clust_5="13000.00000" pt_clust_6="13000.00000" pt_clust_7="13000.00000" pt_clust_8="13000.00000" pt_clust_9="81.08957"></scales>
<clustering>
<clus scale="   81.090">  2  9  1 -1</clus>
<clus scale="   91.364">  7  8 -1 -1</clus>
<clus scale="   91.446">  5  6 -1 -1</clus>
<clus scale="   98.017">  2  7  1 -1</clus>
<clus scale="   81.090">  2  5  1 -1</clus>
</clustering>
</event>
<event>
 9    1  0.1426358E-005  0.2081624E+03  0.7546771E-02  0.1143247E+00
         21   -1    0    0  501  502  0.00000000000E+00  0.00000000000E+00  0.83839584352E+02  0.83839584352E+02  0.00000000000E+00 0. -1.
          2   -1    0    0  502    0 -0.00000000000E+00 -0.00000000000E+00 -0.13176124361E+04  0.13176124361E+04  0.00000000000E+00 0. -1.
         23    2    1    2    0    0 -0.22809778844E+02  0.16818175145E+03 -0.66669304635E+03  0.69444308631E+03  0.94689991793E+02 0.  0.
         23    2    1    2    0    0  0.58770316463E+02 -0.20215016522E+03 -0.60336113897E+03  0.64566279676E+03  0.92288372524E+02 0.  0.
        -11    1    4    4    0    0  0.48374762611E+02 -0.12721284333E+03 -0.49592817184E+03  0.51426450081E+03  0.00000000000E+00 0.  1.
         11    1    4    4    0    0  0.10395553852E+02 -0.74937321896E+02 -0.10743296713E+03  0.13139829595E+03  0.00000000000E+00 0. -1.
        -13    1    3    3    0    0  0.65090043027E+01  0.92563203323E+02 -0.50605714235E+03  0.51449406709E+03  0.00000000000E+00 0. -1.
         13    1    3    3    0    0 -0.29318783147E+02  0.75618548124E+02 -0.16063590400E+03  0.17994901922E+03  0.00000000000E+00 0.  1.
          2    1    1    2  501    0 -0.35960537619E+02  0.33968413778E+02  0.36281333598E+02  0.61346137352E+02  0.00000000000E+00 0. -1.
<scales pt_clust_5="13000.00000" pt_clust_6="13000.00000" pt_clust_7="13000.00000" pt_clust_8="13000.00000" pt_clust_9="49.46730"></scales>
<clustering>
<clus scale="   49.467">  1  9  2 -1</clus>
<clus scale="   92.288">  5  6 -1 -1</clus>
<clus scale="   94.690">  7  8 -1 -1</clus>
<clus scale="  207.081">  1  5  2 -1</clus>
<clus scale="   49.467">  1  5  2 -1</clus>
</clustering>
</event>
<event>
 9    1  0.1426358E-005  0.1426077E+03  0.7546771E-02  0.1210333E+00
          1   -1    0    0  502    0 -0.00000000000E+00  0.00000000000E+00  0.73195576869E+03  0.73195576869E+03  0.00000000000E+00 0. -1.
         21   -1    0    0  501  502  0.00000000000E+00 -0.00000000000E+00 -0.21029284187E+03  0.21029284187E+03  0.00000000000E+00 0.  1.
         23    2    1    2    0    0 -0.15904234035E+02  0.95712837670E+02  0.42946826203E+03  0.44961787950E+03  0.91100809659E+02 0.  0.
         23    2    1    2    0    0  0.41005446997E+01 -0.13298294793E+03  0.26751688280E+03  0.31300259204E+03  0.93295557965E+02 0.  0.
        -11    1    4    4    0    0 -0.31163972024E+02 -0.75447082090E+02  0.20640567560E+03  0.22196116387E+03  0.00000000000E+00 0. -1.
         11    1    4    4    0    0  0.35264516724E+02 -0.57535865844E+02  0.61111207201E+02  0.91041428173E+02  0.00000000000E+00 0.  1.
        -13    1    3    3    0    0 -0.19377854060E+01  0.21621247831E+02  0.10858113335E+02  0.24272041431E+02  0.00000000000E+00 0.  1.
         13    1    3    3    0    0 -0.13966448629E+02  0.74091589839E+02  0.41861014869E+03  0.42534583807E+03  0.00000000000E+00 0. -1.
          1    1    1    2  501    0  0.11803689335E+02  0.37270110264E+02 -0.17532221801E+03  0.17962813902E+03  0.00000000000E+00 0. -1.
<scales pt_clust_5="13000.00000" pt_clust_6="13000.00000" pt_clust_7="13000.00000" pt_clust_8="13000.00000" pt_clust_9="39.09461"></scales>
<clustering>
<clus scale="   39.095">  2  9  1 -1</clus>
<clus scale="   91.101">  7  8 -1 -1</clus>
<clus scale="   93.296">  5  6 -1 -1</clus>
<clus scale="  141.182">  1  7  2 -1</clus>
<clus scale="   39.095">  2  5  1 -1</clus>
</clustering>
</event>
<event>
 9    1  0.1426358E-005  0.9175386E+02  0.7546771E-02  0.1298894E+00
          3   -1    0    0  502    0 -0.00000000000E+00  0.00000000000E+00  0.60985824053E+02  0.60985824053E+02  0.00000000000E+00 0. -1.
         21   -1    0    0  501  502  0.00000000000E+00 -0.00000000000E+00 -0.28130368505E+03  0.28130368505E+03  0.00000000000E+00 0.  1.
         23    2    1    2    0    0  0.21260419696E+02  0.13411660001E+02 -0.42500354646E+02  0.10405915816E+03  0.91597762976E+02 0.  0.
         23    2    1    2    0    0  0.25085610516E+02  0.45596785604E+01 -0.64747020143E+02  0.11471574299E+03  0.91200035905E+02 0.  0.
        -11    1    4    4    0    0 -0.28829597801E+02  0.23819933599E+02 -0.23805800758E+02  0.44331152655E+02  0.00000000000E+00 0. -1.
         11    1    4    4    0    0  0.53915208317E+02 -0.19260255038E+02 -0.40941219385E+02  0.70384590336E+02  0.00000000000E+00 0.  1.
        -13    1    3    3    0    0  0.16076489537E+02  0.48149390162E+02 -0.46333091722E+02  0.68728252395E+02  0.00000000000E+00 0.  1.
         13    1    3    3    0    0  0.51839301583E+01 -0.34737730161E+02  0.38327370762E+01  0.35330905764E+02  0.00000000000E+00 0. -1.
          3    1    1    2  501    0 -0.46346030211E+02 -0.17971338562E+02 -0.11307048620E+03  0.12351460795E+03  0.00000000000E+00 0. -1.
<scales pt_clust_5="13000.00000" pt_clust_6="13000.00000" pt_clust_7="13000.00000" pt_clust_8="13000.00000" pt_clust_9="49.70838"></scales>
<clustering>
<clus scale="   49.708">  2  9  1 -1</clus>
<clus scale="   91.200">  5  6 -1 -1</clus>
<clus scale="   91.357">  2  5  1 -1</clus>
<clus scale="   91.598">  7  8 -1 -1</clus>
<clus scale="   49.708">  2  5  1 -1</clus>
</clustering>
</event>
<event>
 9    1  0.1426358E-005  0.9007242E+02  0.7546771E-02  0.1304600E+00
         21   -1    0    0  501  502  0.00000000000E+00  0.00000000000E+00  0.17641645594E+02  0.17641645594E+02  0.00000000000E+00 0. -1.
          2   -1    0    0  502    0 -0.00000000000E+00 -0.00000000000E+00 -0.68766716196E+03  0.68766716196E+03  0.00000000000E+00 0. -1.
         23    2    1    2    0    0 -0.12658849396E+02  0.10618804179E+02 -0.32145106149E+03  0.33328738368E+03  0.86467853683E+02 0.  0.
         23    2    1    2    0    0  0.29926168276E+01  0.21413721725E+02 -0.29294535223E+03  0.30710520225E+03  0.89605371618E+02 0.  0.
        -11    1    3    3    0    0 -0.46604750676E+02  0.72643295503E+01 -0.11943084954E+03  0.12840755854E+03  0.00000000000E+00 0.  1.
         11    1    3    3    0    0  0.33945901280E+02  0.33544746283E+01 -0.20202021195E+03  0.20487982514E+03  0.00000000000E+00 0. -1.
        -11    1    4    4    0    0  0.39157300942E+02  0.14994295084E+02 -0.73600201772E+02  0.84706037583E+02  0.00000000000E+00 0. -1.
         11    1    4    4    0    0 -0.36164684114E+02  0.64194266411E+01 -0.21934515046E+03  0.22239916467E+03  0.00000000000E+00 0.  1.
          2    1    1    2  501    0  0.96662325684E+01 -0.32032525904E+02 -0.55629102646E+02  0.64916221617E+02  0.00000000000E+00 0. -1.
<scales pt_clust_5="13000.00000" pt_clust_6="13000.00000" pt_clust_7="13000.00000" pt_clust_8="13000.00000" pt_clust_9="33.45921"></scales>
<clustering>
<clus scale="   33.459">  1  9  2 -1</clus>
<clus scale="   86.468">  5  6 -1 -1</clus>
<clus scale="   86.952">  2  5  1 -1</clus>
<clus scale="   89.605">  7  8 -1 -1</clus>
<clus scale="   33.459">  1  5  2 -1</clus>
</clustering>
</event>
<event>
 9    1  0.1426358E-005  0.1632397E+03  0.7546771E-02  0.1186842E+00
          2   -1    0    0  502    0 -0.00000000000E+00  0.00000000000E+00  0.86155426549E+03  0.86155426549E+03  0.00000000000E+00 0.  1.
         21   -1    0    0  501  502  0.00000000000E+00 -0.00000000000E+00 -0.28793653080E+03  0.28793653080E+03  0.00000000000E+00 0.  1.
         23    2    1    2    0    0  0.48250696924E+02  0.12238328283E+03  0.70547943286E+03  0.72340689086E+03  0.91161954132E+02 0.  0.
         23    2    1    2    0    0 -0.66443318378E+02 -0.92655315948E+02  0.10587938150E+03  0.18580168708E+03  0.10154851730E+03 0.  0.
        -13    1    4    4    0    0 -0.92190691771E+01 -0.54815568864E+02 -0.45780237673E+01  0.55773614981E+02  0.00000000000E+00 0. -1.
         13    1    4    4    0    0 -0.57224249200E+02 -0.37839747084E+02  0.11045740527E+03  0.13002807210E+03  0.00000000000E+00 0.  1.
        -13    1    3    3    0    0  0.16983254742E+01  0.10663577773E+03  0.55344751264E+03  0.56362950832E+03  0.00000000000E+00 0.  1.
         13    1    3    3    0    0  0.46552371450E+02  0.15747505092E+02  0.15203192023E+03  0.15977738254E+03  0.00000000000E+00 0. -1.
          2    1    1    2  501    0  0.18192621453E+02 -0.29727966878E+02 -0.23774107968E+03  0.24028221835E+03  0.00000000000E+00 0.  1.
<scales pt_clust_5="13000.00000" pt_clust_6="13000.00000" pt_clust_7="13000.00000" pt_clust_8="13000.00000" pt_clust_9="34.85288"></scales>
<clustering>
<clus scale="   34.853">  2  9  1 -1</clus>
<clus scale="   91.162">  7  8 -1 -1</clus>
<clus scale="  101.549">  5  6 -1 -1</clus>
<clus scale="  156.989">  1  7  2 -1</clus>
<clus scale="   34.853">  2  5  1 -1</clus>
</clustering>
</event>
<event>
 9    1  0.1426358E-005  0.1486202E+03  0.7546771E-02  0.1202735E+00
          2   -1    0    0  502    0 -0.00000000000E+00  0.00000000000E+00  0.11103831199E+04  0.11103831199E+04  0.00000000000E+00 0. -1.
         21   -1    0    0  501  502  0.00000000000E+00 -0.00000000000E+00 -0.54185972108E+02  0.54185972108E+02  0.00000000000E+00 0. -1.
         23    2    1    2    0    0 -0.13844154299E+03  0.11753064507E+02  0.62819955016E+03  0.65003637789E+03  0.92781584400E+02 0.  0.
         23    2    1    2    0    0  0.57086886718E+02 -0.10189516212E+03  0.31881624713E+03  0.35123928144E+03  0.89909380458E+02 0.  0.
        -13    1    3    3    0    0 -0.69481565315E+02  0.42354314371E+02  0.21252617398E+03  0.22757185787E+03  0.00000000000E+00 0.  1.
         13    1    3    3    0    0 -0.68959977675E+02 -0.30601249864E+02  0.41567337618E+03  0.42246452002E+03  0.00000000000E+00 0. -1.
        -13    1    4    4    0    0  0.46374890502E+02 -0.15894904122E+01  0.94049605877E+02  0.10487366359E+03  0.00000000000E+00 0.  1.
         13    1    4    4    0    0  0.10711996216E+02 -0.10030567170E+03  0.22476664125E+03  0.24636561785E+03  0.00000000000E+00 0. -1.
          2    1    1    2  501    0  0.81354656273E+02  0.90142097610E+02  0.10918135049E+03  0.16329343267E+03  0.00000000000E+00 0. -1.
<scales pt_clust_5="13000.00000" pt_clust_6="13000.00000" pt_clust_7="13000.00000" pt_clust_8="13000.00000" pt_clust_9="121.42561"></scales>
<clustering>
<clus scale="   89.909">  7  8 -1 -1</clus>
<clus scale="   92.782">  5  6 -1 -1</clus>
<clus scale="  121.426">  2  9  1 -1</clus>
<clus scale="  146.844">  2  7  1 -1</clus>
<clus scale="  121.426">  2  5  1 -1</clus>
</clustering>
</event>
<event>
 9    1  0.1426358E-005  0.9361893E+02  0.7546771E-02  0.1298825E+00
         -3   -1    0    0    0  501 -0.00000000000E+00  0.00000000000E+00  0.18787358350E+03  0.18787358350E+03  0.00000000000E+00 0.  1.
         21   -1    0    0  501  502  0.00000000000E+00 -0.00000000000E+00 -0.71283676135E+02  0.71283676135E+02  0.00000000000E+00 0. -1.
         23    2    1    2    0    0 -0.49680064238E+01 -0.22667689911E+02  0.11427762187E+03  0.14827338765E+03  0.91581206428E+02 0.  0.
         23    2    1    2    0    0  0.13767582598E+02  0.46178783200E+01 -0.12331069109E+02  0.86031184539E+02  0.83895401049E+02 0.  0.
        -11    1    3    3    0    0 -0.42195952722E+02 -0.27127730661E+02  0.91650400022E+02  0.10448065860E+03  0.00000000000E+00 0.  1.
         11    1    3    3    0    0  0.37227946298E+02  0.44600407502E+01  0.22627221847E+02  0.43792729049E+02  0.00000000000E+00 0. -1.
        -13    1    4    4    0    0  0.38550621311E+02  0.28514700477E+02 -0.17848091339E+02  0.51164371503E+02  0.00000000000E+00 0. -1.
         13    1    4    4    0    0 -0.24783038713E+02 -0.23896822157E+02  0.55170222301E+01  0.34866813037E+02  0.00000000000E+00 0.  1.
         -3    1    1    2    0  502 -0.87995761744E+01  0.18049811591E+02  0.14643354607E+02  0.24852687449E+02  0.00000000000E+00 0.  1.
<scales pt_clust_5="13000.00000" pt_clust_6="13000.00000" pt_clust_7="13000.00000" pt_clust_8="13000.00000" pt_clust_9="20.08055"></scales>
<clustering>
<clus scale="   20.081">  2  9  1 -1</clus>
<clus scale="   83.895">  7  8 -1 -1</clus>
<clus scale="   86.115">  2  7  1 -1</clus>
<clus scale="   91.581">  5  6 -1 -1</clus>
<clus scale="   20.081">  2  5  1 -1</clus>
</clustering>
</event>
<event>
 9    1  0.1426358E-005  0.1576040E+03  0.7546771E-02  0.1191534E+00
         -2   -1    0    0    0  501 -0.00000000000E+00  0.00000000000E+00  0.78848781947E+02  0.78848781947E+02  0.00000000000E+00 0.  1.
         21   -1    0    0  501  502  0.00000000000E+00 -0.00000000000E+00 -0.86566615824E+03  0.86566615824E+03  0.00000000000E+00 0.  1.
         23    2    1    2    0    0 -0.78374360204E+02  0.59958054996E+02 -0.12344950868E+03  0.18289007985E+03  0.92040705223E+02 0.  0.
         23    2    1    2    0    0  0.15545082771E+03 -0.64415023270E+02 -0.15207310858E+03  0.24453398146E+03  0.91413252186E+02 0.  0.
        -11    1    4    4    0    0  0.13757876232E+03 -0.14368375481E+02 -0.11168490661E+03  0.17778606363E+03  0.00000000000E+00 0.  1.
         11    1    4    4    0    0  0.17872065390E+02 -0.50046647789E+02 -0.40388201974E+02  0.66747917832E+02  0.00000000000E+00 0. -1.
        -13    1    3    3    0    0 -0.99361062036E+02  0.53446965514E+02 -0.10012052029E+03  0.15084202781E+03  0.00000000000E+00 0. -1.
         13    1    3    3    0    0  0.20986701833E+02  0.65110894823E+01 -0.23328988386E+02  0.32048052034E+02  0.00000000000E+00 0.  1.
         -2    1    1    2    0  502 -0.77076467505E+02  0.44569682742E+01 -0.51129475903E+03  0.51709087888E+03  0.00000000000E+00 0.  1.
<scales pt_clust_5="13000.00000" pt_clust_6="13000.00000" pt_clust_7="13000.00000" pt_clust_8="13000.00000" pt_clust_9="77.20522"></scales>
<clustering>
<clus scale="   77.205">  2  9  1 -1</clus>
<clus scale="   91.413">  5  6 -1 -1</clus>
<clus scale="   92.041">  7  8 -1 -1</clus>
<clus scale="  157.238">  2  5  1 -1</clus>
<clus scale="   77.205">  2  5  1 -1</clus>
</clustering>
</event>
<event>
 9    1  0.1426358E-005  0.1475387E+03  0.7546771E-02  0.1208456E+00
         21   -1    0    0  501  502  0.00000000000E+00  0.00000000000E+00  0.39214751859E+02  0.39214751859E+02  0.00000000000E+00 0. -1.
          2   -1    0    0  502    0 -0.00000000000E+00 -0.00000000000E+00 -0.80425494090E+03  0.80425494090E+03  0.00000000000E+00 0. -1.
         23    2    1    2    0    0  0.39325939370E+02  0.82974355862E+02 -0.32743810728E+03  0.35287018089E+03  0.94182680088E+02 0.  0.
         23    2    1    2    0    0 -0.51998535663E+02 -0.12749822333E+03 -0.40698127617E+03  0.43509632992E+03  0.68668861148E+02 0.  0.
        -11    1    3    3    0    0  0.48758078829E+02  0.21222117051E+01 -0.99302489477E+02  0.11064736079E+03  0.00000000000E+00 0. -1.
         11    1    3    3    0    0 -0.94321394585E+01  0.80852144157E+02 -0.22813561780E+03  0.24222282010E+03  0.00000000000E+00 0.  1.
        -13    1    4    4    0    0 -0.50528485310E+02 -0.67852551493E+02 -0.30906382332E+03  0.32043336820E+03  0.00000000000E+00 0.  1.
         13    1    4    4    0    0 -0.14700503537E+01 -0.59645671838E+02 -0.97917452856E+02  0.11466296172E+03  0.00000000000E+00 0. -1.
          2    1    1    2  501    0  0.12672596293E+02  0.44523867470E+02 -0.30620805595E+02  0.55503181950E+02  0.00000000000E+00 0. -1.
<scales pt_clust_5="13000.00000" pt_clust_6="13000.00000" pt_clust_7="13000.00000" pt_clust_8="13000.00000" pt_clust_9="46.29222"></scales>
<clustering>
<clus scale="   46.292">  1  9  2 -1</clus>
<clus scale="   68.669">  7  8 -1 -1</clus>
<clus scale="   94.183">  5  6 -1 -1</clus>
<clus scale="  132.713">  1  7  2 -1</clus>
<clus scale="   46.292">  1  5  2 -1</clus>
</clustering>
</event>
<event>
 9    1  0.1426358E-005  0.1464716E+03  0.7546771E-02  0.1225483E+00
          1   -1    0    0  502    0 -0.00000000000E+00  0.00000000000E+00  0.34219537225E+03  0.34219537225E+03  0.00000000000E+00 0. -1.
         21   -1    0    0  501  502  0.00000000000E+00 -0.00000000000E+00 -0.11171982136E+03  0.11171982136E+03  0.00000000000E+00 0. -1.
         23    2    1    2    0    0  0.11331172237E+02  0.27962357403E+02  0.62417067128E+02  0.11341144417E+03  0.89755091806E+02 0.  0.
         23    2    1    2    0    0 -0.11336059157E+03  0.29186395787E+02  0.16835498804E+03  0.22355901756E+03  0.89066059266E+02 0.  0.
        -11    1    3    3    0    0  0.35697574847E+02  0.31953837797E+02  0.17833727982E+01  0.47943143602E+02  0.00000000000E+00 0. -1.
         11    1    3    3    0    0 -0.24366402609E+02 -0.39914803940E+01  0.60633694330E+02  0.65468300573E+02  0.00000000000E+00 0.  1.
        -13    1    4    4    0    0 -0.20737742052E+02  0.47103698657E+01 -0.81146775134E+01  0.22761579929E+02  0.00000000000E+00 0.  1.
         13    1    4    4    0    0 -0.92622849513E+02  0.24476025921E+02  0.17646966555E+03  0.20079743763E+03  0.00000000000E+00 0. -1.
          1    1    1    2  501    0  0.10202941933E+03 -0.57148753190E+02 -0.29650427617E+00  0.11694473188E+03  0.00000000000E+00 0. -1.
<scales pt_clust_5="13000.00000" pt_clust_6="13000.00000" pt_clust_7="13000.00000" pt_clust_8="13000.00000" pt_clust_9="116.28051"></scales>
<clustering>
<clus scale="   89.066">  7  8 -1 -1</clus>
<clus scale="   89.755">  5  6 -1 -1</clus>
<clus scale="   94.690">  1  5  2 -1</clus>
<clus scale="  116.281">  2  9  1 -1</clus>
<clus scale="  116.281">  2  5  1 -1</clus>
</clustering>
</event>
<event>
 9    1  0.1426358E-005  0.1600176E+03  0.7546771E-02  0.1204232E+00
         21   -1    0    0  501  502  0.00000000000E+00  0.00000000000E+00  0.35333870277E+03  0.35333870277E+03  0.00000000000E+00 0.  1.
         -3   -1    0    0    0  501 -0.00000000000E+00 -0.00000000000E+00 -0.49541312638E+03  0.49541312638E+03  0.00000000000E+00 0.  1.
         23    2    1    2    0    0 -0.71655646491E+02 -0.16573070264E+02 -0.30910233003E+03  0.32942163271E+03  0.86977947409E+02 0.  0.
         23    2    1    2    0    0  0.12118621692E+03 -0.10351532131E+03 -0.10931105030E+03  0.21398167720E+03  0.91857125702E+02 0.  0.
        -11    1    3    3    0    0 -0.19820486578E+02 -0.39973614301E+02 -0.65392633847E+02  0.79163994909E+02  0.00000000000E+00 0.  1.
         11    1    3    3    0    0 -0.51835159913E+02  0.23400544037E+02 -0.24370969618E+03  0.25025763780E+03  0.00000000000E+00 0. -1.
        -11    1    4    4    0    0  0.11688369297E+03 -0.52014377297E+02 -0.97800794516E+02  0.16103505375E+03  0.00000000000E+00 0.  1.
         11    1    4    4    0    0  0.43025239492E+01 -0.51500944011E+02 -0.11510255782E+02  0.52946623448E+02  0.00000000000E+00 0. -1.
         -3    1    1    2    0  502 -0.49530570432E+02  0.12008839157E+03  0.27633895673E+03  0.30534851924E+03  0.00000000000E+00 0.  1.
<scales pt_clust_5="13000.00000" pt_clust_6="13000.00000" pt_clust_7="13000.00000" pt_clust_8="13000.00000" pt_clust_9="131.02636"></scales>
<clustering>
<clus scale="   86.978">  5  6 -1 -1</clus>
<clus scale="   91.857">  7  8 -1 -1</clus>
<clus scale="  113.905">  2  5  1 -1</clus>
<clus scale="  131.026">  1  9  2 -1</clus>
<clus scale="  131.026">  1  5  2 -1</clus>
</clustering>
</event>
<event>
 9    1  0.1426358E-005  0.1115444E+03  0.7546771E-02  0.1259246E+00
         21   -1    0    0  501  502  0.00000000000E+00  0.00000000000E+00  0.13395731496E+03  0.13395731496E+03  0.00000000000E+00 0.  1.
          1   -1    0    0  502    0 -0.00000000000E+00 -0.00000000000E+00 -0.17128347391E+03  0.17128347391E+03  0.00000000000E+00 0. -1.
         23    2    1    2    0    0  0.37862698633E+02  0.17622132361E+02 -0.47536401158E+02  0.11513346466E+03  0.96186702578E+02 0.  0.
         23    2    1    2    0    0 -0.81810928496E+02  0.47535297604E+01 -0.29299865112E+02  0.12691582365E+03  0.92377054136E+02 0.  0.
        -11    1    4    4    0    0 -0.19782196791E+02 -0.19846075138E+02 -0.49771620768E+02  0.57117565093E+02  0.00000000000E+00 0. -1.
         11    1    4    4    0    0 -0.62028731705E+02  0.24599604899E+02  0.20471755656E+02  0.69798258558E+02  0.00000000000E+00 0.  1.
        -13    1    3    3    0    0 -0.16499901932E+02  0.19639404587E+02  0.16966004788E+02  0.30753833822E+02  0.00000000000E+00 0.  1.
         13    1    3    3    0    0  0.54362600565E+02 -0.20172722262E+01 -0.64502405946E+02  0.84379630838E+02  0.00000000000E+00 0. -1.
          1    1    1    2  501    0  0.43948229863E+02 -0.22375662121E+02  0.39510107320E+02  0.63191500566E+02  0.00000000000E+00 0. -1.
<scales pt_clust_5="13000.00000" pt_clust_6="13000.00000" pt_clust_7="13000.00000" pt_clust_8="13000.00000" pt_clust_9="49.31650"></scales>
<clustering>
<clus scale="   49.316">  1  9  2 -1</clus>
<clus scale="   92.377">  5  6 -1 -1</clus>
<clus scale="   96.187">  7  8 -1 -1</clus>
<clus scale="  108.276">  1  5  2 -1</clus>
<clus scale="   49.316">  1  5  2 -1</clus>
</clustering>
</event>
<event>
 9    1  0.1426358E-005  0.9785808E+02  0.7546771E-02  0.1286266E+00
         -1   -1    0    0    0  501 -0.00000000000E+00  0.00000000000E+00  0.40666462208E+03  0.40666462208E+03  0.00000000000E+00 0.  1.
         21   -1    0    0  501  502  0.00000000000E+00 -0.00000000000E+00 -0.43265019375E+02  0.43265019375E+02  0.00000000000E+00 0.  1.
         23    2    1    2    0    0 -0.33881277289E+01  0.21624140791E+02  0.23233970156E+03  0.25175143317E+03  0.94434973973E+02 0.  0.
         23    2    1    2    0    0  0.29251250631E+02 -0.22543433761E+02  0.13944080576E+03  0.17097552849E+03  0.91788076366E+02 0.  0.
        -13    1    3    3    0    0  0.39090765851E+02  0.23293820920E+02  0.17214955621E+03  0.17806223567E+03  0.00000000000E+00 0.  1.
         13    1    3    3    0    0 -0.42478893580E+02 -0.16696801288E+01  0.60190145341E+02  0.73689197496E+02  0.00000000000E+00 0. -1.
        -13    1    4    4    0    0  0.30599496290E+02  0.29978045941E+02  0.85755577893E+02  0.95859436423E+02  0.00000000000E+00 0.  1.
         13    1    4    4    0    0 -0.13482456591E+01 -0.52521479703E+02  0.53685227867E+02  0.75116092068E+02  0.00000000000E+00 0. -1.
         -1    1    1    2    0  502 -0.25863122902E+02  0.91929296983E+00 -0.83809046106E+01  0.27202679793E+02  0.00000000000E+00 0.  1.
<scales pt_clust_5="13000.00000" pt_clust_6="13000.00000" pt_clust_7="13000.00000" pt_clust_8="13000.00000" pt_clust_9="25.87946"></scales>
<clustering>
<clus scale="   25.879">  2  9  1 -1</clus>
<clus scale="   91.788">  7  8 -1 -1</clus>
<clus scale="   94.435">  5  6 -1 -1</clus>
<clus scale="   95.306">  2  7  1 -1</clus>
<clus scale="   25.879">  2  5  1 -1</clus>
</clustering>
</event>
<event>
 9    1  0.1426358E-005  0.1214688E+03  0.7546771E-02  0.1241148E+00
          2   -1    0    0  502    0 -0.00000000000E+00  0.00000000000E+00  0.57163762881E+03  0.57163762881E+03  0.00000000000E+00 0. -1.
         21   -1    0    0  501  502  0.00000000000E+00 -0.00000000000E+00 -0.90757099534E+02  0.90757099534E+02  0.00000000000E+00 0. -1.
         23    2    1    2    0    0  0.73371814300E+02 -0.44642775759E+02  0.49053834204E+03  0.50641725150E+03  0.91946544500E+02 0.  0.
         23    2    1    2    0    0 -0.33666865215E+02  0.32119645054E+02  0.21494187293E+02  0.10397979524E+03  0.90469156726E+02 0.  0.
        -11    1    3    3    0    0 -0.16373018126E+02 -0.30856268190E+02  0.12782332533E+03  0.13251032981E+03  0.00000000000E+00 0.  1.
         11    1    3    3    0    0  0.89744832426E+02 -0.13786507570E+02  0.36271501671E+03  0.37390692169E+03  0.00000000000E+00 0. -1.
        -11    1    4    4    0    0  0.23087412653E+02  0.30481500799E+02 -0.93502802496E+01  0.39364682835E+02  0.00000000000E+00 0.  1.
         11    1    4    4    0    0 -0.56754277868E+02  0.16381442550E+01  0.30844467543E+02  0.64615112403E+02  0.00000000000E+00 0. -1.
          2    1    1    2  501    0 -0.39704949086E+02  0.12523130705E+02 -0.31152000058E+02  0.51997681604E+02  0.00000000000E+00 0. -1.
<scales pt_clust_5="13000.00000" pt_clust_6="13000.00000" pt_clust_7="13000.00000" pt_clust_8="13000.00000" pt_clust_9="41.63306"></scales>
<clustering>
<clus scale="   41.633">  2  9  1 -1</clus>
<clus scale="   90.469">  7  8 -1 -1</clus>
<clus scale="   91.947">  5  6 -1 -1</clus>
<clus scale="  120.354">  2  7  1 -1</clus>
<clus scale="   41.633">  2  5  1 -1</clus>
</clustering>
</event>
<event>
 9    1  0.1426358E-005  0.1508478E+03  0.7546771E-02  0.1214657E+00
          3   -1    0    0  502    0 -0.00000000000E+00  0.00000000000E+00  0.40413668685E+03  0.40413668685E+03  0.00000000000E+00 0. -1.
         21   -1    0    0  501  502  0.00000000000E+00 -0.00000000000E+00 -0.10547173590E+03  0.10547173590E+03  0.00000000000E+00 0. -1.
         23    2    1    2    0    0 -0.33508987606E+01 -0.59163334689E+02  0.30396454667E+02  0.11297510305E+03  0.91257332629E+02 0.  0.
         23    2    1    2    0    0 -0.54515423543E+01 -0.77480116454E+02  0.22146325603E+03  0.25192794238E+03  0.91590537816E+02 0.  0.
        -11    1    3    3    0    0  0.92089416723E+01 -0.82084716537E+02  0.24842457521E+02  0.86254582436E+02  0.00000000000E+00 0. -1.
         11    1    3    3    0    0 -0.12559840433E+02  0.22921381847E+02  0.55539971459E+01  0.26720520612E+02  0.00000000000E+00 0.  1.
        -13    1    4    4    0    0  0.36791526369E+02 -0.12510425287E+02  0.46702847078E+02  0.60755930399E+02  0.00000000000E+00 0.  1.
         13    1    4    4    0    0 -0.42243068723E+02 -0.64969691167E+02  0.17476040896E+03  0.19117201198E+03  0.00000000000E+00 0. -1.
          3    1    1    2  501    0  0.88024411150E+01  0.13664345114E+03  0.46805240254E+02  0.14470537732E+03  0.00000000000E+00 0. -1.
<scales pt_clust_5="13000.00000" pt_clust_6="13000.00000" pt_clust_7="13000.00000" pt_clust_8="13000.00000" pt_clust_9="119.85923"></scales>
<clustering>
<clus scale="   91.257">  5  6 -1 -1</clus>
<clus scale="   91.591">  7  8 -1 -1</clus>
<clus scale="  108.809">  1  5  2 -1</clus>
<clus scale="  119.859">  2  9  1 -1</clus>
<clus scale="  119.859">  2  5  1 -1</clus>
</clustering>
</event>
<event>
 9    1  0.1426358E-005  0.9302307E+02  0.7546771E-02  0.1297635E+00
         21   -1    0    0  501  502  0.00000000000E+00  0.00000000000E+00  0.68856337454E+02  0.68856337454E+02  0.00000000000E+00 0.  1.
          3   -1    0    0  502    0 -0.00000000000E+00 -0.00000000000E+00 -0.44240416448E+03  0.44240416448E+03  0.00000000000E+00 0. -1.
         23    2    1    2    0    0 -0.11740785061E+02 -0.91370347054E+01 -0.31170356028E+03  0.32523395730E+03  0.91633433056E+02 0.  0.
         23    2    1    2    0    0  0.29330355167E+02 -0.29396105341E+02 -0.91942555658E+02  0.13406403072E+03  0.88291166308E+02 0.  0.
        -11    1    3    3    0    0 -0.19908608803E+02 -0.46588819793E+02 -0.22155809534E+03  0.22727705657E+03  0.00000000000E+00 0.  1.
         11    1    3    3    0    0  0.81678237417E+01  0.37451785088E+02 -0.90145464940E+02  0.97956900728E+02  0.00000000000E+00 0. -1.
        -11    1    4    4    0    0 -0.60740036575E+01 -0.34918488866E+02 -0.91613039587E+02  0.98230053484E+02  0.00000000000E+00 0. -1.
         11    1    4    4    0    0  0.35404358825E+02  0.55223835251E+01 -0.32951607158E+00  0.35833977234E+02  0.00000000000E+00 0.  1.
          3    1    1    2  501    0 -0.17589570106E+02  0.38533140046E+02  0.30098288904E+02  0.51962513924E+02  0.00000000000E+00 0. -1.
<scales pt_clust_5="13000.00000" pt_clust_6="13000.00000" pt_clust_7="13000.00000" pt_clust_8="13000.00000" pt_clust_9="42.35795"></scales>
<clustering>
<clus scale="   42.358">  1  9  2 -1</clus>
<clus scale="   88.291">  7  8 -1 -1</clus>
<clus scale="   89.733">  1  7  2 -1</clus>
<clus scale="   91.633">  5  6 -1 -1</clus>
<clus scale="   42.358">  1  5  2 -1</clus>
</clustering>
</event>
<event>
 9    1  0.1426358E-005  0.1714799E+03  0.7546771E-02  0.1197711E+00
         21   -1    0    0  501  502  0.00000000000E+00  0.00000000000E+00  0.10610045371E+03  0.10610045371E+03  0.00000000000E+00 0. -1.
          2   -1    0    0  502    0 -0.00000000000E+00 -0.00000000000E+00 -0.44816652195E+03  0.44816652195E+03  0.00000000000E+00 0. -1.
         23    2    1    2    0    0  0.58792670990E+00  0.55405978118E+02 -0.13270556269E+03  0.17022757384E+03  0.91085083619E+02 0.  0.
         23    2    1    2    0    0  0.68136144220E+01  0.11635745964E+03 -0.11944194855E+03  0.19002185556E+03  0.90864969946E+02 0.  0.
        -11    1    4    4    0    0  0.45818489828E+02  0.81183977906E+02 -0.91089033883E+02  0.13033566040E+03  0.00000000000E+00 0.  1.
         11    1    4    4    0    0 -0.39004875406E+02  0.35173481737E+02 -0.28352914664E+02  0.59686195162E+02  0.00000000000E+00 0. -1.
        -11    1    3    3    0    0  0.66031774844E+01 -0.25032507779E+02 -0.34787125332E+02  0.43363261956E+02  0.00000000000E+00 0.  1.
         11    1    3    3    0    0 -0.60152507745E+01  0.80438485897E+02 -0.97918437355E+02  0.12686431188E+03  0.00000000000E+00 0. -1.
          2    1    1    2  501    0 -0.74015411318E+01 -0.17176343776E+03 -0.89918557005E+02  0.19401754626E+03  0.00000000000E+00 0. -1.
<scales pt_clust_5="13000.00000" pt_clust_6="13000.00000" pt_clust_7="13000.00000" pt_clust_8="13000.00000" pt_clust_9="145.42670"></scales>
<clustering>
<clus scale="   90.865">  5  6 -1 -1</clus>
<clus scale="   91.085">  7  8 -1 -1</clus>
<clus scale="  106.615">  2  7  1 -1</clus>
<clus scale="  145.427">  1  9  2 -1</clus>
<clus scale="  145.427">  1  5  2 -1</clus>
</clustering>
</event>
<event>
 9    1  0.1426358E-005  0.1011919E+03  0.7546771E-02  0.1279652E+00
         21   -1    0    0  501  502  0.00000000000E+00  0.00000000000E+00  0.46146049538E+03  0.46146049538E+03  0.00000000000E+00 0.  1.
          3   -1    0    0  502    0 -0.00000000000E+00 -0.00000000000E+00 -0.35198422947E+02  0.35198422947E+02  0.00000000000E+00 0. -1.
         23    2    1    2    0    0 -0.24635037379E+02  0.58001431480E+01  0.11361372891E+03  0.15037032873E+03  0.95197844717E+02 0.  0.
         23    2    1    2    0    0  0.39685169654E+02 -0.24242486546E+02  0.14900144617E+03  0.18091950686E+03  0.91475822803E+02 0.  0.
        -11    1    3    3    0    0  0.26254830979E+02  0.24532698722E+02  0.17393632720E+02  0.39921271467E+02  0.00000000000E+00 0.  1.
         11    1    3    3    0    0 -0.50889868358E+02 -0.18732555575E+02  0.96220096185E+02  0.11044905726E+03  0.00000000000E+00 0. -1.
        -13    1    4    4    0    0  0.30479668785E+02 -0.52709586960E+02  0.13456694528E+03  0.14770095981E+03  0.00000000000E+00 0.  1.
         13    1    4    4    0    0  0.92055008694E+01  0.28467100415E+02  0.14434500893E+02  0.33218547053E+02  0.00000000000E+00 0. -1.
          3    1    1    2  501    0 -0.15050132276E+02  0.18442343398E+02  0.16364689736E+03  0.16536908274E+03  0.00000000000E+00 0. -1.
<scales pt_clust_5="13000.00000" pt_clust_6="13000.00000" pt_clust_7="13000.00000" pt_clust_8="13000.00000" pt_clust_9="23.80392"></scales>
<clustering>
<clus scale="   23.804">  1  9  2 -1</clus>
<clus scale="   91.476">  7  8 -1 -1</clus>
<clus scale="   95.198">  5  6 -1 -1</clus>
<clus scale="   97.698">  1  7  2 -1</clus>
<clus scale="   23.804">  1  5  2 -1</clus>
</clustering>
</event>
<event>
 9    1  0.1426358E-005  0.1188504E+03  0.7546771E-02  0.1246049E+00
         21   -1    0    0  501  502  0.00000000000E+00  0.00000000000E+00  0.45070066453E+02  0.45070066453E+02  0.00000000000E+00 0. -1.
         -3   -1    0    0    0  501 -0.00000000000E+00 -0.00000000000E+00 -0.50407468024E+03  0.50407468024E+03  0.00000000000E+00 0.  1.
         23    2    1    2    0    0 -0.70782098999E+01 -0.77152011444E+02 -0.25955287913E+03  0.28730994142E+03  0.95795466766E+02 0.  0.
         23    2    1    2    0    0  0.39052459581E+02  0.54966487831E+02 -0.18980563403E+03  0.22173995076E+03  0.92714711180E+02 0.  0.
        -11    1    4    4    0    0 -0.15553143389E+02  0.51042762017E+02 -0.56926955566E+02  0.78025265739E+02  0.00000000000E+00 0.  1.
         11    1    4    4    0    0  0.54605602970E+02  0.39237258131E+01 -0.13287867846E+03  0.14371468502E+03  0.00000000000E+00 0. -1.
        -11    1    3    3    0    0 -0.48226853585E+02 -0.43907152003E+02 -0.18285445154E+03  0.19413762605E+03  0.00000000000E+00 0.  1.
         11    1    3    3    0    0  0.41148643685E+02 -0.33244859440E+02 -0.76698427591E+02  0.93172315369E+02  0.00000000000E+00 0. -1.
         -3    1    1    2    0  502 -0.31974249681E+02  0.22185523613E+02 -0.96461006270E+01  0.40094854507E+02  0.00000000000E+00 0.  1.
<scales pt_clust_5="13000.00000" pt_clust_6="13000.00000" pt_clust_7="13000.00000" pt_clust_8="13000.00000" pt_clust_9="38.91722"></scales>
<clustering>
<clus scale="   38.917">  1  9  2 -1</clus>
<clus scale="   92.715">  5  6 -1 -1</clus>
<clus scale="   95.795">  7  8 -1 -1</clus>
<clus scale="  116.382">  1  5  2 -1</clus>
<clus scale="   38.917">  1  5  2 -1</clus>
</clustering>
</event>
<event>
 9    1  0.1426358E-005  0.1095125E+03  0.7546771E-02  0.1268990E+00
         21   -1    0    0  501  502  0.00000000000E+00  0.00000000000E+00  0.30838709853E+03  0.30838709853E+03  0.00000000000E+00 0. -1.
         -1   -1    0    0    0  501 -0.00000000000E+00 -0.00000000000E+00 -0.44033837830E+02  0.44033837830E+02  0.00000000000E+00 0.  1.
         23    2    1    2    0    0 -0.11118167637E+02 -0.16564555979E+01  0.12817328178E+03  0.16735542050E+03  0.10701910630E+03 0.  0.
         23    2    1    2    0    0  0.27359369503E+02  0.22193227845E+02  0.11603056008E+03  0.15202713315E+03  0.91695604468E+02 0.  0.
        -11    1    4    4    0    0  0.59099007339E+02  0.28508396671E+02  0.82731080299E+02  0.10559286433E+03  0.00000000000E+00 0. -1.
         11    1    4    4    0    0 -0.31739637836E+02 -0.63151688250E+01  0.33299479784E+02  0.46434268824E+02  0.00000000000E+00 0.  1.
        -11    1    3    3    0    0  0.21160733993E+02 -0.44483863996E+02  0.37113220863E+02  0.61676429711E+02  0.00000000000E+00 0.  1.
         11    1    3    3    0    0 -0.32278901630E+02  0.42827408398E+02  0.91060060918E+02  0.10567899079E+03  0.00000000000E+00 0. -1.
         -1    1    1    2    0  502 -0.16241201866E+02 -0.20536772248E+02  0.20149418834E+02  0.33038382705E+02  0.00000000000E+00 0.  1.
<scales pt_clust_5="13000.00000" pt_clust_6="13000.00000" pt_clust_7="13000.00000" pt_clust_8="13000.00000" pt_clust_9="26.18275"></scales>
<clustering>
<clus scale="   26.183">  1  9  2 -1</clus>
<clus scale="   91.696">  5  6 -1 -1</clus>
<clus scale="   94.594">  1  5  2 -1</clus>
<clus scale="  107.019">  7  8 -1 -1</clus>
<clus scale="   26.183">  1  5  2 -1</clus>
</clustering>
</event>
<event>
 9    1  0.1426358E-005  0.1050363E+03  0.7546771E-02  0.1270735E+00
         21   -1    0    0  501  502  0.00000000000E+00  0.00000000000E+00  0.83148354682E+03  0.83148354682E+03  0.00000000000E+00 0.  1.
          2   -1    0    0  502    0 -0.00000000000E+00 -0.00000000000E+00 -0.28070310423E+02  0.28070310423E+02  0.00000000000E+00 0. -1.
         23    2    1    2    0    0  0.52181740134E+02 -0.42671716285E+02  0.17276289791E+03  0.20740087170E+03  0.92867073339E+02 0.  0.
         23    2    1    2    0    0 -0.32491968706E+02 -0.84885180300E+01  0.26253391440E+03  0.27997727657E+03  0.91298610156E+02 0.  0.
        -13    1    4    4    0    0 -0.47679045248E+02  0.21714160165E+02  0.21718261077E+03  0.22341235984E+03  0.00000000000E+00 0.  1.
         13    1    4    4    0    0  0.15187076542E+02 -0.30202678195E+02  0.45351303635E+02  0.56564916737E+02  0.00000000000E+00 0. -1.
        -13    1    3    3    0    0  0.78436911878E+02 -0.39399354794E+02  0.14064907756E+03  0.16579149954E+03  0.00000000000E+00 0. -1.
         13    1    3    3    0    0 -0.26255171744E+02 -0.32723614914E+01  0.32113820358E+02  0.41609372154E+02  0.00000000000E+00 0.  1.
          2    1    1    2  501    0 -0.19689771427E+02  0.51160234315E+02  0.36811642408E+03  0.37217570898E+03  0.00000000000E+00 0. -1.
<scales pt_clust_5="13000.00000" pt_clust_6="13000.00000" pt_clust_7="13000.00000" pt_clust_8="13000.00000" pt_clust_9="54.81840"></scales>
<clustering>
<clus scale="   54.818">  1  9  2 -1</clus>
<clus scale="   91.299">  5  6 -1 -1</clus>
<clus scale="   92.867">  7  8 -1 -1</clus>
<clus scale="  103.652">  1  5  2 -1</clus>
<clus scale="   54.818">  1  5  2 -1</clus>
</clustering>
</event>
<event>
 9    1  0.1426358E-005  0.1042152E+03  0.7546771E-02  0.1274284E+00
         21   -1    0    0  501  502  0.00000000000E+00  0.00000000000E+00  0.18750444751E+03  0.18750444751E+03  0.00000000000E+00 0. -1.
          2   -1    0    0  502    0 -0.00000000000E+00 -0.00000000000E+00 -0.22002952045E+03  0.22002952045E+03  0.00000000000E+00 0. -1.
         23    2    1    2    0    0 -0.32479830626E+02  0.12305267850E+02 -0.87426572938E+02  0.13245380930E+03  0.93242945734E+02 0.  0.
         23    2    1    2    0    0  0.64829065486E+02  0.44318542178E+02 -0.68093336364E+02  0.13586644298E+03  0.87498839755E+02 0.  0.
        -13    1    3    3    0    0 -0.25728362910E+02 -0.38876720107E+02 -0.52023099961E+02  0.69855214221E+02  0.00000000000E+00 0.  1.
         13    1    3    3    0    0 -0.67514677156E+01  0.51181987957E+02 -0.35403472977E+02  0.62598595083E+02  0.00000000000E+00 0. -1.
        -13    1    4    4    0    0  0.43065067708E+02 -0.21568695766E+02 -0.29072266536E+02  0.56258380489E+02  0.00000000000E+00 0.  1.
         13    1    4    4    0    0  0.21763997779E+02  0.65887237944E+02 -0.39021069828E+02  0.79608062492E+02  0.00000000000E+00 0. -1.
          2    1    1    2  501    0 -0.32349234861E+02 -0.56623810028E+02  0.12299483637E+03  0.13921371567E+03  0.00000000000E+00 0. -1.
<scales pt_clust_5="13000.00000" pt_clust_6="13000.00000" pt_clust_7="13000.00000" pt_clust_8="13000.00000" pt_clust_9="65.21295"></scales>
<clustering>
<clus scale="   65.213">  1  9  2 -1</clus>
<clus scale="   87.499">  7  8 -1 -1</clus>
<clus scale="   93.243">  5  6 -1 -1</clus>
<clus scale="   99.109">  1  7  2 -1</clus>
<clus scale="   65.213">  1  5  2 -1</clus>
</clustering>
</event>
<event>
 9    1  0.1426358E-005  0.1635542E+03  0.7546771E-02  0.1207227E+00
          2   -1    0    0  502    0 -0.00000000000E+00  0.00000000000E+00  0.10025497690E+04  0.10025497690E+04  0.00000000000E+00 0. -1.
         21   -1    0    0  501  502  0.00000000000E+00 -0.00000000000E+00 -0.76719081431E+02  0.76719081431E+02  0.00000000000E+00 0. -1.
         23    2    1    2    0    0  0.11582579680E+02 -0.29913914497E+02  0.15060363553E+03  0.18079146247E+03  0.94737001397E+02 0.  0.
         23    2    1    2    0    0 -0.69052918655E+02  0.14911152201E+03  0.73720041524E+03  0.76079320368E+03  0.91319740267E+02 0.  0.
        -13    1    3    3    0    0  0.42146765195E+02 -0.42102538609E+02  0.12705583474E+03  0.14032875228E+03  0.00000000000E+00 0.  1.
         13    1    3    3    0    0 -0.30564185515E+02  0.12188624112E+02  0.23547800789E+02  0.40462710190E+02  0.00000000000E+00 0. -1.
        -13    1    4    4    0    0 -0.89950192312E+02  0.11896559527E+03  0.54038183269E+03  0.56058574282E+03  0.00000000000E+00 0. -1.
         13    1    4    4    0    0  0.20897273656E+02  0.30145926743E+02  0.19681858255E+03  0.20020746086E+03  0.00000000000E+00 0.  1.
          2    1    1    2  501    0  0.57470338976E+02 -0.11919760751E+03  0.38026636814E+02  0.13768418430E+03  0.00000000000E+00 0. -1.
<scales pt_clust_5="13000.00000" pt_clust_6="13000.00000" pt_clust_7="13000.00000" pt_clust_8="13000.00000" pt_clust_9="135.68598"></scales>
<clustering>
<clus scale="   91.320">  7  8 -1 -1</clus>
<clus scale="   94.737">  5  6 -1 -1</clus>
<clus scale="  100.021">  1  5  2 -1</clus>
<clus scale="  135.686">  2  9  1 -1</clus>
<clus scale="  135.686">  2  5  1 -1</clus>
</clustering>
</event>
<event>
 9    1  0.1426358E-005  0.9737327E+02  0.7546771E-02  0.1287771E+00
         21   -1    0    0  501  502  0.00000000000E+00  0.00000000000E+00  0.70828681693E+02  0.70828681693E+02  0.00000000000E+00 0.  1.
          1   -1    0    0  502    0 -0.00000000000E+00 -0.00000000000E+00 -0.26800039666E+03  0.26800039666E+03  0.00000000000E+00 0. -1.
         23    2    1    2    0    0 -0.31958458707E+02 -0.13482238939E+02 -0.14091072898E+03  0.17167589413E+03  0.91726033563E+02 0.  0.
         23    2    1    2    0    0 -0.56295513275E+01  0.52790817904E+02 -0.39461398000E+02  0.11022999883E+03  0.88175327658E+02 0.  0.
        -13    1    4    4    0    0 -0.10338920577E+02 -0.19067812192E+02  0.89424400648E+01  0.23461499841E+02  0.00000000000E+00 0. -1.
         13    1    4    4    0    0  0.47093692494E+01  0.71858630096E+02 -0.48403838064E+02  0.86768498992E+02  0.00000000000E+00 0.  1.
        -13    1    3    3    0    0 -0.61112845224E+02 -0.11960448313E+02 -0.12176280366E+03  0.13676261379E+03  0.00000000000E+00 0. -1.
         13    1    3    3    0    0  0.29154386517E+02 -0.15217906259E+01 -0.19147925317E+02  0.34913280336E+02  0.00000000000E+00 0.  1.
          1    1    1    2  501    0  0.37588010034E+02 -0.39308578965E+02 -0.16799587987E+02  0.56923185391E+02  0.00000000000E+00 0. -1.
<scales pt_clust_5="13000.00000" pt_clust_6="13000.00000" pt_clust_7="13000.00000" pt_clust_8="13000.00000" pt_clust_9="54.38771"></scales>
<clustering>
<clus scale="   54.388">  1  9  2 -1</clus>
<clus scale="   88.175">  5  6 -1 -1</clus>
<clus scale="   91.726">  7  8 -1 -1</clus>
<clus scale="   94.036">  1  5  2 -1</clus>
<clus scale="   54.388">  1  5  2 -1</clus>
</clustering>
</event>
<event>
 9    1  0.1426358E-005  0.1009180E+03  0.7546771E-02  0.1281742E+00
         21   -1    0    0  501  502  0.00000000000E+00  0.00000000000E+00  0.24316704941E+02  0.24316704941E+02  0.00000000000E+00 0.  1.
          1   -1    0    0  502    0 -0.00000000000E+00 -0.00000000000E+00 -0.92874069569E+03  0.92874069569E+03  0.00000000000E+00 0. -1.
         23    2    1    2    0    0  0.24477404162E+02 -0.21823649506E+02 -0.45025403805E+03  0.46072649014E+03  0.92004265885E+02 0.  0.
         23    2    1    2    0    0 -0.56205399885E+02  0.23605906048E+01 -0.44131680517E+03  0.45295223891E+03  0.85091649679E+02 0.  0.
        -11    1    3    3    0    0 -0.30997987204E+02  0.10857624841E+02 -0.17350285369E+03  0.17658426732E+03  0.00000000000E+00 0. -1.
         11    1    3    3    0    0  0.55475391366E+02 -0.32681274347E+02 -0.27675118436E+03  0.28414222282E+03  0.00000000000E+00 0.  1.
        -13    1    4    4    0    0 -0.64611332077E+02 -0.21722600582E+02 -0.38683307847E+03  0.39279298136E+03  0.00000000000E+00 0. -1.
         13    1    4    4    0    0  0.84059321926E+01  0.24083191187E+02 -0.54483726703E+02  0.60159257552E+02  0.00000000000E+00 0.  1.
          1    1    1    2  501    0  0.31727995723E+02  0.19463058901E+02 -0.12853147532E+02  0.39378671586E+02  0.00000000000E+00 0. -1.
<scales pt_clust_5="13000.00000" pt_clust_6="13000.00000" pt_clust_7="13000.00000" pt_clust_8="13000.00000" pt_clust_9="37.22199"></scales>
<clustering>
<clus scale="   37.222">  1  9  2 -1</clus>
<clus scale="   85.092">  7  8 -1 -1</clus>
<clus scale="   92.004">  5  6 -1 -1</clus>
<clus scale="   94.659">  1  7  2 -1</clus>
<clus scale="   37.222">  1  5  2 -1</clus>
</clustering>
</event>
<event>
 9    1  0.1426358E-005  0.9849230E+02  0.7546771E-02  0.1283712E+00
          2   -1    0    0  502    0 -0.00000000000E+00  0.00000000000E+00  0.42482845607E+03  0.42482845607E+03  0.00000000000E+00 0. -1.
         21   -1    0    0  501  502  0.00000000000E+00 -0.00000000000E+00 -0.42867197604E+02  0.42867197604E+02  0.00000000000E+00 0.  1.
         23    2    1    2    0    0 -0.12134237152E+02 -0.25941196642E+02  0.24157383896E+03  0.25980815734E+03  0.91225947830E+02 0.  0.
         23    2    1    2    0    0  0.51562410616E+02  0.39238910512E+02  0.97840972818E+02  0.14837606732E+03  0.90797726325E+02 0.  0.
        -13    1    4    4    0    0  0.69312816287E+02  0.54405659370E+02  0.79646730335E+02  0.11877644517E+03  0.00000000000E+00 0.  1.
         13    1    4    4    0    0 -0.17750405670E+02 -0.15166748858E+02  0.18194242483E+02  0.29599622159E+02  0.00000000000E+00 0. -1.
        -13    1    3    3    0    0 -0.20827138153E+02  0.27945972232E+02  0.14242372122E+03  0.14662627122E+03  0.00000000000E+00 0.  1.
         13    1    3    3    0    0  0.86929010006E+01 -0.53887168874E+02  0.99150117739E+02  0.11318188612E+03  0.00000000000E+00 0. -1.
          2    1    1    2  501    0 -0.39428173464E+02 -0.13297713870E+02  0.42546446696E+02  0.59511429015E+02  0.00000000000E+00 0. -1.
<scales pt_clust_5="13000.00000" pt_clust_6="13000.00000" pt_clust_7="13000.00000" pt_clust_8="13000.00000" pt_clust_9="41.61022"></scales>
<clustering>
<clus scale="   41.610">  2  9  1 -1</clus>
<clus scale="   90.798">  5  6 -1 -1</clus>
<clus scale="   91.226">  7  8 -1 -1</clus>
<clus scale="   98.096">  2  5  1 -1</clus>
<clus scale="   41.610">  2  5  1 -1</clus>
</clustering>
</event>
<event>
 9    1  0.1426358E-005  0.1087455E+03  0.7546771E-02  0.1263069E+00
         21   -1    0    0  501  502  0.00000000000E+00  0.00000000000E+00  0.81917414432E+02  0.81917414432E+02  0.00000000000E+00 0. -1.
          1   -1    0    0  502    0 -0.00000000000E+00 -0.00000000000E+00 -0.35256366714E+03  0.35256366714E+03  0.00000000000E+00 0. -1.
         23    2    1    2    0    0  0.74676084229E+01  0.51368632060E+02 -0.23887034613E+03  0.26120129753E+03  0.92046586232E+02 0.  0.
         23    2    1    2    0    0 -0.37925649145E+02 -0.75645395199E+02 -0.44290279572E+02  0.13236935745E+03  0.91648443784E+02 0.  0.
        -11    1    4    4    0    0 -0.11388476951E+02 -0.32032574894E+02  0.27880651211E+02  0.43967192013E+02  0.00000000000E+00 0.  1.
         11    1    4    4    0    0 -0.26537172194E+02 -0.43612820305E+02 -0.72170930783E+02  0.88402165432E+02  0.00000000000E+00 0. -1.
        -13    1    3    3    0    0 -0.41294432802E+02  0.18087159979E+02 -0.12602347981E+03  0.13384428639E+03  0.00000000000E+00 0.  1.
         13    1    3    3    0    0  0.48762041224E+02  0.33281472081E+02 -0.11284686632E+03  0.12735701114E+03  0.00000000000E+00 0. -1.
          1    1    1    2  501    0  0.30458040722E+02  0.24276763139E+02  0.12514372989E+02  0.40910426598E+02  0.00000000000E+00 0. -1.
<scales pt_clust_5="13000.00000" pt_clust_6="13000.00000" pt_clust_7="13000.00000" pt_clust_8="13000.00000" pt_clust_9="38.94937"></scales>
<clustering>
<clus scale="   38.949">  1  9  2 -1</clus>
<clus scale="   91.648">  5  6 -1 -1</clus>
<clus scale="   92.047">  7  8 -1 -1</clus>
<clus scale="  108.409">  1  5  2 -1</clus>
<clus scale="   38.949">  1  5  2 -1</clus>
</clustering>
</event>
<event>
 9    1  0.1426358E-005  0.9730342E+02  0.7546771E-02  0.1289903E+00
         21   -1    0    0  501  502  0.00000000000E+00  0.00000000000E+00  0.79290508129E+02  0.79290508129E+02  0.00000000000E+00 0. -1.
         -1   -1    0    0    0  501 -0.00000000000E+00 -0.00000000000E+00 -0.14507787249E+03  0.14507787249E+03  0.00000000000E+00 0.  1.
         23    2    1    2    0    0  0.16655775555E+02 -0.33520694971E+01 -0.41310773273E+02  0.99117950541E+02  0.88482410127E+02 0.  0.
         23    2    1    2    0    0 -0.21511594885E+02 -0.17620538245E+02 -0.11271289443E+02  0.99995544444E+02  0.95387812955E+02 0.  0.
        -13    1    4    4    0    0 -0.25977527628E+02 -0.53009310202E+02  0.78038460922E+01  0.59545939606E+02  0.00000000000E+00 0.  1.
         13    1    4    4    0    0  0.44659327422E+01  0.35388771957E+02 -0.19075135535E+02  0.40449604838E+02  0.00000000000E+00 0. -1.
        -13    1    3    3    0    0 -0.17023969543E+01  0.26095564830E+02  0.17051067383E+02  0.31218833388E+02  0.00000000000E+00 0. -1.
         13    1    3    3    0    0  0.18358172509E+02 -0.29447634327E+02 -0.58361840657E+02  0.67899117153E+02  0.00000000000E+00 0.  1.
         -1    1    1    2    0  502  0.48558193306E+01  0.20972607742E+02 -0.13205301644E+02  0.25254885634E+02  0.00000000000E+00 0.  1.
<scales pt_clust_5="13000.00000" pt_clust_6="13000.00000" pt_clust_7="13000.00000" pt_clust_8="13000.00000" pt_clust_9="21.52742"></scales>
<clustering>
<clus scale="   21.527">  1  9  2 -1</clus>
<clus scale="   88.482">  7  8 -1 -1</clus>
<clus scale="   90.544">  2  7  1 -1</clus>
<clus scale="   95.388">  5  6 -1 -1</clus>
<clus scale="   21.527">  1  5  2 -1</clus>
</clustering>
</event>
<event>
 9    1  0.1426358E-005  0.1066371E+03  0.7546771E-02  0.1267179E+00
         -1   -1    0    0    0  501 -0.00000000000E+00  0.00000000000E+00  0.15414116398E+03  0.15414116398E+03  0.00000000000E+00 0.  1.
         21   -1    0    0  501  502  0.00000000000E+00 -0.00000000000E+00 -0.27150587320E+03  0.27150587320E+03  0.00000000000E+00 0.  1.
         23    2    1    2    0    0 -0.43828984251E+02 -0.95213770796E+00  0.65818337835E+02  0.12003396290E+03  0.90300676789E+02 0.  0.
         23    2    1    2    0    0  0.84231628960E+02  0.83493207677E+01 -0.66810615735E+01  0.12439485529E+03  0.90910752744E+02 0.  0.
        -11    1    3    3    0    0 -0.60653341809E+02 -0.25094931432E+02  0.62122884984E+02  0.90376082538E+02  0.00000000000E+00 0. -1.
         11    1    3    3    0    0  0.16824357558E+02  0.24142793724E+02  0.36954528510E+01  0.29657880366E+02  0.00000000000E+00 0.  1.
        -11    1    4    4    0    0  0.52479991299E+02 -0.20746127604E+02  0.33389610285E+02  0.65569942598E+02  0.00000000000E+00 0.  1.
         11    1    4    4    0    0  0.31751637661E+02  0.29095448372E+02 -0.40070671858E+02  0.58824912693E+02  0.00000000000E+00 0. -1.
         -1    1    1    2    0  502 -0.40402644709E+02 -0.73971830597E+01 -0.17650198548E+03  0.18121821899E+03  0.00000000000E+00 0.  1.
<scales pt_clust_5="13000.00000" pt_clust_6="13000.00000" pt_clust_7="13000.00000" pt_clust_8="13000.00000" pt_clust_9="41.07423"></scales>
<clustering>
<clus scale="   41.074">  2  9  1 -1</clus>
<clus scale="   90.301">  5  6 -1 -1</clus>
<clus scale="   90.911">  7  8 -1 -1</clus>
<clus scale="  106.117">  1  5  2 -1</clus>
<clus scale="   41.074">  2  5  1 -1</clus>
</clustering>
</event>
<event>
 9    1  0.1426358E-005  0.9448204E+02  0.7546771E-02  0.1294851E+00
         21   -1    0    0  501  502  0.00000000000E+00  0.00000000000E+00  0.24230322779E+02  0.24230322779E+02  0.00000000000E+00 0.  1.
          1   -1    0    0  502    0 -0.00000000000E+00 -0.00000000000E+00 -0.56575893362E+03  0.56575893362E+03  0.00000000000E+00 0. -1.
         23    2    1    2    0    0 -0.18835456923E+01  0.26919877753E+02 -0.34454920840E+03  0.35658346166E+03  0.87803078291E+02 0.  0.
         23    2    1    2    0    0 -0.17327321214E+02 -0.62524775958E+01 -0.17047509378E+03  0.19469304213E+03  0.92218726517E+02 0.  0.
        -11    1    3    3    0    0  0.36568703456E+02  0.35448194974E+02 -0.22581346390E+03  0.23148556127E+03  0.00000000000E+00 0. -1.
         11    1    3    3    0    0 -0.38452249148E+02 -0.85283172205E+01 -0.11873574451E+03  0.12509790039E+03  0.00000000000E+00 0.  1.
        -13    1    4    4    0    0 -0.24611162516E+02  0.27341055693E+02 -0.15051252341E+03  0.15494277121E+03  0.00000000000E+00 0. -1.
         13    1    4    4    0    0  0.72838413024E+01 -0.33593533289E+02 -0.19962570369E+02  0.39750270926E+02  0.00000000000E+00 0.  1.
          1    1    1    2  501    0  0.19210866906E+02 -0.20667400157E+02 -0.26504308668E+02  0.38712752608E+02  0.00000000000E+00 0. -1.
<scales pt_clust_5="13000.00000" pt_clust_6="13000.00000" pt_clust_7="13000.00000" pt_clust_8="13000.00000" pt_clust_9="28.21700"></scales>
<clustering>
<clus scale="   28.217">  1  9  2 -1</clus>
<clus scale="   87.803">  5  6 -1 -1</clus>
<clus scale="   90.177">  2  5  1 -1</clus>
<clus scale="   92.219">  7  8 -1 -1</clus>
<clus scale="   28.217">  1  5  2 -1</clus>
</clustering>
</event>
<event>
 9    1  0.1426358E-005  0.9779385E+02  0.7546771E-02  0.1287339E+00
          1   -1    0    0  502    0 -0.00000000000E+00  0.00000000000E+00  0.81544894340E+02  0.81544894340E+02  0.00000000000E+00 0. -1.
         21   -1    0    0  501  502  0.00000000000E+00 -0.00000000000E+00 -0.22787685096E+03  0.22787685096E+03  0.00000000000E+00 0. -1.
         23    2    1    2    0    0  0.30176946498E+02  0.14404371205E+01 -0.10908544355E+02  0.98306350071E+02  0.92910812962E+02 0.  0.
         23    2    1    2    0    0  0.20233197309E+02 -0.10939716299E+02 -0.50448266995E+02  0.11185717533E+03  0.97149062601E+02 0.  0.
        -11    1    4    4    0    0  0.52884594929E+02 -0.29820456308E+02 -0.40050278147E+02  0.72732831479E+02  0.00000000000E+00 0. -1.
         11    1    4    4    0    0 -0.32651397619E+02  0.18880740009E+02 -0.10397988848E+02  0.39124343852E+02  0.00000000000E+00 0.  1.
        -13    1    3    3    0    0 -0.31647082202E+02 -0.12789706636E+02 -0.61903558988E+01  0.34690559434E+02  0.00000000000E+00 0.  1.
         13    1    3    3    0    0  0.61824028700E+02  0.14230143756E+02 -0.47181884559E+01  0.63615790636E+02  0.00000000000E+00 0. -1.
          1    1    1    2  501    0 -0.50410143808E+02  0.94992791781E+01 -0.84975145267E+02  0.99258219895E+02  0.00000000000E+00 0. -1.
<scales pt_clust_5="13000.00000" pt_clust_6="13000.00000" pt_clust_7="13000.00000" pt_clust_8="13000.00000" pt_clust_9="51.29736"></scales>
<clustering>
<clus scale="   51.297">  2  9  1 -1</clus>
<clus scale="   92.911">  7  8 -1 -1</clus>
<clus scale="   93.585">  1  7  2 -1</clus>
<clus scale="   97.149">  5  6 -1 -1</clus>
<clus scale="   51.297">  2  5  1 -1</clus>
</clustering>
</event>
<event>
 9    1  0.1426358E-005  0.9293291E+02  0.7546771E-02  0.1296096E+00
         -3   -1    0    0    0  501 -0.00000000000E+00  0.00000000000E+00  0.19046938921E+03  0.19046938921E+03  0.00000000000E+00 0.  1.
         21   -1    0    0  501  502  0.00000000000E+00 -0.00000000000E+00 -0.11607335155E+03  0.11607335155E+03  0.00000000000E+00 0. -1.
         23    2    1    2    0    0 -0.63558545910E+01 -0.29330989349E+02  0.86892588271E+02  0.12928976400E+03  0.90911040879E+02 0.  0.
         23    2    1    2    0    0 -0.39411497188E+02 -0.22459937887E+02 -0.29474254842E+02  0.10608280694E+03  0.91253029037E+02 0.  0.
        -13    1    4    4    0    0  0.79038578061E+01 -0.45085968100E+02 -0.27912334455E+02  0.53612628199E+02  0.00000000000E+00 0. -1.
         13    1    4    4    0    0 -0.47315354994E+02  0.22626030212E+02 -0.15619203866E+01  0.52470178737E+02  0.00000000000E+00 0.  1.
        -13    1    3    3    0    0 -0.36018888804E+01  0.31574774191E+02  0.15349311028E+02  0.35292227441E+02  0.00000000000E+00 0.  1.
         13    1    3    3    0    0 -0.27539657106E+01 -0.60905763540E+02  0.71543277243E+02  0.93997536554E+02  0.00000000000E+00 0. -1.
         -3    1    1    2    0  502  0.45767351779E+02  0.51790927237E+02  0.16977704234E+02  0.71170169832E+02  0.00000000000E+00 0.  1.
<scales pt_clust_5="13000.00000" pt_clust_6="13000.00000" pt_clust_7="13000.00000" pt_clust_8="13000.00000" pt_clust_9="69.11549"></scales>
<clustering>
<clus scale="   69.115">  2  9  1 -1</clus>
<clus scale="   90.911">  7  8 -1 -1</clus>
<clus scale="   91.253">  5  6 -1 -1</clus>
<clus scale="   92.597">  1  7  2 -1</clus>
<clus scale="   69.115">  2  5  1 -1</clus>
</clustering>
</event>
<event>
 9    1  0.1506611E-005  0.1094607E+03  0.7546771E-02  0.1266273E+00
          2   -1    0    0  502    0 -0.00000000000E+00  0.00000000000E+00  0.50492609044E+03  0.50492609044E+03  0.00000000000E+00 0. -1.
         21   -1    0    0  501  502  0.00000000000E+00 -0.00000000000E+00 -0.14723140024E+03  0.14723140024E+03  0.00000000000E+00 0. -1.
         23    2    1    2    0    0 -0.53562933964E+02  0.17782395706E+02  0.26727568271E+03  0.28797340245E+03  0.91143779047E+02 0.  0.
         23    2    1    2    0    0  0.12485582676E+02 -0.25210973503E+02  0.21139287098E+03  0.23621062142E+03  0.10157277593E+03 0.  0.
        -13    1    3    3    0    0  0.42418935302E+01  0.26128875084E+02  0.18156088966E+02  0.32099148594E+02  0.00000000000E+00 0.  1.
         13    1    3    3    0    0 -0.57804827495E+02 -0.83464793786E+01  0.24911959374E+03  0.25587425386E+03  0.00000000000E+00 0. -1.
        -13    1    4    4    0    0 -0.29496463281E+02 -0.24558548354E+02  0.17930249573E+03  0.18336452389E+03  0.00000000000E+00 0. -1.
         13    1    4    4    0    0  0.41982045957E+02 -0.65242514963E+00  0.32090375247E+02  0.52846097536E+02  0.00000000000E+00 0.  1.
          2    1    1    2  501    0  0.41077351289E+02  0.74285777974E+01 -0.12097386349E+03  0.12797346680E+03  0.00000000000E+00 0. -1.
<scales pt_clust_5="13000.00000" pt_clust_6="13000.00000" pt_clust_7="13000.00000" pt_clust_8="13000.00000" pt_clust_9="41.74365"></scales>
<clustering>
<clus scale="   41.744">  2  9  1 -1</clus>
<clus scale="   91.144">  5  6 -1 -1</clus>
<clus scale="   99.859">  1  5  2 -1</clus>
<clus scale="  101.573">  7  8 -1 -1</clus>
<clus scale="   41.744">  2  5  1 -1</clus>
</clustering>
</event>
<event>
 9    1  0.1426358E-005  0.9749807E+02  0.7546771E-02  0.1285920E+00
          2   -1    0    0  502    0 -0.00000000000E+00  0.00000000000E+00  0.15091098455E+03  0.15091098455E+03  0.00000000000E+00 0. -1.
         21   -1    0    0  501  502  0.00000000000E+00 -0.00000000000E+00 -0.12017431091E+03  0.12017431091E+03  0.00000000000E+00 0. -1.
         23    2    1    2    0    0 -0.39979833496E+02  0.11220076230E+02  0.85304849605E+02  0.13161789608E+03  0.91225413151E+02 0.  0.
         23    2    1    2    0    0  0.71249540719E+01 -0.21274836057E+02 -0.33980076834E+02  0.99412298303E+02  0.90690549741E+02 0.  0.
        -11    1    3    3    0    0 -0.61395123849E+01 -0.21873213416E+02  0.80959502121E+02  0.84086693722E+02  0.00000000000E+00 0.  1.
         11    1    3    3    0    0 -0.33840321111E+02  0.33093289646E+02  0.43453474839E+01  0.47531202354E+02  0.00000000000E+00 0. -1.
        -13    1    4    4    0    0  0.28874808509E+02  0.24999491661E+02 -0.31653563836E+00  0.38194624551E+02  0.00000000000E+00 0.  1.
         13    1    4    4    0    0 -0.21749854437E+02 -0.46274327718E+02 -0.33663541196E+02  0.61217673752E+02  0.00000000000E+00 0. -1.
          2    1    1    2  501    0  0.32854879424E+02  0.10054759827E+02 -0.20588099124E+02  0.40055101082E+02  0.00000000000E+00 0. -1.
<scales pt_clust_5="13000.00000" pt_clust_6="13000.00000" pt_clust_7="13000.00000" pt_clust_8="13000.00000" pt_clust_9="34.35901"></scales>
<clustering>
<clus scale="   34.359">  2  9  1 -1</clus>
<clus scale="   90.691">  7  8 -1 -1</clus>
<clus scale="   91.225">  5  6 -1 -1</clus>
<clus scale="   96.998">  2  7  1 -1</clus>
<clus scale="   34.359">  2  5  1 -1</clus>
</clustering>
</event>
<event>
 9    1  0.1426358E-005  0.1426093E+03  0.7546771E-02  0.1210037E+00
         21   -1    0    0  501  502  0.00000000000E+00  0.00000000000E+00  0.20482604508E+02  0.20482604508E+02  0.00000000000E+00 0. -1.
          2   -1    0    0  502    0 -0.00000000000E+00 -0.00000000000E+00 -0.14713976411E+04  0.14713976411E+04  0.00000000000E+00 0. -1.
         23    2    1    2    0    0 -0.78368094878E+02  0.10609405603E+03 -0.85501595690E+03  0.86993085914E+03  0.91268319324E+02 0.  0.
         23    2    1    2    0    0  0.52990248871E+02 -0.68669828930E+02 -0.50645779483E+03  0.52172787541E+03  0.90426578757E+02 0.  0.
        -11    1    3    3    0    0  0.20624148473E+02  0.12335372442E+02 -0.12324603525E+03  0.12556712196E+03  0.00000000000E+00 0.  1.
         11    1    3    3    0    0 -0.98992243352E+02  0.93758683585E+02 -0.73176992165E+03  0.74436373718E+03  0.00000000000E+00 0. -1.
        -11    1    4    4    0    0  0.66338472648E+02 -0.18446612347E+02 -0.21764480214E+03  0.22827687215E+03  0.00000000000E+00 0. -1.
         11    1    4    4    0    0 -0.13348223777E+02 -0.50223216583E+02 -0.28881299270E+03  0.29345100326E+03  0.00000000000E+00 0.  1.
          2    1    1    2  501    0  0.25377846007E+02 -0.37424227096E+02 -0.89441284820E+02  0.10022151102E+03  0.00000000000E+00 0. -1.
<scales pt_clust_5="13000.00000" pt_clust_6="13000.00000" pt_clust_7="13000.00000" pt_clust_8="13000.00000" pt_clust_9="45.21734"></scales>
<clustering>
<clus scale="   45.217">  1  9  2 -1</clus>
<clus scale="   90.427">  7  8 -1 -1</clus>
<clus scale="   91.268">  5  6 -1 -1</clus>
<clus scale="  142.072">  1  7  2 -1</clus>
<clus scale="   45.217">  1  5  2 -1</clus>
</clustering>
</event>
<event>
 9    1  0.1426358E-005  0.1304754E+03  0.7546771E-02  0.1227309E+00
          1   -1    0    0  502    0 -0.00000000000E+00  0.00000000000E+00  0.15245830812E+03  0.15245830812E+03  0.00000000000E+00 0. -1.
         21   -1    0    0  501  502  0.00000000000E+00 -0.00000000000E+00 -0.27831875560E+03  0.27831875560E+03  0.00000000000E+00 0. -1.
         23    2    1    2    0    0  0.78525393396E+02 -0.79595201494E+02  0.54864370608E+02  0.15367030946E+03  0.90015728283E+02 0.  0.
         23    2    1    2    0    0 -0.36115174280E+02  0.61043713426E+02 -0.26326809929E+02  0.11591888462E+03  0.87826226877E+02 0.  0.
        -11    1    3    3    0    0  0.35417843655E+02  0.13213404970E+02  0.52430192453E+00  0.37805986465E+02  0.00000000000E+00 0.  1.
         11    1    3    3    0    0  0.43107549740E+02 -0.92808606464E+02  0.54340068684E+02  0.11586432299E+03  0.00000000000E+00 0. -1.
        -13    1    4    4    0    0 -0.58647268549E+02  0.23348724865E+02  0.28594876231E+01  0.63188936773E+02  0.00000000000E+00 0.  1.
         13    1    4    4    0    0  0.22532094268E+02  0.37694988561E+02 -0.29186297552E+02  0.52729947843E+02  0.00000000000E+00 0. -1.
          1    1    1    2  501    0 -0.42410219115E+02  0.18551488068E+02 -0.15439800816E+03  0.16118786964E+03  0.00000000000E+00 0. -1.
<scales pt_clust_5="13000.00000" pt_clust_6="13000.00000" pt_clust_7="13000.00000" pt_clust_8="13000.00000" pt_clust_9="46.29022"></scales>
<clustering>
<clus scale="   46.290">  2  9  1 -1</clus>
<clus scale="   87.826">  7  8 -1 -1</clus>
<clus scale="   90.016">  5  6 -1 -1</clus>
<clus scale="  128.975">  2  7  1 -1</clus>
<clus scale="   46.290">  2  5  1 -1</clus>
</clustering>
</event>
<event>
 9    1  0.1426358E-005  0.1119653E+03  0.7546771E-02  0.1257599E+00
         21   -1    0    0  501  502  0.00000000000E+00  0.00000000000E+00  0.40035773986E+03  0.40035773986E+03  0.00000000000E+00 0.  1.
         -3   -1    0    0    0  501 -0.00000000000E+00 -0.00000000000E+00 -0.12723167002E+03  0.12723167002E+03  0.00000000000E+00 0.  1.
         23    2    1    2    0    0  0.52952599858E+02  0.53263800103E+02 -0.31734274406E+02  0.12312990259E+03  0.92265370027E+02 0.  0.
         23    2    1    2    0    0 -0.54740223050E+02  0.48157197360E+01  0.16194332991E+02  0.11000324182E+03  0.93908325580E+02 0.  0.
        -11    1    3    3    0    0  0.53938242846E+02  0.77381665147E+02 -0.20604112916E+02  0.96549394671E+02  0.00000000000E+00 0.  1.
         11    1    3    3    0    0 -0.98564298847E+00 -0.24117865044E+02 -0.11130161490E+02  0.26580507918E+02  0.00000000000E+00 0. -1.
        -11    1    4    4    0    0 -0.79956668590E+02  0.15294338599E+02  0.10164173456E+02  0.82038381671E+02  0.00000000000E+00 0.  1.
         11    1    4    4    0    0  0.25216445541E+02 -0.10478618863E+02  0.60301595353E+01  0.27964860146E+02  0.00000000000E+00 0. -1.
         -3    1    1    2    0  502  0.17876231916E+01 -0.58079519839E+02  0.28866601125E+03  0.29445626547E+03  0.00000000000E+00 0.  1.
<scales pt_clust_5="13000.00000" pt_clust_6="13000.00000" pt_clust_7="13000.00000" pt_clust_8="13000.00000" pt_clust_9="58.10702"></scales>
<clustering>
<clus scale="   58.107">  1  9  2 -1</clus>
<clus scale="   92.265">  5  6 -1 -1</clus>
<clus scale="   93.908">  7  8 -1 -1</clus>
<clus scale="  110.591">  2  5  1 -1</clus>
<clus scale="   58.107">  1  5  2 -1</clus>
</clustering>
</event>
<event>
 9    1  0.1426358E-005  0.9609840E+02  0.7546771E-02  0.1290472E+00
         21   -1    0    0  501  502  0.00000000000E+00  0.00000000000E+00  0.33770639084E+03  0.33770639084E+03  0.00000000000E+00 0. -1.
          2   -1    0    0  502    0 -0.00000000000E+00 -0.00000000000E+00 -0.50099907715E+02  0.50099907715E+02  0.00000000000E+00 0. -1.
         23    2    1    2    0    0 -0.12273679620E+02  0.30026384165E+02  0.39408135561E+02  0.10346686898E+03  0.90000915947E+02 0.  0.
         23    2    1    2    0    0  0.12961458719E+01 -0.70860416501E+01  0.11246083392E+03  0.14624005168E+03  0.93203119962E+02 0.  0.
        -11    1    4    4    0    0  0.18613881831E+02 -0.44002112509E+02  0.83580457207E+02  0.96272297827E+02  0.00000000000E+00 0.  1.
         11    1    4    4    0    0 -0.17317735960E+02  0.36916070859E+02  0.28880376709E+02  0.49967753855E+02  0.00000000000E+00 0. -1.
        -13    1    3    3    0    0 -0.42447723861E+02  0.29076007461E+01  0.45668535226E+02  0.62416972954E+02  0.00000000000E+00 0.  1.
         13    1    3    3    0    0  0.30174044241E+02  0.27118783419E+02 -0.62603996652E+01  0.41049896029E+02  0.00000000000E+00 0. -1.
          2    1    1    2  501    0  0.10977533748E+02 -0.22940342515E+02  0.13573751365E+03  0.13809937789E+03  0.00000000000E+00 0. -1.
<scales pt_clust_5="13000.00000" pt_clust_6="13000.00000" pt_clust_7="13000.00000" pt_clust_8="13000.00000" pt_clust_9="25.43159"></scales>
<clustering>
<clus scale="   25.432">  1  9  2 -1</clus>
<clus scale="   90.001">  7  8 -1 -1</clus>
<clus scale="   92.996">  2  7  1 -1</clus>
<clus scale="   93.203">  5  6 -1 -1</clus>
<clus scale="   25.432">  1  5  2 -1</clus>
</clustering>
</event>
<event>
 9    1  0.1426358E-005  0.9312949E+02  0.7546771E-02  0.1296648E+00
         21   -1    0    0  501  502  0.00000000000E+00  0.00000000000E+00  0.68764643103E+03  0.68764643103E+03  0.00000000000E+00 0.  1.
          3   -1    0    0  502    0 -0.00000000000E+00 -0.00000000000E+00 -0.28339289572E+02  0.28339289572E+02  0.00000000000E+00 0. -1.
         23    2    1    2    0    0 -0.16010481759E+02  0.67964564147E+01  0.15016509865E+03  0.17711373765E+03  0.92288633465E+02 0.  0.
         23    2    1    2    0    0 -0.48340757002E+02 -0.63875846872E+01  0.22103185028E+03  0.24366234195E+03  0.90214344847E+02 0.  0.
        -11    1    4    4    0    0  0.19938598411E+02 -0.24657206999E+02  0.62338889797E+02  0.69940422824E+02  0.00000000000E+00 0.  1.
         11    1    4    4    0    0 -0.68279355413E+02  0.18269622312E+02  0.15869296049E+03  0.17372191912E+03  0.00000000000E+00 0. -1.
        -11    1    3    3    0    0 -0.41827274504E+02 -0.17734125675E+02  0.12635604456E+03  0.13427535181E+03  0.00000000000E+00 0.  1.
         11    1    3    3    0    0  0.25816792745E+02  0.24530582090E+02  0.23809054092E+02  0.42838385849E+02  0.00000000000E+00 0. -1.
          3    1    1    2  501    0  0.64351238761E+02 -0.40887172749E+00  0.28811019252E+03  0.29520964100E+03  0.00000000000E+00 0. -1.
<scales pt_clust_5="13000.00000" pt_clust_6="13000.00000" pt_clust_7="13000.00000" pt_clust_8="13000.00000" pt_clust_9="64.35254"></scales>
<clustering>
<clus scale="   64.353">  1  9  2 -1</clus>
<clus scale="   90.214">  5  6 -1 -1</clus>
<clus scale="   91.074">  1  5  2 -1</clus>
<clus scale="   92.289">  7  8 -1 -1</clus>
<clus scale="   64.353">  1  5  2 -1</clus>
</clustering>
</event>
<event>
 9    1  0.1426358E-005  0.9757931E+02  0.7546771E-02  0.1285821E+00
         -4   -1    0    0    0  501 -0.00000000000E+00  0.00000000000E+00  0.27776054719E+03  0.27776054719E+03  0.00000000000E+00 0.  1.
         21   -1    0    0  501  502  0.00000000000E+00 -0.00000000000E+00 -0.88521786837E+02  0.88521786837E+02  0.00000000000E+00 0. -1.
         23    2    1    2    0    0  0.12593826073E+02  0.39916995044E+02  0.15208755609E+03  0.18177465867E+03  0.90329568084E+02 0.  0.
         23    2    1    2    0    0  0.24721239171E+02 -0.27562209716E+02  0.79744412066E+02  0.12654875744E+03  0.91019787322E+02 0.  0.
        -11    1    3    3    0    0 -0.74284695947E+01  0.59730881739E+02  0.13740200554E+03  0.15000757155E+03  0.00000000000E+00 0.  1.
         11    1    3    3    0    0  0.20022295667E+02 -0.19813886694E+02  0.14685550545E+02  0.31767087127E+02  0.00000000000E+00 0. -1.
        -13    1    4    4    0    0 -0.24514470345E+02  0.15651932546E+02  0.97400237989E+01  0.30672631324E+02  0.00000000000E+00 0.  1.
         13    1    4    4    0    0  0.49235709516E+02 -0.43214142262E+02  0.70004388267E+02  0.95876126119E+02  0.00000000000E+00 0. -1.
         -4    1    1    2    0  502 -0.37315065243E+02 -0.12354785329E+02 -0.42593207801E+02  0.57958917911E+02  0.00000000000E+00 0.  1.
<scales pt_clust_5="13000.00000" pt_clust_6="13000.00000" pt_clust_7="13000.00000" pt_clust_8="13000.00000" pt_clust_9="39.30719"></scales>
<clustering>
<clus scale="   39.307">  2  9  1 -1</clus>
<clus scale="   90.330">  5  6 -1 -1</clus>
<clus scale="   91.020">  7  8 -1 -1</clus>
<clus scale="   96.936">  1  5  2 -1</clus>
<clus scale="   39.307">  2  5  1 -1</clus>
</clustering>
</event>
<event>
 9    1  0.1426358E-005  0.1530922E+03  0.7546771E-02  0.1205966E+00
          2   -1    0    0  502    0 -0.00000000000E+00  0.00000000000E+00  0.56808136470E+03  0.56808136470E+03  0.00000000000E+00 0. -1.
         21   -1    0    0  501  502  0.00000000000E+00 -0.00000000000E+00 -0.14789366242E+03  0.14789366242E+03  0.00000000000E+00 0.  1.
         23    2    1    2    0    0  0.66053953034E+02 -0.60019599352E+02  0.45499672535E+03  0.47236602492E+03  0.90233942634E+02 0.  0.
         23    2    1    2    0    0 -0.17823499458E+02  0.57671418109E+02 -0.93114568452E+02  0.16790413293E+03  0.12600716408E+03 0.  0.
        -11    1    4    4    0    0 -0.45877055149E+02  0.33789295519E+02 -0.11262302366E+03  0.12621555427E+03  0.00000000000E+00 0.  1.
         11    1    4    4    0    0  0.28053555691E+02  0.23882122591E+02  0.19508455210E+02  0.41688578664E+02  0.00000000000E+00 0. -1.
        -13    1    3    3    0    0 -0.20098929103E+02  0.25860218952E+01  0.81630567387E+02  0.84108287298E+02  0.00000000000E+00 0.  1.
         13    1    3    3    0    0  0.86152882137E+02 -0.62605621248E+02  0.37336615796E+03  0.38825773762E+03  0.00000000000E+00 0. -1.
          2    1    1    2  501    0 -0.48230453576E+02  0.23481812430E+01  0.58305545383E+02  0.75704869260E+02  0.00000000000E+00 0. -1.
<scales pt_clust_5="13000.00000" pt_clust_6="13000.00000" pt_clust_7="13000.00000" pt_clust_8="13000.00000" pt_clust_9="48.28761"></scales>
<clustering>
<clus scale="   48.288">  2  9  1 -1</clus>
<clus scale="   90.234">  7  8 -1 -1</clus>
<clus scale="  125.306">  1  7  2 -1</clus>
<clus scale="  126.007">  5  6 -1 -1</clus>
<clus scale="   48.288">  2  5  1 -1</clus>
</clustering>
</event>
<event>
 9    1  0.1426358E-005  0.1137505E+03  0.7546771E-02  0.1256095E+00
         21   -1    0    0  501  502  0.00000000000E+00  0.00000000000E+00  0.20691755036E+03  0.20691755036E+03  0.00000000000E+00 0. -1.
          1   -1    0    0  502    0 -0.00000000000E+00 -0.00000000000E+00 -0.11130818009E+03  0.11130818009E+03  0.00000000000E+00 0. -1.
         23    2    1    2    0    0  0.51000225322E+02 -0.79692540577E+02 -0.66964614728E+01  0.12724723686E+03  0.84823892181E+02 0.  0.
         23    2    1    2    0    0 -0.10799650048E+02  0.28838152889E+02  0.57600866964E+02  0.11223340566E+03  0.91269962021E+02 0.  0.
        -13    1    3    3    0    0  0.19833478213E+02 -0.24986770267E+02 -0.43785197694E+02  0.54174247420E+02  0.00000000000E+00 0.  1.
         13    1    3    3    0    0  0.31166747109E+02 -0.54705770310E+02  0.37088736221E+02  0.73072989436E+02  0.00000000000E+00 0. -1.
        -13    1    4    4    0    0  0.24195033386E+02  0.19798568366E+02  0.67815145317E+02  0.74674472775E+02  0.00000000000E+00 0. -1.
         13    1    4    4    0    0 -0.34994683434E+02  0.90395845232E+01 -0.10214278353E+02  0.37558932883E+02  0.00000000000E+00 0.  1.
          1    1    1    2  501    0 -0.40200575274E+02  0.50854387688E+02  0.44704964780E+02  0.78745087945E+02  0.00000000000E+00 0. -1.
<scales pt_clust_5="13000.00000" pt_clust_6="13000.00000" pt_clust_7="13000.00000" pt_clust_8="13000.00000" pt_clust_9="64.82480"></scales>
<clustering>
<clus scale="   64.825">  1  9  2 -1</clus>
<clus scale="   84.824">  5  6 -1 -1</clus>
<clus scale="   91.270">  7  8 -1 -1</clus>
<clus scale="  108.647">  2  5  1 -1</clus>
<clus scale="   64.825">  1  5  2 -1</clus>
</clustering>
</event>
<event>
 9    1  0.1426358E-005  0.3482493E+03  0.7546771E-02  0.1110887E+00
          1   -1    0    0  502    0 -0.00000000000E+00  0.00000000000E+00  0.20815931963E+03  0.20815931963E+03  0.00000000000E+00 0. -1.
         21   -1    0    0  501  502  0.00000000000E+00 -0.00000000000E+00 -0.97885087359E+03  0.97885087359E+03  0.00000000000E+00 0. -1.
         23    2    1    2    0    0 -0.19136397775E+02  0.10324386772E+02  0.56891219992E+02  0.11361045028E+03  0.95905833075E+02 0.  0.
         23    2    1    2    0    0  0.28020051763E+03  0.19112816370E+03 -0.45693660371E+03  0.57729875697E+03  0.97162183758E+02 0.  0.
        -13    1    3    3    0    0 -0.45729723316E+02 -0.26548532896E+02  0.30650543250E+02  0.61118638687E+02  0.00000000000E+00 0.  1.
         13    1    3    3    0    0  0.26593325540E+02  0.36872919667E+02  0.26240676742E+02  0.52491811590E+02  0.00000000000E+00 0. -1.
        -13    1    4    4    0    0  0.20976699014E+03  0.15913880826E+03 -0.28086994642E+03  0.38498737285E+03  0.00000000000E+00 0. -1.
         13    1    4    4    0    0  0.70433527487E+02  0.31989355434E+02 -0.17606665729E+03  0.19231138412E+03  0.00000000000E+00 0.  1.
          1    1    1    2  501    0 -0.26106411985E+03 -0.20145255047E+03 -0.37064617024E+03  0.49610098597E+03  0.00000000000E+00 0. -1.
<scales pt_clust_5="13000.00000" pt_clust_6="13000.00000" pt_clust_7="13000.00000" pt_clust_8="13000.00000" pt_clust_9="334.42073"></scales>
<clustering>
<clus scale="   95.906">  5  6 -1 -1</clus>
<clus scale="   97.162">  7  8 -1 -1</clus>
<clus scale="   98.340">  1  5  2 -1</clus>
<clus scale="  334.421">  2  9  1 -1</clus>
<clus scale="  334.421">  2  5  1 -1</clus>
</clustering>
</event>
<event>
 9    1  0.1426358E-005  0.1187733E+03  0.7546771E-02  0.1247696E+00
         21   -1    0    0  501  502  0.00000000000E+00  0.00000000000E+00  0.46598102309E+03  0.46598102309E+03  0.00000000000E+00 0.  1.
          2   -1    0    0  502    0 -0.00000000000E+00 -0.00000000000E+00 -0.15797001255E+03  0.15797001255E+03  0.00000000000E+00 0. -1.
         23    2    1    2    0    0 -0.66351818686E+01  0.63556007967E+02 -0.11299995607E+03  0.16326948299E+03  0.99017888366E+02 0.  0.
         23    2    1    2    0    0  0.37941145563E+02 -0.75375015227E+02  0.18997662718E+03  0.22723644498E+03  0.91784310236E+02 0.  0.
        -11    1    3    3    0    0  0.27157779737E+02 -0.15796357535E+02 -0.26247624841E+02  0.40939073284E+02  0.00000000000E+00 0.  1.
         11    1    3    3    0    0 -0.33792961605E+02  0.79352365502E+02 -0.86752331231E+02  0.12233040971E+03  0.00000000000E+00 0. -1.
        -13    1    4    4    0    0  0.66012892505E+02 -0.43075694560E+02  0.97800586951E+02  0.12561119475E+03  0.00000000000E+00 0.  1.
         13    1    4    4    0    0 -0.28071746942E+02 -0.32299320667E+02  0.92176040230E+02  0.10162525023E+03  0.00000000000E+00 0. -1.
          2    1    1    2  501    0 -0.31305963694E+02  0.11819007260E+02  0.23103433943E+03  0.23344510766E+03  0.00000000000E+00 0. -1.
<scales pt_clust_5="13000.00000" pt_clust_6="13000.00000" pt_clust_7="13000.00000" pt_clust_8="13000.00000" pt_clust_9="33.46270"></scales>
<clustering>
<clus scale="   33.463">  1  9  2 -1</clus>
<clus scale="   91.784">  7  8 -1 -1</clus>
<clus scale="   99.018">  5  6 -1 -1</clus>
<clus scale="  112.814">  1  7  2 -1</clus>
<clus scale="   33.463">  1  5  2 -1</clus>
</clustering>
</event>
<event>
 9    1  0.1426358E-005  0.9478612E+02  0.7546771E-02  0.1292482E+00
         -1   -1    0    0    0  501 -0.00000000000E+00  0.00000000000E+00  0.18973643333E+03  0.18973643333E+03  0.00000000000E+00 0.  1.
         21   -1    0    0  501  502  0.00000000000E+00 -0.00000000000E+00 -0.16101387361E+03  0.16101387361E+03  0.00000000000E+00 0.  1.
         23    2    1    2    0    0  0.24576568005E+02  0.15055229525E+02  0.14272713273E+03  0.17196593362E+03  0.91490875369E+02 0.  0.
         23    2    1    2    0    0 -0.63460018524E+01 -0.20735128294E+01 -0.35195664146E+02  0.96859269555E+02  0.89991178062E+02 0.  0.
        -13    1    4    4    0    0  0.31716008755E+02  0.23301943733E+02 -0.32489796645E+02  0.51034034518E+02  0.00000000000E+00 0.  1.
         13    1    4    4    0    0 -0.38062010608E+02 -0.25375456563E+02 -0.27058675010E+01  0.45825235037E+02  0.00000000000E+00 0. -1.
        -13    1    3    3    0    0  0.25754268116E+02  0.46576786453E+02  0.12482104469E+03  0.13569440873E+03  0.00000000000E+00 0.  1.
         13    1    3    3    0    0 -0.11777001113E+01 -0.31521556929E+02  0.17906088041E+02  0.36271524888E+02  0.00000000000E+00 0. -1.
         -1    1    1    2    0  502 -0.18230566153E+02 -0.12981716695E+02 -0.78808908868E+02  0.81925103769E+02  0.00000000000E+00 0.  1.
<scales pt_clust_5="13000.00000" pt_clust_6="13000.00000" pt_clust_7="13000.00000" pt_clust_8="13000.00000" pt_clust_9="22.38032"></scales>
<clustering>
<clus scale="   22.380">  2  9  1 -1</clus>
<clus scale="   89.991">  5  6 -1 -1</clus>
<clus scale="   91.491">  7  8 -1 -1</clus>
<clus scale="   93.339">  2  5  1 -1</clus>
<clus scale="   22.380">  2  5  1 -1</clus>
</clustering>
</event>
<event>
 9    1  0.1426358E-005  0.3654054E+03  0.7546771E-02  0.1056472E+00
         -1   -1    0    0    0  501 -0.00000000000E+00  0.00000000000E+00  0.81184382377E+03  0.81184382377E+03  0.00000000000E+00 0.  1.
         21   -1    0    0  501  502  0.00000000000E+00 -0.00000000000E+00 -0.29926245263E+03  0.29926245263E+03  0.00000000000E+00 0. -1.
         23    2    1    2    0    0 -0.22663707265E+01 -0.33634534241E+03  0.46833932829E+03  0.58385679718E+03  0.91726263361E+02 0.  0.
         23    2    1    2    0    0 -0.74986895176E+01  0.39985325427E+03  0.12046791477E+03  0.42755497174E+03  0.91388621119E+02 0.  0.
        -11    1    3    3    0    0 -0.45129904689E+02 -0.22049776406E+03  0.30680817870E+03  0.38050917304E+03  0.00000000000E+00 0. -1.
         11    1    3    3    0    0  0.42863533963E+02 -0.11584757835E+03  0.16153114960E+03  0.20334762414E+03  0.00000000000E+00 0.  1.
        -13    1    4    4    0    0 -0.17036828343E+02  0.24586191852E+02 -0.77041734173E+01  0.30888325267E+02  0.00000000000E+00 0.  1.
         13    1    4    4    0    0  0.95381388259E+01  0.37526706242E+03  0.12817208819E+03  0.39666664647E+03  0.00000000000E+00 0. -1.
         -1    1    1    2    0  502  0.97650602441E+01 -0.63507911865E+02 -0.76225871922E+02  0.99694507478E+02  0.00000000000E+00 0.  1.
<scales pt_clust_5="13000.00000" pt_clust_6="13000.00000" pt_clust_7="13000.00000" pt_clust_8="13000.00000" pt_clust_9="64.25427"></scales>
<clustering>
<clus scale="   64.254">  2  9  1 -1</clus>
<clus scale="   91.389">  7  8 -1 -1</clus>
<clus scale="   91.726">  5  6 -1 -1</clus>
<clus scale="  365.321">  2  7  1 -1</clus>
<clus scale="   64.254">  2  5  1 -1</clus>
</clustering>
</event>
<event>
 9    1  0.1426358E-005  0.1090181E+03  0.7546771E-02  0.1263397E+00
         21   -1    0    0  501  502  0.00000000000E+00  0.00000000000E+00  0.33216291111E+03  0.33216291111E+03  0.00000000000E+00 0. -1.
          1   -1    0    0  502    0 -0.00000000000E+00 -0.00000000000E+00 -0.33763103913E+03  0.33763103913E+03  0.00000000000E+00 0. -1.
         23    2    1    2    0    0 -0.94453120427E+01  0.64632801647E+02 -0.13136048491E+03  0.17159119222E+03  0.89001951000E+02 0.  0.
         23    2    1    2    0    0  0.93896752904E+02  0.41690295313E+00 -0.15189643896E+03  0.20066263462E+03  0.91521531607E+02 0.  0.
        -13    1    4    4    0    0  0.37179844564E+02  0.18444855636E+01  0.13511289369E+01  0.37250080781E+02  0.00000000000E+00 0.  1.
         13    1    4    4    0    0  0.56716908340E+02 -0.14275826105E+01 -0.15324756790E+03  0.16341255384E+03  0.00000000000E+00 0. -1.
        -13    1    3    3    0    0  0.39743177832E+02  0.22861904638E+02 -0.56093460622E+02  0.72447658295E+02  0.00000000000E+00 0.  1.
         13    1    3    3    0    0 -0.49188489875E+02  0.41770897009E+02 -0.75267024287E+02  0.99143533920E+02  0.00000000000E+00 0. -1.
          1    1    1    2  501    0 -0.84451440861E+02 -0.65049704600E+02  0.27778879586E+03  0.29754012341E+03  0.00000000000E+00 0. -1.
<scales pt_clust_5="13000.00000" pt_clust_6="13000.00000" pt_clust_7="13000.00000" pt_clust_8="13000.00000" pt_clust_9="106.59977"></scales>
<clustering>
<clus scale="   89.002">  7  8 -1 -1</clus>
<clus scale="   91.522">  5  6 -1 -1</clus>
<clus scale="  106.600">  1  9  2 -1</clus>
<clus scale="  106.912">  2  7  1 -1</clus>
<clus scale="  106.600">  1  5  2 -1</clus>
</clustering>
</event>
<event>
 9    1  0.1489768E-005  0.9202320E+02  0.7546771E-02  0.1301316E+00
          3   -1    0    0  502    0 -0.00000000000E+00  0.00000000000E+00  0.23595785277E+03  0.23595785277E+03  0.00000000000E+00 0. -1.
         21   -1    0    0  501  502  0.00000000000E+00 -0.00000000000E+00 -0.15274981011E+03  0.15274981011E+03  0.00000000000E+00 0. -1.
         23    2    1    2    0    0 -0.33455689132E+00  0.26624707864E+02  0.16515059770E+03  0.18760100301E+03  0.84914247410E+02 0.  0.
         23    2    1    2    0    0 -0.16400956345E+02  0.19795769608E+02  0.12208275024E+02  0.94808414656E+02  0.90436329244E+02 0.  0.
        -11    1    3    3    0    0 -0.25663026153E+02 -0.16252769570E+01  0.95328017735E+01  0.27424564649E+02  0.00000000000E+00 0.  1.
         11    1    3    3    0    0  0.25328469262E+02  0.28249984821E+02  0.15561779593E+03  0.16017643836E+03  0.00000000000E+00 0. -1.
        -13    1    4    4    0    0 -0.18085795162E+02 -0.34477583768E+02 -0.92103204775E+00  0.38944166048E+02  0.00000000000E+00 0. -1.
         13    1    4    4    0    0  0.16848388176E+01  0.54273353375E+02  0.13129307072E+02  0.55864248609E+02  0.00000000000E+00 0.  1.
          3    1    1    2  501    0  0.16735513236E+02 -0.46420477472E+02 -0.94150830068E+02  0.10629824521E+03  0.00000000000E+00 0. -1.
<scales pt_clust_5="13000.00000" pt_clust_6="13000.00000" pt_clust_7="13000.00000" pt_clust_8="13000.00000" pt_clust_9="49.34509"></scales>
<clustering>
<clus scale="   49.345">  2  9  1 -1</clus>
<clus scale="   84.914">  5  6 -1 -1</clus>
<clus scale="   86.602">  1  5  2 -1</clus>
<clus scale="   90.436">  7  8 -1 -1</clus>
<clus scale="   49.345">  2  5  1 -1</clus>
</clustering>
</event>
<event>
 9    1  0.1426358E-005  0.1112688E+03  0.7546771E-02  0.1258687E+00
          3   -1    0    0  502    0 -0.00000000000E+00  0.00000000000E+00  0.18647227321E+03  0.18647227321E+03  0.00000000000E+00 0. -1.
         21   -1    0    0  501  502  0.00000000000E+00 -0.00000000000E+00 -0.13004349051E+03  0.13004349051E+03  0.00000000000E+00 0. -1.
         23    2    1    2    0    0  0.27497038171E+02  0.72146336314E+02  0.53046506026E+02  0.12943341379E+03  0.89319067681E+02 0.  0.
         23    2    1    2    0    0 -0.63374307724E+02 -0.19064358750E+02  0.32434406345E+02  0.11673392385E+03  0.90526601664E+02 0.  0.
        -11    1    3    3    0    0 -0.23448681106E+02  0.19208891286E+02  0.46719606372E+02  0.55691505363E+02  0.00000000000E+00 0.  1.
         11    1    3    3    0    0  0.50945719277E+02  0.52937445028E+02  0.63268996539E+01  0.73741908424E+02  0.00000000000E+00 0. -1.
        -13    1    4    4    0    0 -0.15301686121E+02 -0.30135376019E+02 -0.24244170933E+02  0.41594017721E+02  0.00000000000E+00 0.  1.
         13    1    4    4    0    0 -0.48072621604E+02  0.11071017269E+02  0.56678577278E+02  0.75139906132E+02  0.00000000000E+00 0. -1.
          3    1    1    2  501    0  0.35877269553E+02 -0.53081977564E+02 -0.29052129675E+02  0.70348426076E+02  0.00000000000E+00 0. -1.
<scales pt_clust_5="13000.00000" pt_clust_6="13000.00000" pt_clust_7="13000.00000" pt_clust_8="13000.00000" pt_clust_9="64.06930"></scales>
<clustering>
<clus scale="   64.069">  2  9  1 -1</clus>
<clus scale="   89.319">  5  6 -1 -1</clus>
<clus scale="   90.527">  7  8 -1 -1</clus>
<clus scale="  110.289">  1  5  2 -1</clus>
<clus scale="   64.069">  2  5  1 -1</clus>
</clustering>
</event>
<event>
 9    1  0.1426358E-005  0.9617165E+02  0.7546771E-02  0.1289943E+00
          2   -1    0    0  502    0 -0.00000000000E+00  0.00000000000E+00  0.58812697461E+03  0.58812697461E+03  0.00000000000E+00 0. -1.
         21   -1    0    0  501  502  0.00000000000E+00 -0.00000000000E+00 -0.20665497551E+02  0.20665497551E+02  0.00000000000E+00 0.  1.
         23    2    1    2    0    0  0.11854596801E+02  0.29354770632E+02  0.33358296678E+03  0.34766497745E+03  0.92688223597E+02 0.  0.
         23    2    1    2    0    0 -0.18978783926E+02 -0.91210223967E+01  0.20690769937E+03  0.22666616492E+03  0.90129723029E+02 0.  0.
        -11    1    3    3    0    0  0.36889658837E+02 -0.19217530083E+02  0.11294276915E+03  0.12035875330E+03  0.00000000000E+00 0. -1.
         11    1    3    3    0    0 -0.25035062036E+02  0.48572300715E+02  0.22064019763E+03  0.22730622415E+03  0.00000000000E+00 0.  1.
        -13    1    4    4    0    0  0.11630673326E+02  0.25470161697E+02  0.15359928555E+03  0.15613052943E+03  0.00000000000E+00 0.  1.
         13    1    4    4    0    0 -0.30609457253E+02 -0.34591184094E+02  0.53308413824E+02  0.70535635495E+02  0.00000000000E+00 0. -1.
          2    1    1    2  501    0  0.71241871250E+01 -0.20233748235E+02  0.26970810908E+02  0.34461329789E+02  0.00000000000E+00 0. -1.
<scales pt_clust_5="13000.00000" pt_clust_6="13000.00000" pt_clust_7="13000.00000" pt_clust_8="13000.00000" pt_clust_9="21.45131"></scales>
<clustering>
<clus scale="   21.451">  2  9  1 -1</clus>
<clus scale="   90.130">  7  8 -1 -1</clus>
<clus scale="   92.688">  5  6 -1 -1</clus>
<clus scale="   93.708">  2  7  1 -1</clus>
<clus scale="   21.451">  2  5  1 -1</clus>
</clustering>
</event>
<event>
 9    1  0.1426358E-005  0.1346477E+03  0.7546771E-02  0.1221720E+00
          2   -1    0    0  502    0 -0.00000000000E+00  0.00000000000E+00  0.18780241351E+03  0.18780241351E+03  0.00000000000E+00 0. -1.
         21   -1    0    0  501  502  0.00000000000E+00 -0.00000000000E+00 -0.20531636795E+03  0.20531636795E+03  0.00000000000E+00 0.  1.
         23    2    1    2    0    0  0.66644555422E+02 -0.49230113490E+02  0.56796922751E+02  0.13363275123E+03  0.88129001612E+02 0.  0.
         23    2    1    2    0    0 -0.13276629307E+03  0.37806113274E+02 -0.96790989574E+01  0.16632027081E+03  0.92263517968E+02 0.  0.
        -11    1    4    4    0    0 -0.48193578120E+02  0.61182045131E+02 -0.10389547479E+02  0.78573572626E+02  0.00000000000E+00 0. -1.
         11    1    4    4    0    0 -0.84572714952E+02 -0.23375931857E+02  0.71044852192E+00  0.87746698181E+02  0.00000000000E+00 0.  1.
        -13    1    3    3    0    0  0.47895477739E+02 -0.72280254824E+02  0.25281476765E+02  0.90319239881E+02  0.00000000000E+00 0. -1.
         13    1    3    3    0    0  0.18749077683E+02  0.23050141334E+02  0.31515445985E+02  0.43313511346E+02  0.00000000000E+00 0.  1.
          2    1    1    2  501    0  0.66121737650E+02  0.11424000216E+02 -0.64631778237E+02  0.93165759423E+02  0.00000000000E+00 0. -1.
<scales pt_clust_5="13000.00000" pt_clust_6="13000.00000" pt_clust_7="13000.00000" pt_clust_8="13000.00000" pt_clust_9="67.10136"></scales>
<clustering>
<clus scale="   67.101">  2  9  1 -1</clus>
<clus scale="   88.129">  7  8 -1 -1</clus>
<clus scale="   92.264">  5  6 -1 -1</clus>
<clus scale="  131.849">  1  7  2 -1</clus>
<clus scale="   67.101">  2  5  1 -1</clus>
</clustering>
</event>
<event>
 9    1  0.1426358E-005  0.9311715E+02  0.7546771E-02  0.1295798E+00
         -3   -1    0    0    0  501 -0.00000000000E+00  0.00000000000E+00  0.90536998886E+02  0.90536998886E+02  0.00000000000E+00 0.  1.
         21   -1    0    0  501  502  0.00000000000E+00 -0.00000000000E+00 -0.24693668296E+03  0.24693668296E+03  0.00000000000E+00 0. -1.
         23    2    1    2    0    0  0.43279638485E+01 -0.99258869267E+01  0.31708700501E+02  0.97945712135E+02  0.92036222955E+02 0.  0.
         23    2    1    2    0    0 -0.29552872506E+02 -0.26785811784E+02 -0.10716171169E+03  0.14713528228E+03  0.92597553171E+02 0.  0.
        -13    1    4    4    0    0 -0.62850542500E+02 -0.18000522119E+02 -0.79734711334E+02  0.10311078353E+03  0.00000000000E+00 0. -1.
         13    1    4    4    0    0  0.33297669994E+02 -0.87852896647E+01 -0.27427000352E+02  0.44024498746E+02  0.00000000000E+00 0.  1.
        -13    1    3    3    0    0 -0.31862000924E+02  0.11301797001E+02  0.42806583245E+02  0.54546505731E+02  0.00000000000E+00 0. -1.
         13    1    3    3    0    0  0.36189964772E+02 -0.21227683928E+02 -0.11097882744E+02  0.43399206405E+02  0.00000000000E+00 0.  1.
         -3    1    1    2    0  502  0.25224908657E+02  0.36711698710E+02 -0.80946672888E+02  0.92392687430E+02  0.00000000000E+00 0.  1.
<scales pt_clust_5="13000.00000" pt_clust_6="13000.00000" pt_clust_7="13000.00000" pt_clust_8="13000.00000" pt_clust_9="44.54262"></scales>
<clustering>
<clus scale="   44.543">  2  9  1 -1</clus>
<clus scale="   92.036">  7  8 -1 -1</clus>
<clus scale="   92.559">  1  7  2 -1</clus>
<clus scale="   92.598">  5  6 -1 -1</clus>
<clus scale="   44.543">  2  5  1 -1</clus>
</clustering>
</event>
<event>
 9    1  0.1426358E-005  0.1877575E+03  0.7546771E-02  0.1161186E+00
         21   -1    0    0  501  502  0.00000000000E+00  0.00000000000E+00  0.30013387393E+03  0.30013387393E+03  0.00000000000E+00 0.  1.
         -1   -1    0    0    0  501 -0.00000000000E+00 -0.00000000000E+00 -0.22419728694E+03  0.22419728694E+03  0.00000000000E+00 0.  1.
         23    2    1    2    0    0 -0.27614662580E+02 -0.18038683714E+03 -0.69116934927E+02  0.21702362442E+03  0.94974324224E+02 0.  0.
         23    2    1    2    0    0  0.56623339353E+02  0.12746805169E+03  0.17696856355E+02  0.16637627149E+03  0.88958294882E+02 0.  0.
        -11    1    3    3    0    0 -0.23855158230E+02 -0.14988446717E+02  0.14463346704E+02  0.31668762322E+02  0.00000000000E+00 0.  1.
         11    1    3    3    0    0 -0.37595043503E+01 -0.16539839042E+03 -0.83580281631E+02  0.18535486210E+03  0.00000000000E+00 0. -1.
        -13    1    4    4    0    0  0.60306947107E+02  0.32500778709E+02 -0.49197778933E+01  0.68683569364E+02  0.00000000000E+00 0.  1.
         13    1    4    4    0    0 -0.36836077540E+01  0.94967272984E+02  0.22616634249E+02  0.97692702127E+02  0.00000000000E+00 0. -1.
         -1    1    1    2    0  502 -0.29008676773E+02  0.52918785443E+02  0.12735666556E+03  0.14093126496E+03  0.00000000000E+00 0.  1.
<scales pt_clust_5="13000.00000" pt_clust_6="13000.00000" pt_clust_7="13000.00000" pt_clust_8="13000.00000" pt_clust_9="60.34817"></scales>
<clustering>
<clus scale="   60.348">  1  9  2 -1</clus>
<clus scale="   88.958">  7  8 -1 -1</clus>
<clus scale="   94.974">  5  6 -1 -1</clus>
<clus scale="  184.787">  1  7  2 -1</clus>
<clus scale="   60.348">  1  5  2 -1</clus>
</clustering>
</event>
<event>
 9    1  0.1426358E-005  0.9303268E+02  0.7546771E-02  0.1295759E+00
          1   -1    0    0  502    0 -0.00000000000E+00  0.00000000000E+00  0.40785788782E+03  0.40785788782E+03  0.00000000000E+00 0. -1.
         21   -1    0    0  501  502  0.00000000000E+00 -0.00000000000E+00 -0.47136391376E+02  0.47136391376E+02  0.00000000000E+00 0.  1.
         23    2    1    2    0    0 -0.57136563740E+01  0.90649362121E+01  0.30366327596E+03  0.31746416908E+03  0.91963550088E+02 0.  0.
         23    2    1    2    0    0 -0.10274460273E+02 -0.27340028689E+02  0.58909452670E+02  0.11317798619E+03  0.92118897312E+02 0.  0.
        -11    1    4    4    0    0  0.80556280449E+01  0.32167077965E+02  0.29212162635E+02  0.44192357867E+02  0.00000000000E+00 0. -1.
         11    1    4    4    0    0 -0.18330088318E+02 -0.59507106654E+02  0.29697290035E+02  0.68985628325E+02  0.00000000000E+00 0.  1.
        -11    1    3    3    0    0 -0.44770593808E+02 -0.72624424795E+01  0.10561261586E+03  0.11493987023E+03  0.00000000000E+00 0.  1.
         11    1    3    3    0    0  0.39056937434E+02  0.16327378692E+02  0.19805066010E+03  0.20252429884E+03  0.00000000000E+00 0. -1.
          1    1    1    2  501    0  0.15988116647E+02  0.18275092477E+02 -0.18512321876E+01  0.24352123923E+02  0.00000000000E+00 0. -1.
<scales pt_clust_5="13000.00000" pt_clust_6="13000.00000" pt_clust_7="13000.00000" pt_clust_8="13000.00000" pt_clust_9="24.28166"></scales>
<clustering>
<clus scale="   24.282">  2  9  1 -1</clus>
<clus scale="   91.964">  7  8 -1 -1</clus>
<clus scale="   92.119">  5  6 -1 -1</clus>
<clus scale="   92.879">  1  7  2 -1</clus>
<clus scale="   24.282">  2  5  1 -1</clus>
</clustering>
</event>
<event>
 9    1  0.1426358E-005  0.4287977E+03  0.7546771E-02  0.1034262E+00
          1   -1    0    0  502    0 -0.00000000000E+00  0.00000000000E+00  0.33958801092E+03  0.33958801092E+03  0.00000000000E+00 0. -1.
         21   -1    0    0  501  502  0.00000000000E+00 -0.00000000000E+00 -0.82403877749E+03  0.82403877749E+03  0.00000000000E+00 0. -1.
         23    2    1    2    0    0 -0.23756760116E+03 -0.41845995169E+03 -0.57702681977E+02  0.49338346722E+03  0.92469183714E+02 0.  0.
         23    2    1    2    0    0  0.20822350634E+03  0.27575941547E+03 -0.23040448273E+03  0.42575338493E+03  0.93698640899E+02 0.  0.
        -11    1    3    3    0    0 -0.45991896548E+02 -0.14961957234E+03 -0.45642248029E+02  0.16304749548E+03  0.00000000000E+00 0.  1.
         11    1    3    3    0    0 -0.19157570461E+03 -0.26884037934E+03 -0.12060433947E+02  0.33033597175E+03  0.00000000000E+00 0. -1.
        -13    1    4    4    0    0  0.16433724856E+03  0.14192465667E+03 -0.14271577387E+03  0.25984058872E+03  0.00000000000E+00 0. -1.
         13    1    4    4    0    0  0.43886257779E+02  0.13383475881E+03 -0.87688708863E+02  0.16591279622E+03  0.00000000000E+00 0.  1.
          1    1    1    2  501    0  0.29344094825E+02  0.14270053621E+03 -0.19634360186E+03  0.24448993625E+03  0.00000000000E+00 0. -1.
<scales pt_clust_5="13000.00000" pt_clust_6="13000.00000" pt_clust_7="13000.00000" pt_clust_8="13000.00000" pt_clust_9="145.68637"></scales>
<clustering>
<clus scale="   92.469">  5  6 -1 -1</clus>
<clus scale="   93.699">  7  8 -1 -1</clus>
<clus scale="  145.686">  2  9  1 -1</clus>
<clus scale="  428.531">  1  5  2 -1</clus>
<clus scale="  145.686">  2  5  1 -1</clus>
</clustering>
</event>
<event>
 9    1  0.1426358E-005  0.9478032E+02  0.7546771E-02  0.1292042E+00
         21   -1    0    0  501  502  0.00000000000E+00  0.00000000000E+00  0.28673186382E+02  0.28673186382E+02  0.00000000000E+00 0. -1.
          2   -1    0    0  502    0 -0.00000000000E+00 -0.00000000000E+00 -0.83407145079E+03  0.83407145079E+03  0.00000000000E+00 0. -1.
         23    2    1    2    0    0  0.51804753120E+01  0.36033133706E+02 -0.33136988906E+03  0.34579448025E+03  0.91883595642E+02 0.  0.
         23    2    1    2    0    0 -0.46846962217E+02  0.49463159341E+02 -0.27095631960E+03  0.29270927732E+03  0.87293481430E+02 0.  0.
        -11    1    4    4    0    0 -0.48386411480E+02 -0.49574659950E+01 -0.18224693667E+03  0.18862599824E+03  0.00000000000E+00 0.  1.
         11    1    4    4    0    0  0.15394492623E+01  0.54420625336E+02 -0.88709382924E+02  0.10408327908E+03  0.00000000000E+00 0. -1.
        -13    1    3    3    0    0  0.28111786330E+02  0.54876843149E+02 -0.27771605935E+03  0.28447838242E+03  0.00000000000E+00 0. -1.
         13    1    3    3    0    0 -0.22931311018E+02 -0.18843709442E+02 -0.53653829711E+02  0.61316097831E+02  0.00000000000E+00 0.  1.
          2    1    1    2  501    0  0.41666486905E+02 -0.85496293048E+02 -0.20307205575E+03  0.22424087960E+03  0.00000000000E+00 0. -1.
<scales pt_clust_5="13000.00000" pt_clust_6="13000.00000" pt_clust_7="13000.00000" pt_clust_8="13000.00000" pt_clust_9="95.10895"></scales>
<clustering>
<clus scale="   87.293">  5  6 -1 -1</clus>
<clus scale="   91.884">  7  8 -1 -1</clus>
<clus scale="   95.109">  1  9  2 -1</clus>
<clus scale="   95.109">  1  5  2 -1</clus>
<clus scale="   94.780">  1  5  2 -1</clus>
</clustering>
</event>
<event>
 9    1  0.1426358E-005  0.1378764E+03  0.7546771E-02  0.1226012E+00
          1   -1    0    0  502    0 -0.00000000000E+00  0.00000000000E+00  0.36071182200E+03  0.36071182200E+03  0.00000000000E+00 0. -1.
         21   -1    0    0  501  502  0.00000000000E+00 -0.00000000000E+00 -0.12558695529E+03  0.12558695529E+03  0.00000000000E+00 0. -1.
         23    2    1    2    0    0  0.61766503481E+02 -0.16423326079E+02  0.27446762417E+03  0.29598964650E+03  0.90512803103E+02 0.  0.
         23    2    1    2    0    0 -0.82897639583E+02  0.15106634965E+02 -0.19094350494E+01  0.14730317520E+03  0.12080707932E+03 0.  0.
        -11    1    3    3    0    0  0.28467335374E+02  0.35884896295E+02  0.83924808968E+02  0.95611131809E+02  0.00000000000E+00 0.  1.
         11    1    3    3    0    0  0.33299168107E+02 -0.52308222374E+02  0.19054281521E+03  0.20037851470E+03  0.00000000000E+00 0. -1.
        -13    1    4    4    0    0 -0.14469539460E+02 -0.33090654045E+02  0.39837341178E+02  0.53771486026E+02  0.00000000000E+00 0. -1.
         13    1    4    4    0    0 -0.68428100123E+02  0.48197289010E+02 -0.41746776227E+02  0.93531689174E+02  0.00000000000E+00 0.  1.
          1    1    1    2  501    0  0.21131136102E+02  0.13166911141E+01 -0.37433322414E+02  0.43005955580E+02  0.00000000000E+00 0. -1.
<scales pt_clust_5="13000.00000" pt_clust_6="13000.00000" pt_clust_7="13000.00000" pt_clust_8="13000.00000" pt_clust_9="21.17212"></scales>
<clustering>
<clus scale="   21.172">  2  9  1 -1</clus>
<clus scale="   90.513">  5  6 -1 -1</clus>
<clus scale="  112.286">  1  5  2 -1</clus>
<clus scale="  120.807">  7  8 -1 -1</clus>
<clus scale="   21.172">  2  5  1 -1</clus>
</clustering>
</event>
<event>
 9    1  0.1426358E-005  0.2105509E+03  0.7546771E-02  0.1141314E+00
         21   -1    0    0  501  502  0.00000000000E+00  0.00000000000E+00  0.96310910742E+02  0.96310910742E+02  0.00000000000E+00 0. -1.
          4   -1    0    0  502    0 -0.00000000000E+00 -0.00000000000E+00 -0.71316406991E+03  0.71316406991E+03  0.00000000000E+00 0. -1.
         23    2    1    2    0    0  0.18481061081E+03 -0.66253573997E+02 -0.49143447160E+03  0.53749803510E+03  0.94084004626E+02 0.  0.
         23    2    1    2    0    0 -0.16633115178E+03  0.42039862293E+02 -0.13841647799E+03  0.23885992883E+03  0.91986641149E+02 0.  0.
        -11    1    3    3    0    0  0.18721431863E+02 -0.30001166064E+02 -0.17247887302E+03  0.17606681577E+03  0.00000000000E+00 0.  1.
         11    1    3    3    0    0  0.16608917895E+03 -0.36252407934E+02 -0.31895559858E+03  0.36143121934E+03  0.00000000000E+00 0. -1.
        -11    1    4    4    0    0 -0.10946049733E+03 -0.17550110540E+02 -0.64941205569E+02  0.12847944207E+03  0.00000000000E+00 0. -1.
         11    1    4    4    0    0 -0.56870654450E+02  0.59589972832E+02 -0.73475272420E+02  0.11038048676E+03  0.00000000000E+00 0.  1.
          4    1    1    2  501    0 -0.18479459034E+02  0.24213711705E+02  0.12997790418E+02  0.33117016720E+02  0.00000000000E+00 0. -1.
<scales pt_clust_5="13000.00000" pt_clust_6="13000.00000" pt_clust_7="13000.00000" pt_clust_8="13000.00000" pt_clust_9="30.45972"></scales>
<clustering>
<clus scale="   30.460">  1  9  2 -1</clus>
<clus scale="   91.987">  7  8 -1 -1</clus>
<clus scale="   94.084">  5  6 -1 -1</clus>
<clus scale="  209.622">  1  7  2 -1</clus>
<clus scale="   30.460">  1  5  2 -1</clus>
</clustering>
</event>
<event>
 9    1  0.1426358E-005  0.1002188E+03  0.7546771E-02  0.1280147E+00
          1   -1    0    0  502    0 -0.00000000000E+00  0.00000000000E+00  0.58427222047E+03  0.58427222047E+03  0.00000000000E+00 0. -1.
         21   -1    0    0  501  502  0.00000000000E+00 -0.00000000000E+00 -0.46577635820E+02  0.46577635820E+02  0.00000000000E+00 0. -1.
         23    2    1    2    0    0  0.52203142540E+02 -0.13926898669E+02  0.40665385858E+03  0.42009899858E+03  0.90535525153E+02 0.  0.
         23    2    1    2    0    0 -0.10754629948E+02  0.16771468987E+02  0.13998934409E+03  0.16825205136E+03  0.91185481798E+02 0.  0.
        -11    1    3    3    0    0 -0.10265033032E+02  0.27523243999E+02  0.14343204443E+03  0.14640919108E+03  0.00000000000E+00 0.  1.
         11    1    3    3    0    0  0.62468175572E+02 -0.41450142668E+02  0.26322181415E+03  0.27368980751E+03  0.00000000000E+00 0. -1.
        -13    1    4    4    0    0  0.14318452075E+02  0.19947840161E+02  0.14083979280E+03  0.14296426698E+03  0.00000000000E+00 0. -1.
         13    1    4    4    0    0 -0.25073082023E+02 -0.31763711746E+01 -0.85044870840E+00  0.25287784383E+02  0.00000000000E+00 0.  1.
          1    1    1    2  501    0 -0.41448512592E+02 -0.28445703175E+01 -0.89486180213E+01  0.42498806346E+02  0.00000000000E+00 0. -1.
<scales pt_clust_5="13000.00000" pt_clust_6="13000.00000" pt_clust_7="13000.00000" pt_clust_8="13000.00000" pt_clust_9="41.54601"></scales>
<clustering>
<clus scale="   41.546">  2  9  1 -1</clus>
<clus scale="   90.536">  5  6 -1 -1</clus>
<clus scale="   91.185">  7  8 -1 -1</clus>
<clus scale="   99.628">  1  5  2 -1</clus>
<clus scale="   41.546">  2  5  1 -1</clus>
</clustering>
</event>
<event>
 9    1  0.1426358E-005  0.1646563E+03  0.7546771E-02  0.1183596E+00
          3   -1    0    0  502    0 -0.00000000000E+00  0.00000000000E+00  0.11948166411E+03  0.11948166411E+03  0.00000000000E+00 0. -1.
         21   -1    0    0  501  502  0.00000000000E+00 -0.00000000000E+00 -0.44546604609E+03  0.44546604609E+03  0.00000000000E+00 0.  1.
         23    2    1    2    0    0  0.13808315280E+03 -0.24052591946E+02  0.21925454495E+02  0.16889053182E+03  0.91639521589E+02 0.  0.
         23    2    1    2    0    0 -0.11513964276E+03  0.48048245336E+02 -0.26950400338E+03  0.31091218030E+03  0.92022849379E+02 0.  0.
        -11    1    3    3    0    0  0.11195721071E+03 -0.56322355288E+02  0.22690457104E+02  0.12736358026E+03  0.00000000000E+00 0. -1.
         11    1    3    3    0    0  0.26125942098E+02  0.32269763343E+02 -0.76500260864E+00  0.41526951558E+02  0.00000000000E+00 0.  1.
        -13    1    4    4    0    0 -0.58144402536E+02  0.14751620752E+02 -0.22100692498E+03  0.22900315009E+03  0.00000000000E+00 0.  1.
         13    1    4    4    0    0 -0.56995240227E+02  0.33296624584E+02 -0.48497078394E+02  0.81909030210E+02  0.00000000000E+00 0. -1.
          3    1    1    2  501    0 -0.22943510041E+02 -0.23995653391E+02 -0.78405833095E+02  0.85144998079E+02  0.00000000000E+00 0. -1.
<scales pt_clust_5="13000.00000" pt_clust_6="13000.00000" pt_clust_7="13000.00000" pt_clust_8="13000.00000" pt_clust_9="33.19934"></scales>
<clustering>
<clus scale="   33.199">  2  9  1 -1</clus>
<clus scale="   91.640">  5  6 -1 -1</clus>
<clus scale="   92.023">  7  8 -1 -1</clus>
<clus scale="  164.442">  1  5  2 -1</clus>
<clus scale="   33.199">  2  5  1 -1</clus>
</clustering>
</event>
<event>
 9    1  0.1426358E-005  0.9557118E+02  0.7546771E-02  0.1291712E+00
         21   -1    0    0  501  502  0.00000000000E+00  0.00000000000E+00  0.41698014805E+02  0.41698014805E+02  0.00000000000E+00 0. -1.
          2   -1    0    0  502    0 -0.00000000000E+00 -0.00000000000E+00 -0.45937516255E+03  0.45937516255E+03  0.00000000000E+00 0. -1.
         23    2    1    2    0    0 -0.38095234146E+01  0.21561558448E+01 -0.23593234450E+03  0.25275948466E+03  0.90576621850E+02 0.  0.
         23    2    1    2    0    0  0.39937007269E+02 -0.36405300731E+01 -0.18575145626E+03  0.21193441666E+03  0.93831633554E+02 0.  0.
        -13    1    3    3    0    0 -0.35231764231E+02 -0.27887205258E+02 -0.91685761570E+02  0.10210412481E+03  0.00000000000E+00 0.  1.
         13    1    3    3    0    0  0.31422240816E+02  0.30043361103E+02 -0.14424658293E+03  0.15065535985E+03  0.00000000000E+00 0. -1.
        -13    1    4    4    0    0 -0.16461579218E+02  0.27826106061E+02 -0.96467148242E+02  0.10174078071E+03  0.00000000000E+00 0.  1.
         13    1    4    4    0    0  0.56398586487E+02 -0.31466636134E+02 -0.89284308016E+02  0.11019363596E+03  0.00000000000E+00 0. -1.
          2    1    1    2  501    0 -0.36127483854E+02  0.14843742284E+01  0.40066530134E+01  0.36379276036E+02  0.00000000000E+00 0. -1.
<scales pt_clust_5="13000.00000" pt_clust_6="13000.00000" pt_clust_7="13000.00000" pt_clust_8="13000.00000" pt_clust_9="36.15797"></scales>
<clustering>
<clus scale="   36.158">  1  9  2 -1</clus>
<clus scale="   90.577">  5  6 -1 -1</clus>
<clus scale="   92.377">  2  5  1 -1</clus>
<clus scale="   93.832">  7  8 -1 -1</clus>
<clus scale="   36.158">  1  5  2 -1</clus>
</clustering>
</event>
<event>
 9    1  0.1426358E-005  0.3434155E+03  0.7546771E-02  0.1106555E+00
         21   -1    0    0  501  502  0.00000000000E+00  0.00000000000E+00  0.27199588088E+03  0.27199588088E+03  0.00000000000E+00 0. -1.
          1   -1    0    0  502    0 -0.00000000000E+00 -0.00000000000E+00 -0.63425468500E+03  0.63425468500E+03  0.00000000000E+00 0. -1.
         23    2    1    2    0    0  0.64849051581E+02  0.27040121478E+02  0.63036999870E+01  0.11471970455E+03  0.90467156014E+02 0.  0.
         23    2    1    2    0    0  0.23708906085E+03 -0.19570424498E+03 -0.29897197461E+03  0.43874615064E+03  0.92750034067E+02 0.  0.
        -11    1    4    4    0    0  0.19080492354E+02 -0.45882938960E+02 -0.85229674060E+02  0.98658028647E+02  0.00000000000E+00 0.  1.
         11    1    4    4    0    0  0.21800856850E+03 -0.14982130602E+03 -0.21374230055E+03  0.34008812200E+03  0.00000000000E+00 0. -1.
        -11    1    3    3    0    0  0.87175994251E+02  0.28540940147E+02  0.90498441924E+01  0.92174502538E+02  0.00000000000E+00 0.  1.
         11    1    3    3    0    0 -0.22326942670E+02 -0.15008186687E+01 -0.27461442054E+01  0.22545202010E+02  0.00000000000E+00 0. -1.
          1    1    1    2  501    0 -0.30193811243E+03  0.16866412351E+03 -0.69590529492E+02  0.35278471068E+03  0.00000000000E+00 0. -1.
<scales pt_clust_5="13000.00000" pt_clust_6="13000.00000" pt_clust_7="13000.00000" pt_clust_8="13000.00000" pt_clust_9="330.65335"></scales>
<clustering>
<clus scale="   90.467">  7  8 -1 -1</clus>
<clus scale="   92.750">  5  6 -1 -1</clus>
<clus scale="  114.546">  2  7  1 -1</clus>
<clus scale="  330.653">  1  9  2 -1</clus>
<clus scale="  330.653">  1  5  2 -1</clus>
</clustering>
</event>
<event>
 9    1  0.1426358E-005  0.2831245E+03  0.7546771E-02  0.1094104E+00
         21   -1    0    0  501  502  0.00000000000E+00  0.00000000000E+00  0.21323355101E+03  0.21323355101E+03  0.00000000000E+00 0. -1.
          2   -1    0    0  502    0 -0.00000000000E+00 -0.00000000000E+00 -0.14728353476E+04  0.14728353476E+04  0.00000000000E+00 0. -1.
         23    2    1    2    0    0 -0.28641634621E+03 -0.33347692840E+02 -0.10753151283E+04  0.11171356643E+04  0.92428757994E+02 0.  0.
         23    2    1    2    0    0  0.22886435808E+03 -0.16263693300E+02 -0.32568539517E+03  0.40841183110E+03  0.89921326939E+02 0.  0.
        -13    1    4    4    0    0  0.90463353741E+02  0.37302069309E+02 -0.13700288878E+03  0.16835930113E+03  0.00000000000E+00 0. -1.
         13    1    4    4    0    0  0.13840100434E+03 -0.53565762609E+02 -0.18868250639E+03  0.24005252997E+03  0.00000000000E+00 0.  1.
        -13    1    3    3    0    0 -0.14748075377E+03 -0.47472553485E+00 -0.70479427577E+03  0.72005955952E+03  0.00000000000E+00 0. -1.
         13    1    3    3    0    0 -0.13893559244E+03 -0.32872967305E+02 -0.37052085249E+03  0.39707610474E+03  0.00000000000E+00 0.  1.
          2    1    1    2  501    0  0.57551988132E+02  0.49611386140E+02  0.14139872680E+03  0.16052140329E+03  0.00000000000E+00 0. -1.
<scales pt_clust_5="13000.00000" pt_clust_6="13000.00000" pt_clust_7="13000.00000" pt_clust_8="13000.00000" pt_clust_9="75.98369"></scales>
<clustering>
<clus scale="   75.984">  1  9  2 -1</clus>
<clus scale="   89.921">  5  6 -1 -1</clus>
<clus scale="   92.429">  7  8 -1 -1</clus>
<clus scale="  282.316">  1  5  2 -1</clus>
<clus scale="   75.984">  1  5  2 -1</clus>
</clustering>
</event>
<event>
 9    1  0.1426358E-005  0.9446052E+02  0.7546771E-02  0.1293918E+00
          4   -1    0    0  502    0 -0.00000000000E+00  0.00000000000E+00  0.12098130184E+03  0.12098130184E+03  0.00000000000E+00 0. -1.
         21   -1    0    0  501  502  0.00000000000E+00 -0.00000000000E+00 -0.12372451932E+03  0.12372451932E+03  0.00000000000E+00 0.  1.
         23    2    1    2    0    0 -0.34672392346E+01  0.20077753788E+02  0.44643306141E+02  0.10514665616E+03  0.92992776998E+02 0.  0.
         23    2    1    2    0    0 -0.14850897797E+02 -0.99761975673E+01 -0.48890336262E+01  0.92192169751E+02  0.90307363101E+02 0.  0.
        -11    1    4    4    0    0 -0.15475602822E+02 -0.46646752349E+02 -0.19280893536E+02  0.52793623128E+02  0.00000000000E+00 0.  1.
         11    1    4    4    0    0  0.62470502499E+00  0.36670554782E+02  0.14391859910E+02  0.39398546623E+02  0.00000000000E+00 0. -1.
        -11    1    3    3    0    0 -0.41513153583E+02 -0.14227772787E+02  0.22836075270E+02  0.49469766248E+02  0.00000000000E+00 0.  1.
         11    1    3    3    0    0  0.38045914349E+02  0.34305526575E+02  0.21807230871E+02  0.55676889914E+02  0.00000000000E+00 0. -1.
          4    1    1    2  501    0  0.18318137032E+02 -0.10101556221E+02 -0.42497489995E+02  0.47366995242E+02  0.00000000000E+00 0. -1.
<scales pt_clust_5="13000.00000" pt_clust_6="13000.00000" pt_clust_7="13000.00000" pt_clust_8="13000.00000" pt_clust_9="20.91879"></scales>
<clustering>
<clus scale="   20.919">  2  9  1 -1</clus>
<clus scale="   90.307">  5  6 -1 -1</clus>
<clus scale="   91.818">  2  5  1 -1</clus>
<clus scale="   92.993">  7  8 -1 -1</clus>
<clus scale="   20.919">  2  5  1 -1</clus>
</clustering>
</event>
<event>
 9    1  0.1426358E-005  0.9696364E+02  0.7546771E-02  0.1290559E+00
         21   -1    0    0  501  502  0.00000000000E+00  0.00000000000E+00  0.24181759879E+03  0.24181759879E+03  0.00000000000E+00 0.  1.
          2   -1    0    0  502    0 -0.00000000000E+00 -0.00000000000E+00 -0.49396972005E+02  0.49396972005E+02  0.00000000000E+00 0. -1.
         23    2    1    2    0    0  0.12563535086E+02  0.21523428795E+02  0.84565675760E+02  0.12225736606E+03  0.84701886865E+02 0.  0.
         23    2    1    2    0    0  0.59862525072E+01 -0.42219745282E+02  0.93274687690E+02  0.13757223676E+03  0.91693025105E+02 0.  0.
        -11    1    4    4    0    0  0.14431486969E+02  0.15842252091E+02 -0.60011220398E+01  0.22254398064E+02  0.00000000000E+00 0. -1.
         11    1    4    4    0    0 -0.84452344620E+01 -0.58061997374E+02  0.99275809729E+02  0.11531783870E+03  0.00000000000E+00 0.  1.
        -11    1    3    3    0    0 -0.33406968747E+02 -0.66840330832E+01  0.37610902841E+02  0.50747235113E+02  0.00000000000E+00 0.  1.
         11    1    3    3    0    0  0.45970503833E+02  0.28207461879E+02  0.46954772919E+02  0.71510130948E+02  0.00000000000E+00 0. -1.
          2    1    1    2  501    0 -0.18549787593E+02  0.20696316487E+02  0.14580263339E+02  0.31384967977E+02  0.00000000000E+00 0. -1.
<scales pt_clust_5="13000.00000" pt_clust_6="13000.00000" pt_clust_7="13000.00000" pt_clust_8="13000.00000" pt_clust_9="27.79268"></scales>
<clustering>
<clus scale="   27.793">  1  9  2 -1</clus>
<clus scale="   84.702">  7  8 -1 -1</clus>
<clus scale="   90.381">  2  7  1 -1</clus>
<clus scale="   91.693">  5  6 -1 -1</clus>
<clus scale="   27.793">  1  5  2 -1</clus>
</clustering>
</event>
<event>
 9    1  0.1426358E-005  0.1030000E+03  0.7546771E-02  0.1274816E+00
         -1   -1    0    0    0  501 -0.00000000000E+00  0.00000000000E+00  0.13017445514E+03  0.13017445514E+03  0.00000000000E+00 0.  1.
         21   -1    0    0  501  502  0.00000000000E+00 -0.00000000000E+00 -0.70023625292E+03  0.70023625292E+03  0.00000000000E+00 0.  1.
         23    2    1    2    0    0 -0.11462981738E+02  0.52938063027E+02  0.94503268116E+02  0.14213225159E+03  0.91306466308E+02 0.  0.
         23    2    1    2    0    0  0.12953752348E+01  0.22611876226E+02 -0.24614492357E+03  0.26297081598E+03  0.89740468681E+02 0.  0.
        -11    1    3    3    0    0 -0.19283392154E+02  0.76993650265E+02  0.60747099746E+02  0.99950395305E+02  0.00000000000E+00 0.  1.
         11    1    3    3    0    0  0.78204104155E+01 -0.24055587239E+02  0.33756168370E+02  0.42181856284E+02  0.00000000000E+00 0. -1.
        -11    1    4    4    0    0 -0.22551494128E+02 -0.26486997284E+02 -0.13105298343E+03  0.13559135436E+03  0.00000000000E+00 0. -1.
         11    1    4    4    0    0  0.23846869363E+02  0.49098873510E+02 -0.11509194013E+03  0.12737946162E+03  0.00000000000E+00 0.  1.
         -1    1    1    2    0  502  0.10167606504E+02 -0.75549939253E+02 -0.41842014233E+03  0.42530764048E+03  0.00000000000E+00 0.  1.
<scales pt_clust_5="13000.00000" pt_clust_6="13000.00000" pt_clust_7="13000.00000" pt_clust_8="13000.00000" pt_clust_9="76.23105"></scales>
<clustering>
<clus scale="   76.231">  2  9  1 -1</clus>
<clus scale="   89.740">  7  8 -1 -1</clus>
<clus scale="   91.306">  5  6 -1 -1</clus>
<clus scale="  101.614">  2  7  1 -1</clus>
<clus scale="   76.231">  2  5  1 -1</clus>
</clustering>
</event>
<event>
 9    1  0.1426358E-005  0.1160515E+03  0.7546771E-02  0.1251731E+00
         21   -1    0    0  501  502  0.00000000000E+00  0.00000000000E+00  0.44586202946E+02  0.44586202946E+02  0.00000000000E+00 0.  1.
          2   -1    0    0  502    0 -0.00000000000E+00 -0.00000000000E+00 -0.51975586335E+03  0.51975586335E+03  0.00000000000E+00 0. -1.
         23    2    1    2    0    0 -0.76080036444E+02  0.23130608300E+01 -0.32597129418E+03  0.34625287411E+03  0.88545163648E+02 0.  0.
         23    2    1    2    0    0  0.46832572938E+02 -0.35930762029E+02 -0.12551187373E+03  0.16762520619E+03  0.94131130641E+02 0.  0.
        -11    1    4    4    0    0  0.56659783294E+02  0.12383240410E+02 -0.89184269576E+02  0.10638378460E+03  0.00000000000E+00 0.  1.
         11    1    4    4    0    0 -0.98272103557E+01 -0.48314002439E+02 -0.36327604154E+02  0.61241421592E+02  0.00000000000E+00 0. -1.
        -13    1    3    3    0    0 -0.73267455901E+02 -0.29727777218E+02 -0.27357422339E+03  0.28477134079E+03  0.00000000000E+00 0. -1.
         13    1    3    3    0    0 -0.28125805429E+01  0.32040838048E+02 -0.52397070795E+02  0.61481533325E+02  0.00000000000E+00 0.  1.
          2    1    1    2  501    0  0.29247463506E+02  0.33617701199E+02 -0.23686492492E+02  0.50463985990E+02  0.00000000000E+00 0. -1.
<scales pt_clust_5="13000.00000" pt_clust_6="13000.00000" pt_clust_7="13000.00000" pt_clust_8="13000.00000" pt_clust_9="44.55967"></scales>
<clustering>
<clus scale="   44.560">  1  9  2 -1</clus>
<clus scale="   88.545">  7  8 -1 -1</clus>
<clus scale="   94.131">  5  6 -1 -1</clus>
<clus scale="  111.569">  2  7  1 -1</clus>
<clus scale="   44.560">  1  5  2 -1</clus>
</clustering>
</event>
<event>
 9    1  0.1426358E-005  0.9744652E+02  0.7546771E-02  0.1285879E+00
         21   -1    0    0  501  502  0.00000000000E+00  0.00000000000E+00  0.14823494977E+03  0.14823494977E+03  0.00000000000E+00 0.  1.
         -3   -1    0    0    0  501 -0.00000000000E+00 -0.00000000000E+00 -0.24193296030E+03  0.24193296030E+03  0.00000000000E+00 0.  1.
         23    2    1    2    0    0 -0.15057581184E+01 -0.22425503320E+02 -0.12733862569E+03  0.15754501793E+03  0.90000758742E+02 0.  0.
         23    2    1    2    0    0  0.10382413406E+02  0.72151579482E+02 -0.56954295865E+02  0.12889769961E+03  0.89761797098E+02 0.  0.
        -13    1    4    4    0    0  0.77447093446E+00  0.92281471381E+02 -0.38682627878E+02  0.10006405681E+03  0.00000000000E+00 0.  1.
         13    1    4    4    0    0  0.96079424720E+01 -0.20129891899E+02 -0.18271667987E+02  0.28833642806E+02  0.00000000000E+00 0. -1.
        -13    1    3    3    0    0 -0.28455048087E+02 -0.35911117859E+01 -0.12062529018E+03  0.12398809006E+03  0.00000000000E+00 0.  1.
         13    1    3    3    0    0  0.26949289969E+02 -0.18834391534E+02 -0.67133355113E+01  0.33556927868E+02  0.00000000000E+00 0. -1.
         -3    1    1    2    0  502 -0.88766552880E+01 -0.49726076162E+02  0.90594911035E+02  0.10372519253E+03  0.00000000000E+00 0.  1.
<scales pt_clust_5="13000.00000" pt_clust_6="13000.00000" pt_clust_7="13000.00000" pt_clust_8="13000.00000" pt_clust_9="50.51215"></scales>
<clustering>
<clus scale="   50.512">  1  9  2 -1</clus>
<clus scale="   89.762">  5  6 -1 -1</clus>
<clus scale="   90.001">  7  8 -1 -1</clus>
<clus scale="   97.226">  1  5  2 -1</clus>
<clus scale="   50.512">  1  5  2 -1</clus>
</clustering>
</event>
<event>
 9    1  0.1426358E-005  0.1636608E+03  0.7546771E-02  0.1184842E+00
         21   -1    0    0  501  502  0.00000000000E+00  0.00000000000E+00  0.43496706102E+02  0.43496706102E+02  0.00000000000E+00 0.  1.
          1   -1    0    0  502    0 -0.00000000000E+00 -0.00000000000E+00 -0.85575160616E+03  0.85575160616E+03  0.00000000000E+00 0. -1.
         23    2    1    2    0    0 -0.10994273883E+03 -0.67720796764E+02 -0.51052205761E+03  0.53455921616E+03  0.91909042748E+02 0.  0.
         23    2    1    2    0    0  0.13456434100E+03  0.63396989263E+02 -0.28696306230E+03  0.33565351431E+03  0.90491670473E+02 0.  0.
        -11    1    3    3    0    0 -0.17391819872E+02 -0.33209305181E+02 -0.44507915403E+02  0.58191819723E+02  0.00000000000E+00 0.  1.
         11    1    3    3    0    0 -0.92550918957E+02 -0.34511491583E+02 -0.46601414221E+03  0.47636739644E+03  0.00000000000E+00 0. -1.
        -11    1    4    4    0    0  0.10684208712E+03  0.42445931898E+02 -0.12427600369E+03  0.16929682161E+03  0.00000000000E+00 0.  1.
         11    1    4    4    0    0  0.27722253881E+02  0.20951057365E+02 -0.16268705861E+03  0.16635669270E+03  0.00000000000E+00 0. -1.
          1    1    1    2  501    0 -0.24621602169E+02  0.43238075013E+01 -0.14769780147E+02  0.29035581797E+02  0.00000000000E+00 0. -1.
<scales pt_clust_5="13000.00000" pt_clust_6="13000.00000" pt_clust_7="13000.00000" pt_clust_8="13000.00000" pt_clust_9="24.99837"></scales>
<clustering>
<clus scale="   24.998">  1  9  2 -1</clus>
<clus scale="   90.492">  7  8 -1 -1</clus>
<clus scale="   91.909">  5  6 -1 -1</clus>
<clus scale="  162.869">  1  7  2 -1</clus>
<clus scale="   24.998">  1  5  2 -1</clus>
</clustering>
</event>
<event>
 9    1  0.1426358E-005  0.1302651E+03  0.7546771E-02  0.1244765E+00
         21   -1    0    0  501  502  0.00000000000E+00  0.00000000000E+00  0.62552295223E+02  0.62552295223E+02  0.00000000000E+00 0. -1.
          1   -1    0    0  502    0 -0.00000000000E+00 -0.00000000000E+00 -0.49748642209E+03  0.49748642209E+03  0.00000000000E+00 0. -1.
         23    2    1    2    0    0  0.35063255417E+01  0.10794048229E+02 -0.21104879522E+03  0.22971431647E+03  0.89990374121E+02 0.  0.
         23    2    1    2    0    0 -0.82914653404E+02  0.38760616937E+02 -0.19200848198E+03  0.23144325543E+03  0.91222245944E+02 0.  0.
        -11    1    4    4    0    0 -0.64683114488E+01 -0.26447898672E+02 -0.27659790496E+02  0.38812297116E+02  0.00000000000E+00 0.  1.
         11    1    4    4    0    0 -0.76446341955E+02  0.65208515609E+02 -0.16434869149E+03  0.19263095831E+03  0.00000000000E+00 0. -1.
        -13    1    3    3    0    0 -0.58987918769E+01  0.49953960037E+02 -0.12325238230E+03  0.13312153699E+03  0.00000000000E+00 0. -1.
         13    1    3    3    0    0  0.94051174186E+01 -0.39159911809E+02 -0.87796412919E+02  0.96592779482E+02  0.00000000000E+00 0.  1.
          1    1    1    2  501    0  0.79408327862E+02 -0.49554665165E+02 -0.31876849668E+02  0.98881145413E+02  0.00000000000E+00 0. -1.
<scales pt_clust_5="13000.00000" pt_clust_6="13000.00000" pt_clust_7="13000.00000" pt_clust_8="13000.00000" pt_clust_9="92.99193"></scales>
<clustering>
<clus scale="   89.990">  7  8 -1 -1</clus>
<clus scale="   90.703">  2  7  1 -1</clus>
<clus scale="   91.222">  5  6 -1 -1</clus>
<clus scale="   92.992">  1  9  2 -1</clus>
<clus scale="   92.992">  1  5  2 -1</clus>
</clustering>
</event>
<event>
 9    1  0.1426358E-005  0.1145819E+03  0.7546771E-02  0.1253080E+00
          1   -1    0    0  502    0 -0.00000000000E+00  0.00000000000E+00  0.58960369489E+03  0.58960369489E+03  0.00000000000E+00 0. -1.
         21   -1    0    0  501  502  0.00000000000E+00 -0.00000000000E+00 -0.60376820858E+02  0.60376820858E+02  0.00000000000E+00 0. -1.
         23    2    1    2    0    0 -0.72745930848E+02  0.42954158605E+02  0.33643817776E+03  0.35797296595E+03  0.88413611508E+02 0.  0.
         23    2    1    2    0    0  0.45481909140E+02 -0.29852873334E+02  0.22452853069E+03  0.24816250852E+03  0.90618824950E+02 0.  0.
        -11    1    3    3    0    0 -0.42723861204E+02  0.69452760703E+02  0.20697083118E+03  0.22245435318E+03  0.00000000000E+00 0.  1.
         11    1    3    3    0    0 -0.30022069644E+02 -0.26498602099E+02  0.12946734658E+03  0.13551861277E+03  0.00000000000E+00 0. -1.
        -13    1    4    4    0    0  0.67115258095E+02 -0.30493888645E+02  0.11559992471E+03  0.13710462322E+03  0.00000000000E+00 0. -1.
         13    1    4    4    0    0 -0.21633348955E+02  0.64101531128E+00  0.10892860598E+03  0.11105788530E+03  0.00000000000E+00 0.  1.
          1    1    1    2  501    0  0.27264021708E+02 -0.13101285271E+02 -0.31739834421E+02  0.43845041276E+02  0.00000000000E+00 0. -1.
<scales pt_clust_5="13000.00000" pt_clust_6="13000.00000" pt_clust_7="13000.00000" pt_clust_8="13000.00000" pt_clust_9="30.24848"></scales>
<clustering>
<clus scale="   30.248">  2  9  1 -1</clus>
<clus scale="   88.414">  5  6 -1 -1</clus>
<clus scale="   90.619">  7  8 -1 -1</clus>
<clus scale="  112.846">  1  5  2 -1</clus>
<clus scale="   30.248">  2  5  1 -1</clus>
</clustering>
</event>
<event>
 9    1  0.1426358E-005  0.9622889E+02  0.7546771E-02  0.1289535E+00
          3   -1    0    0  502    0 -0.00000000000E+00  0.00000000000E+00  0.15271846308E+03  0.15271846308E+03  0.00000000000E+00 0. -1.
         21   -1    0    0  501  502  0.00000000000E+00 -0.00000000000E+00 -0.92583396725E+02  0.92583396725E+02  0.00000000000E+00 0.  1.
         23    2    1    2    0    0  0.25950348941E+02  0.19396500033E+01  0.50236696110E+02  0.10542120362E+03  0.88953480453E+02 0.  0.
         23    2    1    2    0    0 -0.35624942377E+02  0.32809444017E+02  0.30434327341E+01  0.10316434562E+03  0.91038582961E+02 0.  0.
        -11    1    3    3    0    0  0.25845503641E+02 -0.41607111060E+02  0.23558330531E+02  0.54351970403E+02  0.00000000000E+00 0.  1.
         11    1    3    3    0    0  0.10484530006E+00  0.43546761063E+02  0.26678365579E+02  0.51069233219E+02  0.00000000000E+00 0. -1.
        -13    1    4    4    0    0 -0.60264288666E+02  0.26546963178E+02 -0.20031047243E+02  0.68831450632E+02  0.00000000000E+00 0.  1.
         13    1    4    4    0    0  0.24639346289E+02  0.62624808388E+01  0.23074479977E+02  0.34332894984E+02  0.00000000000E+00 0. -1.
          3    1    1    2  501    0  0.96745934363E+01 -0.34749094020E+02  0.68549375105E+01  0.36716310567E+02  0.00000000000E+00 0. -1.
<scales pt_clust_5="13000.00000" pt_clust_6="13000.00000" pt_clust_7="13000.00000" pt_clust_8="13000.00000" pt_clust_9="36.07073"></scales>
<clustering>
<clus scale="   36.071">  2  9  1 -1</clus>
<clus scale="   88.953">  5  6 -1 -1</clus>
<clus scale="   91.039">  7  8 -1 -1</clus>
<clus scale="   94.259">  1  5  2 -1</clus>
<clus scale="   36.071">  2  5  1 -1</clus>
</clustering>
</event>
<event>
 9    1  0.1426358E-005  0.9789814E+02  0.7546771E-02  0.1287563E+00
         21   -1    0    0  501  502  0.00000000000E+00  0.00000000000E+00  0.46145151924E+02  0.46145151924E+02  0.00000000000E+00 0. -1.
          1   -1    0    0  502    0 -0.00000000000E+00 -0.00000000000E+00 -0.46511614936E+03  0.46511614936E+03  0.00000000000E+00 0. -1.
         23    2    1    2    0    0  0.63517193315E+01 -0.81037219320E+01 -0.25946751232E+03  0.27502629863E+03  0.90609383281E+02 0.  0.
         23    2    1    2    0    0  0.19587958905E+02  0.47701498352E+02 -0.15408377916E+03  0.18858813479E+03  0.95731669289E+02 0.  0.
        -11    1    4    4    0    0  0.57218835907E+01 -0.28784634005E+02 -0.28600770020E+02  0.40979252706E+02  0.00000000000E+00 0.  1.
         11    1    4    4    0    0  0.13866075314E+02  0.76486132358E+02 -0.12548300914E+03  0.14760888208E+03  0.00000000000E+00 0. -1.
        -11    1    3    3    0    0 -0.47675786216E+01 -0.45630710470E+02 -0.89071788694E+02  0.10019318882E+03  0.00000000000E+00 0.  1.
         11    1    3    3    0    0  0.11119297953E+02  0.37526988538E+02 -0.17039572363E+03  0.17483310981E+03  0.00000000000E+00 0. -1.
          1    1    1    2  501    0 -0.25939678237E+02 -0.39597776420E+02 -0.54197059525E+01  0.47646867862E+02  0.00000000000E+00 0. -1.
<scales pt_clust_5="13000.00000" pt_clust_6="13000.00000" pt_clust_7="13000.00000" pt_clust_8="13000.00000" pt_clust_9="47.33763"></scales>
<clustering>
<clus scale="   47.338">  1  9  2 -1</clus>
<clus scale="   90.609">  7  8 -1 -1</clus>
<clus scale="   92.895">  2  7  1 -1</clus>
<clus scale="   95.732">  5  6 -1 -1</clus>
<clus scale="   47.338">  1  5  2 -1</clus>
</clustering>
</event>
<event>
 9    1  0.1426358E-005  0.1075770E+03  0.7546771E-02  0.1265533E+00
         -4   -1    0    0    0  501 -0.00000000000E+00  0.00000000000E+00  0.14169757263E+03  0.14169757263E+03  0.00000000000E+00 0.  1.
         21   -1    0    0  501  502  0.00000000000E+00 -0.00000000000E+00 -0.14725478816E+03  0.14725478816E+03  0.00000000000E+00 0. -1.
         23    2    1    2    0    0 -0.69167054579E+02  0.15458289995E+02  0.70479359219E+01  0.11621831205E+03  0.91836716434E+02 0.  0.
         23    2    1    2    0    0  0.18310006640E+02 -0.54603963079E+02 -0.12522104314E+01  0.10755957279E+03  0.90833058631E+02 0.  0.
        -13    1    3    3    0    0  0.53354240620E+01  0.25897902251E+02  0.27609226366E+02  0.38228751895E+02  0.00000000000E+00 0. -1.
         13    1    3    3    0    0 -0.74502478641E+02 -0.10439612256E+02 -0.20561290444E+02  0.77989560151E+02  0.00000000000E+00 0.  1.
        -13    1    4    4    0    0 -0.30569956504E+02 -0.42330234326E+02 -0.16746040919E+02  0.54834303726E+02  0.00000000000E+00 0. -1.
         13    1    4    4    0    0  0.48879963144E+02 -0.12273728753E+02  0.15493830487E+02  0.52725269062E+02  0.00000000000E+00 0.  1.
         -4    1    1    2    0  502  0.50857047939E+02  0.39145673084E+02 -0.11352941027E+02  0.65174475956E+02  0.00000000000E+00 0.  1.
<scales pt_clust_5="13000.00000" pt_clust_6="13000.00000" pt_clust_7="13000.00000" pt_clust_8="13000.00000" pt_clust_9="64.17806"></scales>
<clustering>
<clus scale="   64.178">  2  9  1 -1</clus>
<clus scale="   90.833">  7  8 -1 -1</clus>
<clus scale="   91.837">  5  6 -1 -1</clus>
<clus scale="  106.722">  2  7  1 -1</clus>
<clus scale="   64.178">  2  5  1 -1</clus>
</clustering>
</event>
<event>
 9    1  0.1426358E-005  0.1273094E+03  0.7546771E-02  0.1235603E+00
         21   -1    0    0  501  502  0.00000000000E+00  0.00000000000E+00  0.11798839724E+03  0.11798839724E+03  0.00000000000E+00 0.  1.
          1   -1    0    0  502    0 -0.00000000000E+00 -0.00000000000E+00 -0.25302992723E+03  0.25302992723E+03  0.00000000000E+00 0. -1.
         23    2    1    2    0    0 -0.70469651530E+02  0.46326906870E+02 -0.12650471464E+03  0.16892975882E+03  0.73631966568E+02 0.  0.
         23    2    1    2    0    0  0.84493270874E+02 -0.63335219592E+02 -0.56541351030E+02  0.14926451764E+03  0.89064633760E+02 0.  0.
        -11    1    3    3    0    0 -0.71155631683E+02  0.76512182117E+01 -0.67502767731E+02  0.98378293906E+02  0.00000000000E+00 0. -1.
         11    1    3    3    0    0  0.68598015306E+00  0.38675688659E+02 -0.59001946913E+02  0.70551464914E+02  0.00000000000E+00 0.  1.
        -11    1    4    4    0    0  0.76688724619E+02 -0.36266129310E+01 -0.41172537679E+02  0.87117682844E+02  0.00000000000E+00 0.  1.
         11    1    4    4    0    0  0.78045462549E+01 -0.59708606661E+02 -0.15368813351E+02  0.62146834798E+02  0.00000000000E+00 0. -1.
          1    1    1    2  501    0 -0.14023619344E+02  0.17008312721E+02  0.48004535682E+02  0.52824048001E+02  0.00000000000E+00 0. -1.
<scales pt_clust_5="13000.00000" pt_clust_6="13000.00000" pt_clust_7="13000.00000" pt_clust_8="13000.00000" pt_clust_9="22.04415"></scales>
<clustering>
<clus scale="   22.044">  1  9  2 -1</clus>
<clus scale="   73.632">  5  6 -1 -1</clus>
<clus scale="   89.065">  7  8 -1 -1</clus>
<clus scale="  117.034">  2  5  1 -1</clus>
<clus scale="   22.044">  1  5  2 -1</clus>
</clustering>
</event>
<event>
 9    1  0.1426358E-005  0.1562909E+03  0.7546771E-02  0.1193613E+00
         -1   -1    0    0    0  501 -0.00000000000E+00  0.00000000000E+00  0.77287229690E+03  0.77287229690E+03  0.00000000000E+00 0.  1.
         21   -1    0    0  501  502  0.00000000000E+00 -0.00000000000E+00 -0.50736266614E+02  0.50736266614E+02  0.00000000000E+00 0.  1.
         23    2    1    2    0    0  0.43711238709E+02 -0.97909353931E+02  0.34648548177E+03  0.37321555736E+03  0.87981527583E+02 0.  0.
         23    2    1    2    0    0 -0.54597270037E+02  0.15310968326E+03  0.32432020876E+03  0.37423274214E+03  0.91886399861E+02 0.  0.
        -13    1    4    4    0    0  0.18246124363E+02  0.32769759472E+02  0.12332553056E+03  0.12890292735E+03  0.00000000000E+00 0. -1.
         13    1    4    4    0    0 -0.72843394400E+02  0.12033992379E+03  0.20099467819E+03  0.24532981479E+03  0.00000000000E+00 0.  1.
        -13    1    3    3    0    0  0.69152717161E+02 -0.81576016439E+02  0.24502016385E+03  0.26734177647E+03  0.00000000000E+00 0.  1.
         13    1    3    3    0    0 -0.25441478452E+02 -0.16333337492E+02  0.10146531792E+03  0.10587378089E+03  0.00000000000E+00 0. -1.
         -1    1    1    2    0  502  0.10886031328E+02 -0.55200329327E+02  0.51330339756E+02  0.76160264018E+02  0.00000000000E+00 0.  1.
<scales pt_clust_5="13000.00000" pt_clust_6="13000.00000" pt_clust_7="13000.00000" pt_clust_8="13000.00000" pt_clust_9="56.26351"></scales>
<clustering>
<clus scale="   56.264">  2  9  1 -1</clus>
<clus scale="   87.982">  7  8 -1 -1</clus>
<clus scale="   91.886">  5  6 -1 -1</clus>
<clus scale="  154.028">  1  7  2 -1</clus>
<clus scale="   56.264">  2  5  1 -1</clus>
</clustering>
</event>
<event>
 9    1  0.1426358E-005  0.9318287E+02  0.7546771E-02  0.1296204E+00
         21   -1    0    0  501  502  0.00000000000E+00  0.00000000000E+00  0.29154210544E+03  0.29154210544E+03  0.00000000000E+00 0. -1.
          1   -1    0    0  502    0 -0.00000000000E+00 -0.00000000000E+00 -0.16976116974E+03  0.16976116974E+03  0.00000000000E+00 0. -1.
         23    2    1    2    0    0  0.13127085320E+02  0.12098877261E+01 -0.71899266100E+02  0.11790022103E+03  0.92504991519E+02 0.  0.
         23    2    1    2    0    0  0.50448243161E+02  0.13512935944E+02 -0.31038601736E+02  0.10940065119E+03  0.90980673816E+02 0.  0.
        -11    1    4    4    0    0  0.15715658004E+02  0.28896325850E+02  0.25268040688E+02  0.41478348983E+02  0.00000000000E+00 0.  1.
         11    1    4    4    0    0  0.34732585157E+02 -0.15383389906E+02 -0.56306642424E+02  0.67922302212E+02  0.00000000000E+00 0. -1.
        -13    1    3    3    0    0 -0.67138415735E+00 -0.41768306440E+02 -0.56376921722E+02  0.70166940096E+02  0.00000000000E+00 0.  1.
         13    1    3    3    0    0  0.13798469478E+02  0.42978194167E+02 -0.15522344377E+02  0.47733280934E+02  0.00000000000E+00 0. -1.
          1    1    1    2  501    0 -0.63575328482E+02 -0.14722823670E+02  0.22471880353E+03  0.23400240296E+03  0.00000000000E+00 0. -1.
<scales pt_clust_5="13000.00000" pt_clust_6="13000.00000" pt_clust_7="13000.00000" pt_clust_8="13000.00000" pt_clust_9="65.25783"></scales>
<clustering>
<clus scale="   65.258">  1  9  2 -1</clus>
<clus scale="   90.981">  5  6 -1 -1</clus>
<clus scale="   91.670">  1  5  2 -1</clus>
<clus scale="   92.505">  7  8 -1 -1</clus>
<clus scale="   65.258">  1  5  2 -1</clus>
</clustering>
</event>
<event>
 9    1  0.1426358E-005  0.1375190E+03  0.7546771E-02  0.1216787E+00
         21   -1    0    0  501  502  0.00000000000E+00  0.00000000000E+00  0.12456110139E+03  0.12456110139E+03  0.00000000000E+00 0. -1.
          1   -1    0    0  502    0 -0.00000000000E+00 -0.00000000000E+00 -0.38339588379E+03  0.38339588379E+03  0.00000000000E+00 0. -1.
         23    2    1    2    0    0  0.51519846863E+02 -0.74374592160E+02 -0.21726559962E+03  0.25197780951E+03  0.90014449550E+02 0.  0.
         23    2    1    2    0    0 -0.66280916178E+02  0.13550795963E+03 -0.66950035377E+02  0.18816055387E+03  0.90368798949E+02 0.  0.
        -13    1    3    3    0    0  0.38029705962E+02 -0.54528146645E+02 -0.21805872949E+03  0.22796751263E+03  0.00000000000E+00 0. -1.
         13    1    3    3    0    0  0.13490140902E+02 -0.19846445515E+02  0.79312986453E+00  0.24010296877E+02  0.00000000000E+00 0.  1.
        -13    1    4    4    0    0 -0.53098619825E+02  0.11776250898E+03 -0.12970036697E+02  0.12982947970E+03  0.00000000000E+00 0. -1.
         13    1    4    4    0    0 -0.13182296352E+02  0.17745450650E+02 -0.53979998680E+02  0.58331074166E+02  0.00000000000E+00 0.  1.
          1    1    1    2  501    0  0.14761069314E+02 -0.61133367466E+02  0.25380852593E+02  0.67818621804E+02  0.00000000000E+00 0. -1.
<scales pt_clust_5="13000.00000" pt_clust_6="13000.00000" pt_clust_7="13000.00000" pt_clust_8="13000.00000" pt_clust_9="62.89020"></scales>
<clustering>
<clus scale="   62.890">  1  9  2 -1</clus>
<clus scale="   90.014">  5  6 -1 -1</clus>
<clus scale="   90.369">  7  8 -1 -1</clus>
<clus scale="  137.286">  2  5  1 -1</clus>
<clus scale="   62.890">  1  5  2 -1</clus>
</clustering>
</event>
<event>
 9    1  0.1426358E-005  0.1943210E+03  0.7546771E-02  0.1155716E+00
         21   -1    0    0  501  502  0.00000000000E+00  0.00000000000E+00  0.34734121535E+03  0.34734121535E+03  0.00000000000E+00 0. -1.
         -1   -1    0    0    0  501 -0.00000000000E+00 -0.00000000000E+00 -0.29145626597E+03  0.29145626597E+03  0.00000000000E+00 0.  1.
         23    2    1    2    0    0 -0.16443810940E+03  0.47729197831E+02 -0.19115818407E+03  0.27224470091E+03  0.90872205231E+02 0.  0.
         23    2    1    2    0    0  0.18053773930E+03 -0.52177027126E+01  0.25275679980E+03  0.32073715772E+03  0.79782358732E+02 0.  0.
        -11    1    3    3    0    0 -0.12101696287E+03  0.75185305411E+02 -0.14070608427E+03  0.20024019977E+03  0.00000000000E+00 0.  1.
         11    1    3    3    0    0 -0.43421146536E+02 -0.27456107581E+02 -0.50452099799E+02  0.72004501138E+02  0.00000000000E+00 0. -1.
        -13    1    4    4    0    0  0.70429079095E+02 -0.17076530077E+02  0.44993509147E+02  0.85301107420E+02  0.00000000000E+00 0.  1.
         13    1    4    4    0    0  0.11010866020E+03  0.11858827365E+02  0.20776329065E+03  0.23543605030E+03  0.00000000000E+00 0. -1.
         -1    1    1    2    0  502 -0.16099629892E+02 -0.42511495118E+02 -0.57136663391E+01  0.45815622694E+02  0.00000000000E+00 0.  1.
<scales pt_clust_5="13000.00000" pt_clust_6="13000.00000" pt_clust_7="13000.00000" pt_clust_8="13000.00000" pt_clust_9="45.45797"></scales>
<clustering>
<clus scale="   45.458">  1  9  2 -1</clus>
<clus scale="   79.782">  7  8 -1 -1</clus>
<clus scale="   90.872">  5  6 -1 -1</clus>
<clus scale="  189.389">  1  7  2 -1</clus>
<clus scale="   45.458">  1  5  2 -1</clus>
</clustering>
</event>
<event>
 9    1  0.1426358E-005  0.1214508E+03  0.7546771E-02  0.1252932E+00
          3   -1    0    0  502    0 -0.00000000000E+00  0.00000000000E+00  0.12897299326E+03  0.12897299326E+03  0.00000000000E+00 0. -1.
         21   -1    0    0  501  502  0.00000000000E+00 -0.00000000000E+00 -0.24520941543E+03  0.24520941543E+03  0.00000000000E+00 0.  1.
         23    2    1    2    0    0 -0.15448940397E+02 -0.36887683279E+02  0.25142739589E+02  0.10157133577E+03  0.89917784443E+02 0.  0.
         23    2    1    2    0    0 -0.38684862138E+02  0.19432582916E+02 -0.55228779000E+01  0.12532876248E+03  0.11748469129E+03 0.  0.
        -13    1    3    3    0    0  0.94412588176E+01  0.18946385815E+02  0.33748365199E+02  0.39837859595E+02  0.00000000000E+00 0.  1.
         13    1    3    3    0    0 -0.24890199214E+02 -0.55834069095E+02 -0.86056256100E+01  0.61733476176E+02  0.00000000000E+00 0. -1.
        -13    1    4    4    0    0 -0.15867428697E+02  0.28104182644E+02 -0.58604476180E+02  0.66903699478E+02  0.00000000000E+00 0.  1.
         13    1    4    4    0    0 -0.22817433441E+02 -0.86715997280E+01  0.53081598280E+02  0.58425063000E+02  0.00000000000E+00 0. -1.
          3    1    1    2  501    0  0.54133802535E+02  0.17455100364E+02 -0.13585628386E+03  0.14728231044E+03  0.00000000000E+00 0. -1.
<scales pt_clust_5="13000.00000" pt_clust_6="13000.00000" pt_clust_7="13000.00000" pt_clust_8="13000.00000" pt_clust_9="56.87837"></scales>
<clustering>
<clus scale="   56.878">  2  9  1 -1</clus>
<clus scale="   89.918">  5  6 -1 -1</clus>
<clus scale="   95.041">  1  5  2 -1</clus>
<clus scale="  117.485">  7  8 -1 -1</clus>
<clus scale="   56.878">  2  5  1 -1</clus>
</clustering>
</event>
<event>
 9    1  0.1426358E-005  0.1399906E+03  0.7546771E-02  0.1213551E+00
          2   -1    0    0  502    0 -0.00000000000E+00  0.00000000000E+00  0.81861214353E+03  0.81861214353E+03  0.00000000000E+00 0. -1.
         21   -1    0    0  501  502  0.00000000000E+00 -0.00000000000E+00 -0.82209243976E+02  0.82209243976E+02  0.00000000000E+00 0. -1.
         23    2    1    2    0    0  0.83876559602E+02  0.33623659260E+02  0.43757663634E+03  0.45581421306E+03  0.90152406768E+02 0.  0.
         23    2    1    2    0    0 -0.11942467101E+03 -0.79552839529E+02  0.33565254974E+03  0.37623702683E+03  0.91108506159E+02 0.  0.
        -13    1    3    3    0    0  0.41992777780E+02  0.62607213596E+02  0.22812010547E+03  0.24025369737E+03  0.00000000000E+00 0. -1.
         13    1    3    3    0    0  0.41883781822E+02 -0.28983554336E+02  0.20945653087E+03  0.21556051569E+03  0.00000000000E+00 0.  1.
        -13    1    4    4    0    0 -0.12333496455E+03 -0.52143278242E+02  0.22197254948E+03  0.25923396318E+03  0.00000000000E+00 0. -1.
         13    1    4    4    0    0  0.39102935373E+01 -0.27409561287E+02  0.11368000026E+03  0.11700306365E+03  0.00000000000E+00 0.  1.
          2    1    1    2  501    0  0.35548111406E+02  0.45929180269E+02 -0.36826286514E+02  0.68770147616E+02  0.00000000000E+00 0. -1.
<scales pt_clust_5="13000.00000" pt_clust_6="13000.00000" pt_clust_7="13000.00000" pt_clust_8="13000.00000" pt_clust_9="58.07889"></scales>
<clustering>
<clus scale="   58.079">  2  9  1 -1</clus>
<clus scale="   90.152">  5  6 -1 -1</clus>
<clus scale="   91.109">  7  8 -1 -1</clus>
<clus scale="  139.370">  1  5  2 -1</clus>
<clus scale="   58.079">  2  5  1 -1</clus>
</clustering>
</event>
<event>
 9    1  0.1426358E-005  0.1464907E+03  0.7546771E-02  0.1204968E+00
         21   -1    0    0  501  502  0.00000000000E+00  0.00000000000E+00  0.53846541943E+02  0.53846541943E+02  0.00000000000E+00 0. -1.
          1   -1    0    0  502    0 -0.00000000000E+00 -0.00000000000E+00 -0.97389477160E+03  0.97389477160E+03  0.00000000000E+00 0. -1.
         23    2    1    2    0    0 -0.91242903012E+02 -0.60222322891E+02 -0.66049699330E+03  0.67570451230E+03  0.91478490722E+02 0.  0.
         23    2    1    2    0    0  0.12168713675E+03  0.47973161268E+02 -0.27340182695E+03  0.31641753415E+03  0.90897268858E+02 0.  0.
        -11    1    3    3    0    0 -0.59453645615E+02 -0.81819153831E+02 -0.53419077399E+03  0.54368087416E+03  0.00000000000E+00 0. -1.
         11    1    3    3    0    0 -0.31789257397E+02  0.21596830940E+02 -0.12630621931E+03  0.13202363814E+03  0.00000000000E+00 0.  1.
        -13    1    4    4    0    0  0.20721834868E+01  0.38494797258E+02 -0.80259770217E+02  0.89038048472E+02  0.00000000000E+00 0.  1.
         13    1    4    4    0    0  0.11961495327E+03  0.94783640097E+01 -0.19314205673E+03  0.22737948568E+03  0.00000000000E+00 0. -1.
          1    1    1    2  501    0 -0.30444233740E+02  0.12249161623E+02  0.13850590589E+02  0.35619267091E+02  0.00000000000E+00 0. -1.
<scales pt_clust_5="13000.00000" pt_clust_6="13000.00000" pt_clust_7="13000.00000" pt_clust_8="13000.00000" pt_clust_9="32.81605"></scales>
<clustering>
<clus scale="   32.816">  1  9  2 -1</clus>
<clus scale="   90.897">  7  8 -1 -1</clus>
<clus scale="   91.478">  5  6 -1 -1</clus>
<clus scale="  146.128">  1  7  2 -1</clus>
<clus scale="   32.816">  1  5  2 -1</clus>
</clustering>
</event>
<event>
 9    1  0.1426358E-005  0.1185824E+03  0.7546771E-02  0.1246571E+00
         -3   -1    0    0    0  501 -0.00000000000E+00  0.00000000000E+00  0.87532622057E+02  0.87532622057E+02  0.00000000000E+00 0.  1.
         21   -1    0    0  501  502  0.00000000000E+00 -0.00000000000E+00 -0.24237286662E+03  0.24237286662E+03  0.00000000000E+00 0. -1.
         23    2    1    2    0    0 -0.26303292216E+01  0.79776840910E+02 -0.38424291519E+00  0.12094213677E+03  0.90860276398E+02 0.  0.
         23    2    1    2    0    0 -0.22267930731E+02 -0.66840642778E+02 -0.12983149832E+03  0.17163193438E+03  0.87394340061E+02 0.  0.
        -11    1    3    3    0    0  0.26922734304E+02 -0.53851755975E+01  0.11976652498E+02  0.29954531272E+02  0.00000000000E+00 0.  1.
         11    1    3    3    0    0 -0.29553063526E+02  0.85162016507E+02 -0.12360895414E+02  0.90987605501E+02  0.00000000000E+00 0. -1.
        -13    1    4    4    0    0  0.51300025943E+01 -0.80456689134E+02 -0.10401270467E+03  0.13159877843E+03  0.00000000000E+00 0.  1.
         13    1    4    4    0    0 -0.27397933325E+02  0.13616046356E+02 -0.25818793656E+02  0.40033155943E+02  0.00000000000E+00 0. -1.
         -3    1    1    2    0  502  0.24898259952E+02 -0.12936198131E+02 -0.24624503325E+02  0.37331417529E+02  0.00000000000E+00 0.  1.
<scales pt_clust_5="13000.00000" pt_clust_6="13000.00000" pt_clust_7="13000.00000" pt_clust_8="13000.00000" pt_clust_9="28.05831"></scales>
<clustering>
<clus scale="   28.058">  2  9  1 -1</clus>
<clus scale="   87.394">  7  8 -1 -1</clus>
<clus scale="   90.860">  5  6 -1 -1</clus>
<clus scale="  115.948">  2  7  1 -1</clus>
<clus scale="   28.058">  2  5  1 -1</clus>
</clustering>
</event>
<event>
 9    1  0.1426358E-005  0.9982409E+02  0.7546771E-02  0.1281340E+00
          1   -1    0    0  502    0 -0.00000000000E+00  0.00000000000E+00  0.25883230954E+03  0.25883230954E+03  0.00000000000E+00 0. -1.
         21   -1    0    0  501  502  0.00000000000E+00 -0.00000000000E+00 -0.16666649339E+03  0.16666649339E+03  0.00000000000E+00 0. -1.
         23    2    1    2    0    0 -0.17466375967E+02 -0.34805242147E+02  0.16008823256E+03  0.18691451018E+03  0.88274077419E+02 0.  0.
         23    2    1    2    0    0  0.49452299796E+02  0.35846731700E+02  0.47760337653E+02  0.11855644760E+03  0.89688702106E+02 0.  0.
        -11    1    4    4    0    0 -0.21071674964E+02  0.17525483008E+02 -0.59369543527E+01  0.28042921877E+02  0.00000000000E+00 0.  1.
         11    1    4    4    0    0  0.70523974759E+02  0.18321248692E+02  0.53697292006E+02  0.90513525720E+02  0.00000000000E+00 0. -1.
        -13    1    3    3    0    0 -0.35762925731E+02  0.84571598430E+00  0.19532250780E+02  0.40757955210E+02  0.00000000000E+00 0.  1.
         13    1    3    3    0    0  0.18296549764E+02 -0.35650958131E+02  0.14055598178E+03  0.14615655497E+03  0.00000000000E+00 0. -1.
          1    1    1    2  501    0 -0.31985923829E+02 -0.10414895528E+01 -0.11568275406E+03  0.12002784514E+03  0.00000000000E+00 0. -1.
<scales pt_clust_5="13000.00000" pt_clust_6="13000.00000" pt_clust_7="13000.00000" pt_clust_8="13000.00000" pt_clust_9="32.00288"></scales>
<clustering>
<clus scale="   32.003">  2  9  1 -1</clus>
<clus scale="   88.274">  7  8 -1 -1</clus>
<clus scale="   89.689">  5  6 -1 -1</clus>
<clus scale="   98.555">  1  7  2 -1</clus>
<clus scale="   32.003">  2  5  1 -1</clus>
</clustering>
</event>
<event>
 9    1  0.1426358E-005  0.2142905E+03  0.7546771E-02  0.1139057E+00
         21   -1    0    0  501  502  0.00000000000E+00  0.00000000000E+00  0.81115524023E+02  0.81115524023E+02  0.00000000000E+00 0. -1.
          2   -1    0    0  502    0 -0.00000000000E+00 -0.00000000000E+00 -0.84217643930E+03  0.84217643930E+03  0.00000000000E+00 0. -1.
         23    2    1    2    0    0  0.78581420843E+02  0.16229048988E+03 -0.37812930545E+03  0.43084503544E+03  0.10065997277E+03 0.  0.
         23    2    1    2    0    0 -0.18827400297E+02 -0.21104263619E+03 -0.26230991267E+03  0.34927951340E+03  0.91083603956E+02 0.  0.
        -11    1    4    4    0    0 -0.46570894519E+02 -0.11764127530E+03 -0.10585474498E+03  0.16496528394E+03  0.00000000000E+00 0. -1.
         11    1    4    4    0    0  0.27743494222E+02 -0.93401360892E+02 -0.15645516769E+03  0.18431422947E+03  0.00000000000E+00 0.  1.
        -11    1    3    3    0    0  0.37146802593E+02  0.15040549014E+03 -0.33859640251E+03  0.37235630813E+03  0.00000000000E+00 0. -1.
         11    1    3    3    0    0  0.41434618250E+02  0.11884999741E+02 -0.39532902937E+02  0.58488727316E+02  0.00000000000E+00 0.  1.
          2    1    1    2  501    0 -0.59754020546E+02  0.48752146307E+02 -0.12062169716E+03  0.14316741448E+03  0.00000000000E+00 0. -1.
<scales pt_clust_5="13000.00000" pt_clust_6="13000.00000" pt_clust_7="13000.00000" pt_clust_8="13000.00000" pt_clust_9="77.11887"></scales>
<clustering>
<clus scale="   77.119">  1  9  2 -1</clus>
<clus scale="   91.084">  5  6 -1 -1</clus>
<clus scale="  100.660">  7  8 -1 -1</clus>
<clus scale="  209.962">  1  5  2 -1</clus>
<clus scale="   77.119">  1  5  2 -1</clus>
</clustering>
</event>
<event>
 9    1  0.1426358E-005  0.1233031E+03  0.7546771E-02  0.1248306E+00
         21   -1    0    0  501  502  0.00000000000E+00  0.00000000000E+00  0.12281086382E+03  0.12281086382E+03  0.00000000000E+00 0. -1.
          1   -1    0    0  502    0 -0.00000000000E+00 -0.00000000000E+00 -0.42888369782E+03  0.42888369782E+03  0.00000000000E+00 0. -1.
         23    2    1    2    0    0 -0.46567774072E+02 -0.26329077218E+02 -0.19272033527E+03  0.21968747396E+03  0.90882785514E+02 0.  0.
         23    2    1    2    0    0  0.56393719604E+01  0.32980242893E+02 -0.20122260615E+03  0.23484470874E+03  0.11637010382E+03 0.  0.
        -13    1    4    4    0    0 -0.13617215537E+02 -0.32517969608E+02 -0.18560478034E+02  0.39841413771E+02  0.00000000000E+00 0. -1.
         13    1    4    4    0    0  0.19256587497E+02  0.65498212501E+02 -0.18266212811E+03  0.19500329497E+03  0.00000000000E+00 0.  1.
        -13    1    3    3    0    0 -0.25539411376E+02  0.25259878829E+02 -0.27240864094E+02  0.45082010697E+02  0.00000000000E+00 0.  1.
         13    1    3    3    0    0 -0.21028362696E+02 -0.51588956047E+02 -0.16547947117E+03  0.17460546327E+03  0.00000000000E+00 0. -1.
          1    1    1    2  501    0  0.40928402112E+02 -0.66511656750E+01  0.87870107405E+02  0.97162378932E+02  0.00000000000E+00 0. -1.
<scales pt_clust_5="13000.00000" pt_clust_6="13000.00000" pt_clust_7="13000.00000" pt_clust_8="13000.00000" pt_clust_9="41.46531"></scales>
<clustering>
<clus scale="   41.465">  1  9  2 -1</clus>
<clus scale="   90.883">  7  8 -1 -1</clus>
<clus scale="   99.606">  2  7  1 -1</clus>
<clus scale="  116.370">  5  6 -1 -1</clus>
<clus scale="   41.465">  1  5  2 -1</clus>
</clustering>
</event>
<event>
 9    1  0.1426358E-005  0.1935298E+03  0.7546771E-02  0.1155908E+00
         -2   -1    0    0    0  501 -0.00000000000E+00  0.00000000000E+00  0.47989768609E+03  0.47989768609E+03  0.00000000000E+00 0.  1.
         21   -1    0    0  501  502  0.00000000000E+00 -0.00000000000E+00 -0.13547593264E+03  0.13547593264E+03  0.00000000000E+00 0. -1.
         23    2    1    2    0    0 -0.12924672864E+03 -0.64300958338E+02  0.18891350721E+03  0.25458487671E+03  0.91026458444E+02 0.  0.
         23    2    1    2    0    0  0.19114522959E+03  0.80431230907E+02  0.18124978980E+03  0.29183776539E+03  0.96499291718E+02 0.  0.
        -11    1    3    3    0    0  0.21341458354E+01 -0.28076045985E+02  0.10445805565E+02  0.30032212547E+02  0.00000000000E+00 0. -1.
         11    1    3    3    0    0 -0.13138087448E+03 -0.36224912353E+02  0.17846770164E+03  0.22455266416E+03  0.00000000000E+00 0.  1.
        -13    1    4    4    0    0  0.10152325417E+03  0.62788693195E+02  0.15719400901E+03  0.19738122403E+03  0.00000000000E+00 0.  1.
         13    1    4    4    0    0  0.89621975426E+02  0.17642537712E+02  0.24055780790E+02  0.94456541359E+02  0.00000000000E+00 0. -1.
         -2    1    1    2    0  502 -0.61898500951E+02 -0.16130272569E+02 -0.25741543565E+02  0.68950976630E+02  0.00000000000E+00 0.  1.
<scales pt_clust_5="13000.00000" pt_clust_6="13000.00000" pt_clust_7="13000.00000" pt_clust_8="13000.00000" pt_clust_9="63.96569"></scales>
<clustering>
<clus scale="   63.966">  2  9  1 -1</clus>
<clus scale="   91.026">  5  6 -1 -1</clus>
<clus scale="   96.499">  7  8 -1 -1</clus>
<clus scale="  190.860">  1  5  2 -1</clus>
<clus scale="   63.966">  2  5  1 -1</clus>
</clustering>
</event>
<event>
 9    1  0.1426358E-005  0.1406044E+03  0.7546771E-02  0.1214854E+00
         21   -1    0    0  501  502  0.00000000000E+00  0.00000000000E+00  0.10488352478E+03  0.10488352478E+03  0.00000000000E+00 0. -1.
          3   -1    0    0  502    0 -0.00000000000E+00 -0.00000000000E+00 -0.61252484133E+03  0.61252484133E+03  0.00000000000E+00 0. -1.
         23    2    1    2    0    0  0.50822290284E+02 -0.71436589279E+02 -0.28283040262E+03  0.30681119406E+03  0.80336670822E+02 0.  0.
         23    2    1    2    0    0 -0.99802527242E+02  0.10868380494E+03 -0.27904708024E+03  0.32857290476E+03  0.91214948597E+02 0.  0.
        -11    1    3    3    0    0  0.11964753072E+02  0.17088792400E+02 -0.70198015431E+02  0.73232120769E+02  0.00000000000E+00 0. -1.
         11    1    3    3    0    0  0.38857537213E+02 -0.88525381679E+02 -0.21263238719E+03  0.23357907330E+03  0.00000000000E+00 0.  1.
        -13    1    4    4    0    0 -0.17769826870E+02  0.11222014165E+02  0.86663511086E+00  0.21034528883E+02  0.00000000000E+00 0.  1.
         13    1    4    4    0    0 -0.82032700372E+02  0.97461790777E+02 -0.27991371535E+03  0.30753837587E+03  0.00000000000E+00 0. -1.
          3    1    1    2  501    0  0.48980236957E+02 -0.37247215663E+02  0.54236166315E+02  0.82024267285E+02  0.00000000000E+00 0. -1.
<scales pt_clust_5="13000.00000" pt_clust_6="13000.00000" pt_clust_7="13000.00000" pt_clust_8="13000.00000" pt_clust_9="61.53388"></scales>
<clustering>
<clus scale="   61.534">  1  9  2 -1</clus>
<clus scale="   80.337">  5  6 -1 -1</clus>
<clus scale="   91.215">  7  8 -1 -1</clus>
<clus scale="  133.804">  2  5  1 -1</clus>
<clus scale="   61.534">  1  5  2 -1</clus>
</clustering>
</event>
<event>
 9    1  0.1426358E-005  0.1145733E+03  0.7546771E-02  0.1252683E+00
          1   -1    0    0  502    0 -0.00000000000E+00  0.00000000000E+00  0.19737592666E+03  0.19737592666E+03  0.00000000000E+00 0. -1.
         21   -1    0    0  501  502  0.00000000000E+00 -0.00000000000E+00 -0.12501173446E+03  0.12501173446E+03  0.00000000000E+00 0.  1.
         23    2    1    2    0    0  0.42102317900E+02  0.41188459539E+02  0.80990490575E+02  0.13562208320E+03  0.91459256049E+02 0.  0.
         23    2    1    2    0    0 -0.65972852117E+02 -0.55218767540E+02  0.39767633157E+02  0.13101053729E+03  0.90447591062E+02 0.  0.
        -11    1    4    4    0    0 -0.30444023612E+02 -0.75484157079E+02  0.38625881667E+02  0.90092481807E+02  0.00000000000E+00 0.  1.
         11    1    4    4    0    0 -0.35528828504E+02  0.20265389538E+02  0.11417514902E+01  0.40918055483E+02  0.00000000000E+00 0. -1.
        -11    1    3    3    0    0 -0.20062012729E+02 -0.75599691953E+01 -0.13905823182E+01  0.21484208343E+02  0.00000000000E+00 0.  1.
         11    1    3    3    0    0  0.62164330629E+02  0.48748428735E+02  0.82381072893E+02  0.11413787486E+03  0.00000000000E+00 0. -1.
          1    1    1    2  501    0  0.23870534217E+02  0.14030308001E+02 -0.48393931529E+02  0.55755040626E+02  0.00000000000E+00 0. -1.
<scales pt_clust_5="13000.00000" pt_clust_6="13000.00000" pt_clust_7="13000.00000" pt_clust_8="13000.00000" pt_clust_9="27.68848"></scales>
<clustering>
<clus scale="   27.688">  2  9  1 -1</clus>
<clus scale="   90.448">  5  6 -1 -1</clus>
<clus scale="   91.459">  7  8 -1 -1</clus>
<clus scale="  113.767">  2  5  1 -1</clus>
<clus scale="   27.688">  2  5  1 -1</clus>
</clustering>
</event>
<event>
 9    1  0.1426358E-005  0.1338253E+03  0.7546771E-02  0.1223052E+00
          1   -1    0    0  502    0 -0.00000000000E+00  0.00000000000E+00  0.10873257713E+04  0.10873257713E+04  0.00000000000E+00 0. -1.
         21   -1    0    0  501  502  0.00000000000E+00 -0.00000000000E+00 -0.92778438691E+02  0.92778438691E+02  0.00000000000E+00 0. -1.
         23    2    1    2    0    0 -0.81103656697E+00  0.12073515175E+03  0.72448716043E+03  0.74009825581E+03  0.91028281245E+02 0.  0.
         23    2    1    2    0    0 -0.37466303031E+02 -0.55407425538E+02  0.32575207798E+03  0.34601417311E+03  0.95591239215E+02 0.  0.
        -11    1    4    4    0    0  0.26070580789E+02 -0.38961002238E+02  0.18281113688E+03  0.18872611543E+03  0.00000000000E+00 0.  1.
         11    1    4    4    0    0 -0.63536883820E+02 -0.16446423300E+02  0.14294094110E+03  0.15728805767E+03  0.00000000000E+00 0. -1.
        -13    1    3    3    0    0  0.29185353655E+02  0.11861610575E+02  0.83629311118E+02  0.89366349100E+02  0.00000000000E+00 0.  1.
         13    1    3    3    0    0 -0.29996390222E+02  0.10887354117E+03  0.64085784931E+03  0.65073190671E+03  0.00000000000E+00 0. -1.
          1    1    1    2  501    0  0.38277339598E+02 -0.65327726211E+02 -0.55691905794E+02  0.93991781075E+02  0.00000000000E+00 0. -1.
<scales pt_clust_5="13000.00000" pt_clust_6="13000.00000" pt_clust_7="13000.00000" pt_clust_8="13000.00000" pt_clust_9="75.71570"></scales>
<clustering>
<clus scale="   75.716">  2  9  1 -1</clus>
<clus scale="   91.028">  7  8 -1 -1</clus>
<clus scale="   95.591">  5  6 -1 -1</clus>
<clus scale="  130.605">  1  7  2 -1</clus>
<clus scale="   75.716">  2  5  1 -1</clus>
</clustering>
</event>
<event>
 9    1  0.1426358E-005  0.1059653E+03  0.7546771E-02  0.1271218E+00
         21   -1    0    0  501  502  0.00000000000E+00  0.00000000000E+00  0.45444110147E+02  0.45444110147E+02  0.00000000000E+00 0. -1.
          1   -1    0    0  502    0 -0.00000000000E+00 -0.00000000000E+00 -0.36928446215E+03  0.36928446215E+03  0.00000000000E+00 0. -1.
         23    2    1    2    0    0  0.51937816804E+02 -0.42194991097E+02 -0.19999948791E+03  0.23071694791E+03  0.93555121733E+02 0.  0.
         23    2    1    2    0    0 -0.99219052846E+01  0.29369030707E+02 -0.86094901172E+02  0.12609271730E+03  0.86752851129E+02 0.  0.
        -11    1    3    3    0    0  0.21069047168E+02 -0.66928727526E+02 -0.92014927499E+02  0.11571562643E+03  0.00000000000E+00 0. -1.
         11    1    3    3    0    0  0.30868769636E+02  0.24733736428E+02 -0.10798456041E+03  0.11500132149E+03  0.00000000000E+00 0.  1.
        -11    1    4    4    0    0 -0.30201046903E+02 -0.21149609109E+02 -0.43141375438E+02  0.56750220037E+02  0.00000000000E+00 0.  1.
         11    1    4    4    0    0  0.20279141619E+02  0.50518639816E+02 -0.42953525734E+02  0.69342497263E+02  0.00000000000E+00 0. -1.
          1    1    1    2  501    0 -0.42015911519E+02  0.12825960390E+02 -0.37745962918E+02  0.57918907080E+02  0.00000000000E+00 0. -1.
<scales pt_clust_5="13000.00000" pt_clust_6="13000.00000" pt_clust_7="13000.00000" pt_clust_8="13000.00000" pt_clust_9="43.92997"></scales>
<clustering>
<clus scale="   43.930">  1  9  2 -1</clus>
<clus scale="   86.753">  7  8 -1 -1</clus>
<clus scale="   93.555">  5  6 -1 -1</clus>
<clus scale="  100.011">  1  7  2 -1</clus>
<clus scale="   43.930">  1  5  2 -1</clus>
</clustering>
</event>
<event>
 9    1  0.1426358E-005  0.1162390E+03  0.7546771E-02  0.1250554E+00
         21   -1    0    0  501  502  0.00000000000E+00  0.00000000000E+00  0.86695348454E+02  0.86695348454E+02  0.00000000000E+00 0.  1.
         -1   -1    0    0    0  501 -0.00000000000E+00 -0.00000000000E+00 -0.44923238581E+03  0.44923238581E+03  0.00000000000E+00 0.  1.
         23    2    1    2    0    0  0.27324024491E+02 -0.61000348739E+02 -0.25189627659E+03  0.27563061553E+03  0.89737713341E+02 0.  0.
         23    2    1    2    0    0 -0.56672137424E+02  0.54007519798E+02 -0.16091866404E+03  0.20166198467E+03  0.92974169908E+02 0.  0.
        -11    1    3    3    0    0 -0.88819274764E+01  0.18968351002E+02 -0.78955718673E+02  0.81686550218E+02  0.00000000000E+00 0. -1.
         11    1    3    3    0    0  0.36205951967E+02 -0.79968699741E+02 -0.17294055792E+03  0.19394406531E+03  0.00000000000E+00 0.  1.
        -11    1    4    4    0    0 -0.75724074279E+02  0.63250909231E+02 -0.11808233735E+03  0.15387739060E+03  0.00000000000E+00 0.  1.
         11    1    4    4    0    0  0.19051936855E+02 -0.92433894327E+01 -0.42836326690E+02  0.47784594070E+02  0.00000000000E+00 0. -1.
         -1    1    1    2    0  502  0.29348112933E+02  0.69928289404E+01  0.50277903273E+02  0.58635134066E+02  0.00000000000E+00 0.  1.
<scales pt_clust_5="13000.00000" pt_clust_6="13000.00000" pt_clust_7="13000.00000" pt_clust_8="13000.00000" pt_clust_9="30.16971"></scales>
<clustering>
<clus scale="   30.170">  1  9  2 -1</clus>
<clus scale="   89.738">  5  6 -1 -1</clus>
<clus scale="   92.974">  7  8 -1 -1</clus>
<clus scale="  113.667">  2  5  1 -1</clus>
<clus scale="   30.170">  1  5  2 -1</clus>
</clustering>
</event>
<event>
 9    1  0.1426358E-005  0.2506238E+03  0.7546771E-02  0.1112969E+00
         21   -1    0    0  501  502  0.00000000000E+00  0.00000000000E+00  0.11151623355E+03  0.11151623355E+03  0.00000000000E+00 0. -1.
          1   -1    0    0  502    0 -0.00000000000E+00 -0.00000000000E+00 -0.64927174703E+03  0.64927174703E+03  0.00000000000E+00 0. -1.
         23    2    1    2    0    0  0.16938376020E+03 -0.13739421791E+03 -0.24857783232E+03  0.34321992062E+03  0.91874620286E+02 0.  0.
         23    2    1    2    0    0 -0.19185290264E+03  0.16117383110E+03 -0.27114617930E+03  0.38021210428E+03  0.90865029636E+02 0.  0.
        -13    1    4    4    0    0 -0.12593906538E+03  0.52988539752E+02 -0.17000954700E+03  0.21810932948E+03  0.00000000000E+00 0.  1.
         13    1    4    4    0    0 -0.65913837257E+02  0.10818529135E+03 -0.10113663230E+03  0.16210277480E+03  0.00000000000E+00 0. -1.
        -13    1    3    3    0    0  0.10343447095E+03 -0.44551968383E+02 -0.73915301385E+02  0.13471094776E+03  0.00000000000E+00 0. -1.
         13    1    3    3    0    0  0.65949289254E+02 -0.92842249523E+02 -0.17466253094E+03  0.20850897286E+03  0.00000000000E+00 0.  1.
          1    1    1    2  501    0  0.22469142435E+02 -0.23779613193E+02 -0.18031501867E+02  0.37355955682E+02  0.00000000000E+00 0. -1.
<scales pt_clust_5="13000.00000" pt_clust_6="13000.00000" pt_clust_7="13000.00000" pt_clust_8="13000.00000" pt_clust_9="32.71593"></scales>
<clustering>
<clus scale="   32.716">  1  9  2 -1</clus>
<clus scale="   90.865">  5  6 -1 -1</clus>
<clus scale="   91.875">  7  8 -1 -1</clus>
<clus scale="  250.255">  1  5  2 -1</clus>
<clus scale="   32.716">  1  5  2 -1</clus>
</clustering>
</event>
<event>
 9    1  0.1426358E-005  0.9239889E+02  0.7546771E-02  0.1303922E+00
         21   -1    0    0  501  502  0.00000000000E+00  0.00000000000E+00  0.29969130590E+02  0.29969130590E+02  0.00000000000E+00 0. -1.
          1   -1    0    0  502    0 -0.00000000000E+00 -0.00000000000E+00 -0.44107121615E+03  0.44107121615E+03  0.00000000000E+00 0. -1.
         23    2    1    2    0    0 -0.34374014745E+01  0.18505937142E+02 -0.23123895450E+03  0.24500335066E+03  0.78745808268E+02 0.  0.
         23    2    1    2    0    0 -0.18668012543E+02 -0.24437049816E+02 -0.17954365370E+03  0.20314748991E+03  0.89929500040E+02 0.  0.
        -11    1    3    3    0    0  0.32005633782E+02  0.96080033294E+01 -0.50146374427E+02  0.60260544222E+02  0.00000000000E+00 0. -1.
         11    1    3    3    0    0 -0.35443035257E+02  0.88979338123E+01 -0.18109258007E+03  0.18474280644E+03  0.00000000000E+00 0.  1.
        -11    1    4    4    0    0  0.29152684806E+02  0.99312355375E+01 -0.96842453833E+02  0.10162169717E+03  0.00000000000E+00 0.  1.
         11    1    4    4    0    0 -0.47820697349E+02 -0.34368285353E+02 -0.82701199870E+02  0.10152579275E+03  0.00000000000E+00 0. -1.
          1    1    1    2  501    0  0.22105414017E+02  0.59311126742E+01 -0.31947735448E+00  0.22889506159E+02  0.00000000000E+00 0. -1.
<scales pt_clust_5="13000.00000" pt_clust_6="13000.00000" pt_clust_7="13000.00000" pt_clust_8="13000.00000" pt_clust_9="22.88728"></scales>
<clustering>
<clus scale="   22.887">  1  9  2 -1</clus>
<clus scale="   78.746">  5  6 -1 -1</clus>
<clus scale="   81.555">  2  5  1 -1</clus>
<clus scale="   89.930">  7  8 -1 -1</clus>
<clus scale="   22.887">  1  5  2 -1</clus>
</clustering>
</event>
<event>
 9    1  0.1426358E-005  0.1265178E+03  0.7546771E-02  0.1232908E+00
          1   -1    0    0  502    0 -0.00000000000E+00  0.00000000000E+00  0.77687271109E+03  0.77687271109E+03  0.00000000000E+00 0. -1.
         21   -1    0    0  501  502  0.00000000000E+00 -0.00000000000E+00 -0.81434529832E+02  0.81434529832E+02  0.00000000000E+00 0. -1.
         23    2    1    2    0    0  0.17343580393E+02 -0.94209694719E+02  0.48228318352E+03  0.49980633482E+03  0.89627210495E+02 0.  0.
         23    2    1    2    0    0 -0.25222882236E+01  0.78716706213E+02  0.27126751484E+03  0.29655925581E+03  0.90325222526E+02 0.  0.
        -13    1    3    3    0    0  0.40724344546E+02 -0.97769120675E+02  0.42100496354E+03  0.43412262383E+03  0.00000000000E+00 0. -1.
         13    1    3    3    0    0 -0.23380764153E+02  0.35594259568E+01  0.61278219980E+02  0.65683710990E+02  0.00000000000E+00 0.  1.
        -13    1    4    4    0    0 -0.24323160350E+02 -0.85009464834E+00  0.18218598369E+02  0.30401580828E+02  0.00000000000E+00 0.  1.
         13    1    4    4    0    0  0.21800872126E+02  0.79566800861E+02  0.25304891647E+03  0.26615767498E+03  0.00000000000E+00 0. -1.
          1    1    1    2  501    0 -0.14821292170E+02  0.15492988506E+02 -0.58112517112E+02  0.61941650281E+02  0.00000000000E+00 0. -1.
<scales pt_clust_5="13000.00000" pt_clust_6="13000.00000" pt_clust_7="13000.00000" pt_clust_8="13000.00000" pt_clust_9="21.44069"></scales>
<clustering>
<clus scale="   21.441">  2  9  1 -1</clus>
<clus scale="   89.627">  5  6 -1 -1</clus>
<clus scale="   90.325">  7  8 -1 -1</clus>
<clus scale="  126.020">  1  5  2 -1</clus>
<clus scale="   21.441">  2  5  1 -1</clus>
</clustering>
</event>
<event>
 9    1  0.1426358E-005  0.1023148E+03  0.7546771E-02  0.1279884E+00
         21   -1    0    0  501  502  0.00000000000E+00  0.00000000000E+00  0.31909839611E+02  0.31909839611E+02  0.00000000000E+00 0.  1.
          2   -1    0    0  502    0 -0.00000000000E+00 -0.00000000000E+00 -0.41577563064E+03  0.41577563064E+03  0.00000000000E+00 0. -1.
         23    2    1    2    0    0  0.24746108622E+01  0.22184501743E+02 -0.22722334081E+03  0.24900802390E+03  0.99379442242E+02 0.  0.
         23    2    1    2    0    0  0.18236502025E+02 -0.25115901675E+02 -0.14710785574E+03  0.17568936695E+03  0.90899141450E+02 0.  0.
        -11    1    3    3    0    0  0.29462722604E+01  0.55797766422E+02 -0.19344287234E+03  0.20135097744E+03  0.00000000000E+00 0. -1.
         11    1    3    3    0    0 -0.47166139820E+00 -0.33613264679E+02 -0.33780468471E+02  0.47657046457E+02  0.00000000000E+00 0.  1.
        -11    1    4    4    0    0  0.25844192265E+01  0.33730555503E+02 -0.39137466441E+02  0.51731720218E+02  0.00000000000E+00 0. -1.
         11    1    4    4    0    0  0.15652082798E+02 -0.58846457178E+02 -0.10797038930E+03  0.12395764673E+03  0.00000000000E+00 0.  1.
          2    1    1    2  501    0 -0.20711112887E+02  0.29313999326E+01 -0.95345944753E+01  0.22988079398E+02  0.00000000000E+00 0. -1.
<scales pt_clust_5="13000.00000" pt_clust_6="13000.00000" pt_clust_7="13000.00000" pt_clust_8="13000.00000" pt_clust_9="20.91754"></scales>
<clustering>
<clus scale="   20.918">  1  9  2 -1</clus>
<clus scale="   90.899">  7  8 -1 -1</clus>
<clus scale="   94.099">  1  7  2 -1</clus>
<clus scale="   99.379">  5  6 -1 -1</clus>
<clus scale="   20.918">  1  5  2 -1</clus>
</clustering>
</event>
<event>
 9    1  0.1426358E-005  0.2643305E+03  0.7546771E-02  0.1104668E+00
          1   -1    0    0  502    0 -0.00000000000E+00  0.00000000000E+00  0.25355923957E+04  0.25355923957E+04  0.00000000000E+00 0. -1.
         21   -1    0    0  501  502  0.00000000000E+00 -0.00000000000E+00 -0.66444682810E+02  0.66444682810E+02  0.00000000000E+00 0. -1.
         23    2    1    2    0    0 -0.58239104812E+02 -0.23661003560E+03  0.13297872434E+04  0.13551369517E+04  0.93198406648E+02 0.  0.
         23    2    1    2    0    0  0.20408472305E+03  0.19284687004E+03  0.99198417740E+03  0.10349899324E+04  0.91274654111E+02 0.  0.
        -11    1    4    4    0    0  0.28130967448E+02  0.79633229297E+02  0.23930090298E+03  0.25376706781E+03  0.00000000000E+00 0.  1.
         11    1    4    4    0    0  0.17595375560E+03  0.11321364074E+03  0.75268327443E+03  0.78122286459E+03  0.00000000000E+00 0. -1.
        -11    1    3    3    0    0  0.23719701711E+02 -0.33734264352E+02  0.17393829400E+03  0.17876004856E+03  0.00000000000E+00 0.  1.
         11    1    3    3    0    0 -0.81958806523E+02 -0.20287577125E+03  0.11558489494E+04  0.11763769031E+04  0.00000000000E+00 0. -1.
          1    1    1    2  501    0 -0.14584561824E+03  0.43763165560E+02  0.14737629218E+03  0.21191019446E+03  0.00000000000E+00 0. -1.
<scales pt_clust_5="13000.00000" pt_clust_6="13000.00000" pt_clust_7="13000.00000" pt_clust_8="13000.00000" pt_clust_9="152.27002"></scales>
<clustering>
<clus scale="   91.275">  5  6 -1 -1</clus>
<clus scale="   93.198">  7  8 -1 -1</clus>
<clus scale="  152.270">  2  9  1 -1</clus>
<clus scale="  263.658">  2  5  1 -1</clus>
<clus scale="  152.270">  2  5  1 -1</clus>
</clustering>
</event>
<event>
 9    1  0.1426358E-005  0.9985892E+02  0.7546771E-02  0.1283342E+00
          1   -1    0    0  502    0 -0.00000000000E+00  0.00000000000E+00  0.55658097379E+03  0.55658097379E+03  0.00000000000E+00 0. -1.
         21   -1    0    0  501  502  0.00000000000E+00 -0.00000000000E+00 -0.21093045395E+02  0.21093045395E+02  0.00000000000E+00 0.  1.
         23    2    1    2    0    0 -0.24520142275E+02 -0.16260151978E+02  0.23657691154E+03  0.25389296903E+03  0.87334842584E+02 0.  0.
         23    2    1    2    0    0  0.29138666683E+02  0.35872880076E+02  0.26114025611E+03  0.28097193619E+03  0.92817402169E+02 0.  0.
        -11    1    3    3    0    0 -0.36186765387E+02  0.27926798499E+02  0.10217424112E+03  0.11193285314E+03  0.00000000000E+00 0.  1.
         11    1    3    3    0    0  0.11666623112E+02 -0.44186950477E+02  0.13440267043E+03  0.14196011590E+03  0.00000000000E+00 0. -1.
        -13    1    4    4    0    0  0.53295196851E+02 -0.56437932044E+00  0.19122513165E+03  0.19851384714E+03  0.00000000000E+00 0. -1.
         13    1    4    4    0    0 -0.24156530168E+02  0.36437259397E+02  0.69915124462E+02  0.82458089055E+02  0.00000000000E+00 0.  1.
          1    1    1    2  501    0 -0.46185244082E+01 -0.19612728098E+02  0.37770760743E+02  0.42809113963E+02  0.00000000000E+00 0. -1.
<scales pt_clust_5="13000.00000" pt_clust_6="13000.00000" pt_clust_7="13000.00000" pt_clust_8="13000.00000" pt_clust_9="20.14919"></scales>
<clustering>
<clus scale="   20.149">  2  9  1 -1</clus>
<clus scale="   87.335">  5  6 -1 -1</clus>
<clus scale="   92.817">  7  8 -1 -1</clus>
<clus scale="   94.785">  1  5  2 -1</clus>
<clus scale="   20.149">  2  5  1 -1</clus>
</clustering>
</event>
<event>
 9    1  0.1426358E-005  0.9499755E+02  0.7546771E-02  0.1291941E+00
         21   -1    0    0  501  502  0.00000000000E+00  0.00000000000E+00  0.45167994879E+03  0.45167994879E+03  0.00000000000E+00 0. -1.
         -1   -1    0    0    0  501 -0.00000000000E+00 -0.00000000000E+00 -0.40789586566E+02  0.40789586566E+02  0.00000000000E+00 0.  1.
         23    2    1    2    0    0 -0.14452911473E+02 -0.77085161000E+01  0.42939442682E+02  0.10330370816E+03  0.92517849688E+02 0.  0.
         23    2    1    2    0    0  0.35928121227E+02  0.18806837770E+02  0.25858635450E+03  0.27716151717E+03  0.91143166641E+02 0.  0.
        -11    1    4    4    0    0 -0.19968421227E+02 -0.21960591372E+02  0.95533938009E+02  0.10003868617E+03  0.00000000000E+00 0.  1.
         11    1    4    4    0    0  0.55896542455E+02  0.40767429143E+02  0.16305241649E+03  0.17712283100E+03  0.00000000000E+00 0. -1.
        -13    1    3    3    0    0 -0.59239005476E+01  0.19494629571E+02 -0.23442202394E+02  0.31059137671E+02  0.00000000000E+00 0.  1.
         13    1    3    3    0    0 -0.85290109251E+01 -0.27203145671E+02  0.66381645076E+02  0.72244570487E+02  0.00000000000E+00 0. -1.
         -1    1    1    2    0  502 -0.21475209755E+02 -0.11098321670E+02  0.10936456504E+03  0.11200431002E+03  0.00000000000E+00 0.  1.
<scales pt_clust_5="13000.00000" pt_clust_6="13000.00000" pt_clust_7="13000.00000" pt_clust_8="13000.00000" pt_clust_9="24.17349"></scales>
<clustering>
<clus scale="   24.173">  1  9  2 -1</clus>
<clus scale="   91.143">  5  6 -1 -1</clus>
<clus scale="   92.518">  7  8 -1 -1</clus>
<clus scale="   93.659">  1  5  2 -1</clus>
<clus scale="   24.173">  1  5  2 -1</clus>
</clustering>
</event>
<event>
 9    1  0.1426358E-005  0.1402630E+03  0.7546771E-02  0.1214221E+00
         21   -1    0    0  501  502  0.00000000000E+00  0.00000000000E+00  0.10809368667E+03  0.10809368667E+03  0.00000000000E+00 0. -1.
          4   -1    0    0  502    0 -0.00000000000E+00 -0.00000000000E+00 -0.31139176061E+03  0.31139176061E+03  0.00000000000E+00 0. -1.
         23    2    1    2    0    0 -0.35213868871E+02  0.94694723846E+02 -0.16216163462E+03  0.21422388432E+03  0.96893599305E+02 0.  0.
         23    2    1    2    0    0  0.60341764530E+02 -0.84901417044E+02 -0.78384621741E+02  0.15927518355E+03  0.91515332084E+02 0.  0.
        -11    1    3    3    0    0 -0.55497730487E+02  0.28074078685E+02 -0.41057285790E+02  0.74524175270E+02  0.00000000000E+00 0.  1.
         11    1    3    3    0    0  0.20283861616E+02  0.66620645161E+02 -0.12110434883E+03  0.13969970905E+03  0.00000000000E+00 0. -1.
        -11    1    4    4    0    0  0.21771617151E+02 -0.43682426630E+02  0.14206314969E+02  0.50832834808E+02  0.00000000000E+00 0.  1.
         11    1    4    4    0    0  0.38570147379E+02 -0.41218990414E+02 -0.92590936710E+02  0.10844234874E+03  0.00000000000E+00 0. -1.
          4    1    1    2  501    0 -0.25127895659E+02 -0.97933068022E+01  0.37248182416E+02  0.45986379414E+02  0.00000000000E+00 0. -1.
<scales pt_clust_5="13000.00000" pt_clust_6="13000.00000" pt_clust_7="13000.00000" pt_clust_8="13000.00000" pt_clust_9="26.96887"></scales>
<clustering>
<clus scale="   26.969">  1  9  2 -1</clus>
<clus scale="   91.515">  7  8 -1 -1</clus>
<clus scale="   96.894">  5  6 -1 -1</clus>
<clus scale="  136.603">  1  7  2 -1</clus>
<clus scale="   26.969">  1  5  2 -1</clus>
</clustering>
</event>
<event>
 9    1  0.1426358E-005  0.1767404E+03  0.7546771E-02  0.1171933E+00
         21   -1    0    0  501  502  0.00000000000E+00  0.00000000000E+00  0.60201146267E+02  0.60201146267E+02  0.00000000000E+00 0. -1.
          1   -1    0    0  502    0 -0.00000000000E+00 -0.00000000000E+00 -0.92165447444E+03  0.92165447444E+03  0.00000000000E+00 0. -1.
         23    2    1    2    0    0  0.70532112916E+02 -0.14683977668E+03 -0.52794597313E+03  0.56048264691E+03  0.94218617992E+02 0.  0.
         23    2    1    2    0    0  0.46459354088E+01  0.14125094664E+03 -0.29055064817E+03  0.33460747007E+03  0.87000374893E+02 0.  0.
        -11    1    3    3    0    0 -0.14107359135E+02 -0.50792780446E+02 -0.90971598199E+02  0.10514159884E+03  0.00000000000E+00 0.  1.
         11    1    3    3    0    0  0.84639472051E+02 -0.96046996237E+02 -0.43697437493E+03  0.45534104807E+03  0.00000000000E+00 0. -1.
        -13    1    4    4    0    0  0.70169307891E+01  0.11051073919E+03 -0.28146688518E+03  0.30246564804E+03  0.00000000000E+00 0. -1.
         13    1    4    4    0    0 -0.23709953803E+01  0.30740207451E+02 -0.90837629954E+01  0.32141822030E+02  0.00000000000E+00 0.  1.
          1    1    1    2  501    0 -0.75178048325E+02  0.55888300425E+01 -0.42956706870E+02  0.86765503723E+02  0.00000000000E+00 0. -1.
<scales pt_clust_5="13000.00000" pt_clust_6="13000.00000" pt_clust_7="13000.00000" pt_clust_8="13000.00000" pt_clust_9="75.38550"></scales>
<clustering>
<clus scale="   75.386">  1  9  2 -1</clus>
<clus scale="   87.000">  7  8 -1 -1</clus>
<clus scale="   94.219">  5  6 -1 -1</clus>
<clus scale="  173.000">  1  7  2 -1</clus>
<clus scale="   75.386">  1  5  2 -1</clus>
</clustering>
</event>
<event>
 9    1  0.1426358E-005  0.1027989E+03  0.7546771E-02  0.1275831E+00
         21   -1    0    0  501  502  0.00000000000E+00  0.00000000000E+00  0.94879216466E+02  0.94879216466E+02  0.00000000000E+00 0.  1.
          3   -1    0    0  502    0 -0.00000000000E+00 -0.00000000000E+00 -0.13708289064E+03  0.13708289064E+03  0.00000000000E+00 0. -1.
         23    2    1    2    0    0 -0.19906992121E+02  0.34769033238E+02 -0.25006609767E+02  0.10661953589E+03  0.95588811547E+02 0.  0.
         23    2    1    2    0    0 -0.31304677804E+01 -0.38937270176E+02 -0.12899790657E+02  0.10153993860E+03  0.92833419058E+02 0.  0.
        -11    1    4    4    0    0  0.15031874191E+02 -0.24927683598E+02 -0.50038065360E+02  0.57889158193E+02  0.00000000000E+00 0. -1.
         11    1    4    4    0    0 -0.18162341972E+02 -0.14009586579E+02  0.37138274703E+02  0.43650780404E+02  0.00000000000E+00 0.  1.
        -13    1    3    3    0    0 -0.85976837020E+01 -0.32926692049E+02 -0.15265716796E+02  0.37297846099E+02  0.00000000000E+00 0. -1.
         13    1    3    3    0    0 -0.11309308419E+02  0.67695725288E+02 -0.97408929708E+01  0.69321689787E+02  0.00000000000E+00 0.  1.
          3    1    1    2  501    0  0.23037459902E+02  0.41682369378E+01 -0.42972737459E+01  0.23802632618E+02  0.00000000000E+00 0. -1.
<scales pt_clust_5="13000.00000" pt_clust_6="13000.00000" pt_clust_7="13000.00000" pt_clust_8="13000.00000" pt_clust_9="23.41151"></scales>
<clustering>
<clus scale="   23.412">  1  9  2 -1</clus>
<clus scale="   92.833">  5  6 -1 -1</clus>
<clus scale="   95.589">  7  8 -1 -1</clus>
<clus scale="  100.242">  1  5  2 -1</clus>
<clus scale="   23.412">  1  5  2 -1</clus>
</clustering>
</event>
<event>
 9    1  0.1426358E-005  0.1119572E+03  0.7546771E-02  0.1257029E+00
         -1   -1    0    0    0  501 -0.00000000000E+00  0.00000000000E+00  0.25489857864E+03  0.25489857864E+03  0.00000000000E+00 0.  1.
         21   -1    0    0  501  502  0.00000000000E+00 -0.00000000000E+00 -0.98016089151E+02  0.98016089151E+02  0.00000000000E+00 0.  1.
         23    2    1    2    0    0 -0.21548278726E+02 -0.15667278028E+02  0.42981011964E+02  0.10669957821E+03  0.93955525030E+02 0.  0.
         23    2    1    2    0    0  0.96370234184E+02  0.24652270542E+02  0.10011269453E+03  0.16960447905E+03  0.94064718297E+02 0.  0.
        -11    1    3    3    0    0  0.12405688186E+02 -0.47507981419E+02  0.11273855951E+02  0.50378658437E+02  0.00000000000E+00 0.  1.
         11    1    3    3    0    0 -0.33953966912E+02  0.31840703392E+02  0.31707156013E+02  0.56320919772E+02  0.00000000000E+00 0. -1.
        -13    1    4    4    0    0  0.27063344116E+02 -0.35763592320E+02  0.29614207808E+02  0.53744399099E+02  0.00000000000E+00 0. -1.
         13    1    4    4    0    0  0.69306890068E+02  0.60415862862E+02  0.70498486720E+02  0.11586007995E+03  0.00000000000E+00 0.  1.
         -1    1    1    2    0  502 -0.74821955458E+02 -0.89849925147E+01  0.13788782993E+02  0.76610610528E+02  0.00000000000E+00 0.  1.
<scales pt_clust_5="13000.00000" pt_clust_6="13000.00000" pt_clust_7="13000.00000" pt_clust_8="13000.00000" pt_clust_9="75.35951"></scales>
<clustering>
<clus scale="   75.360">  2  9  1 -1</clus>
<clus scale="   93.956">  5  6 -1 -1</clus>
<clus scale="   94.065">  7  8 -1 -1</clus>
<clus scale="  111.865">  1  5  2 -1</clus>
<clus scale="   75.360">  2  5  1 -1</clus>
</clustering>
</event>
<event>
 9    1  0.1426358E-005  0.9976185E+02  0.7546771E-02  0.1282307E+00
         -2   -1    0    0    0  501 -0.00000000000E+00  0.00000000000E+00  0.33770022078E+02  0.33770022078E+02  0.00000000000E+00 0.  1.
         21   -1    0    0  501  502  0.00000000000E+00 -0.00000000000E+00 -0.49266509419E+03  0.49266509419E+03  0.00000000000E+00 0.  1.
         23    2    1    2    0    0  0.23383655870E+02  0.52440850856E+01 -0.10628330723E+03  0.14393822395E+03  0.94062612801E+02 0.  0.
         23    2    1    2    0    0 -0.40459201277E+02 -0.28037619520E+02 -0.18078572605E+03  0.20832655305E+03  0.91068210062E+02 0.  0.
        -11    1    3    3    0    0 -0.48318342973E+01 -0.40361150331E+02 -0.63218035391E+02  0.75159091782E+02  0.00000000000E+00 0. -1.
         11    1    3    3    0    0  0.28215490167E+02  0.45605235417E+02 -0.43065271838E+02  0.68779132164E+02  0.00000000000E+00 0.  1.
        -13    1    4    4    0    0  0.10472547089E+02  0.23776626606E+02 -0.79782927294E+02  0.83906601068E+02  0.00000000000E+00 0. -1.
         13    1    4    4    0    0 -0.50931748366E+02 -0.51814246126E+02 -0.10100279876E+03  0.12441995198E+03  0.00000000000E+00 0.  1.
         -2    1    1    2    0  502  0.17075545407E+02  0.22793534434E+02 -0.17182603882E+03  0.17417033927E+03  0.00000000000E+00 0.  1.
<scales pt_clust_5="13000.00000" pt_clust_6="13000.00000" pt_clust_7="13000.00000" pt_clust_8="13000.00000" pt_clust_9="28.48016"></scales>
<clustering>
<clus scale="   28.480">  2  9  1 -1</clus>
<clus scale="   91.068">  7  8 -1 -1</clus>
<clus scale="   94.063">  5  6 -1 -1</clus>
<clus scale="   96.944">  2  7  1 -1</clus>
<clus scale="   28.480">  2  5  1 -1</clus>
</clustering>
</event>
<event>
 9    1  0.1426358E-005  0.9848537E+02  0.7546771E-02  0.1284537E+00
         21   -1    0    0  501  502  0.00000000000E+00  0.00000000000E+00  0.67060017325E+02  0.67060017325E+02  0.00000000000E+00 0. -1.
          1   -1    0    0  502    0 -0.00000000000E+00 -0.00000000000E+00 -0.36091418125E+03  0.36091418125E+03  0.00000000000E+00 0. -1.
         23    2    1    2    0    0  0.14347846373E+02 -0.60942100417E+01 -0.18595271650E+03  0.20929493580E+03  0.94778464250E+02 0.  0.
         23    2    1    2    0    0 -0.72786449957E+02  0.10704808399E+01 -0.31000119805E+02  0.12196255050E+03  0.92816178923E+02 0.  0.
        -11    1    3    3    0    0 -0.10921966154E+01 -0.43490850474E+02 -0.44755578853E+02  0.62415613486E+02  0.00000000000E+00 0. -1.
         11    1    3    3    0    0  0.15440042988E+02  0.37396640432E+02 -0.14119713765E+03  0.14687932232E+03  0.00000000000E+00 0.  1.
        -11    1    4    4    0    0  0.68591094895E+01 -0.31250931451E+02 -0.77705295721E+01  0.32924902875E+02  0.00000000000E+00 0.  1.
         11    1    4    4    0    0 -0.79645559447E+02  0.32321412291E+02 -0.23229590233E+02  0.89037647624E+02  0.00000000000E+00 0. -1.
          1    1    1    2  501    0  0.58438603584E+02  0.50237292018E+01 -0.76901327617E+02  0.96716712275E+02  0.00000000000E+00 0. -1.
<scales pt_clust_5="13000.00000" pt_clust_6="13000.00000" pt_clust_7="13000.00000" pt_clust_8="13000.00000" pt_clust_9="58.65417"></scales>
<clustering>
<clus scale="   58.654">  1  9  2 -1</clus>
<clus scale="   92.816">  7  8 -1 -1</clus>
<clus scale="   94.778">  5  6 -1 -1</clus>
<clus scale="   96.598">  1  7  2 -1</clus>
<clus scale="   58.654">  1  5  2 -1</clus>
</clustering>
</event>
<event>
 9    1  0.1426358E-005  0.9703863E+02  0.7546771E-02  0.1287168E+00
          1   -1    0    0  502    0 -0.00000000000E+00  0.00000000000E+00  0.49063765097E+03  0.49063765097E+03  0.00000000000E+00 0. -1.
         21   -1    0    0  501  502  0.00000000000E+00 -0.00000000000E+00 -0.31670018328E+02  0.31670018328E+02  0.00000000000E+00 0.  1.
         23    2    1    2    0    0 -0.34813183755E+02  0.29615553381E+02  0.27361511004E+03  0.29217677806E+03  0.91722420537E+02 0.  0.
         23    2    1    2    0    0  0.14002966757E+02 -0.54239166734E+01  0.17298192367E+03  0.19590616135E+03  0.90724727538E+02 0.  0.
        -13    1    4    4    0    0 -0.96214988563E+01  0.27135377593E+02  0.14189213611E+02  0.32097285559E+02  0.00000000000E+00 0.  1.
         13    1    4    4    0    0  0.23624465613E+02 -0.32559294267E+02  0.15879271006E+03  0.16380887579E+03  0.00000000000E+00 0. -1.
        -13    1    3    3    0    0 -0.48177778694E+01 -0.26401509283E+02  0.15788698737E+03  0.16015165143E+03  0.00000000000E+00 0. -1.
         13    1    3    3    0    0 -0.29995405886E+02  0.56017062664E+02  0.11572812267E+03  0.13202512663E+03  0.00000000000E+00 0.  1.
          1    1    1    2  501    0  0.20810216998E+02 -0.24191636707E+02  0.12370598927E+02  0.34224729888E+02  0.00000000000E+00 0. -1.
<scales pt_clust_5="13000.00000" pt_clust_6="13000.00000" pt_clust_7="13000.00000" pt_clust_8="13000.00000" pt_clust_9="31.91082"></scales>
<clustering>
<clus scale="   31.911">  2  9  1 -1</clus>
<clus scale="   90.725">  5  6 -1 -1</clus>
<clus scale="   91.722">  7  8 -1 -1</clus>
<clus scale="   96.096">  2  5  1 -1</clus>
<clus scale="   31.911">  2  5  1 -1</clus>
</clustering>
</event>
<event>
 9    1  0.1426358E-005  0.9513711E+02  0.7546771E-02  0.1291020E+00
         -1   -1    0    0    0  501 -0.00000000000E+00  0.00000000000E+00  0.13370860498E+03  0.13370860498E+03  0.00000000000E+00 0.  1.
         21   -1    0    0  501  502  0.00000000000E+00 -0.00000000000E+00 -0.22903507618E+03  0.22903507618E+03  0.00000000000E+00 0.  1.
         23    2    1    2    0    0  0.12012822536E+02  0.10606212540E+02  0.56334531161E+02  0.10888344985E+03  0.91789033121E+02 0.  0.
         23    2    1    2    0    0 -0.97350291085E+01 -0.46615012863E+02 -0.54921619638E+01  0.10330408912E+03  0.91508692323E+02 0.  0.
        -11    1    4    4    0    0  0.26658472718E+02  0.55413348693E+01  0.21022810285E+02  0.34399696395E+02  0.00000000000E+00 0. -1.
         11    1    4    4    0    0 -0.36393501826E+02 -0.52156347733E+02 -0.26514972249E+02  0.68904392729E+02  0.00000000000E+00 0.  1.
        -13    1    3    3    0    0 -0.22951062299E+02 -0.31161426182E+02  0.22796956917E+02  0.44916444505E+02  0.00000000000E+00 0.  1.
         13    1    3    3    0    0  0.34963884835E+02  0.41767638722E+02  0.33537574244E+02  0.63967005349E+02  0.00000000000E+00 0. -1.
         -1    1    1    2    0  502 -0.22777934274E+01  0.36008800323E+02 -0.14616884040E+03  0.15055614218E+03  0.00000000000E+00 0.  1.
<scales pt_clust_5="13000.00000" pt_clust_6="13000.00000" pt_clust_7="13000.00000" pt_clust_8="13000.00000" pt_clust_9="36.08077"></scales>
<clustering>
<clus scale="   36.081">  2  9  1 -1</clus>
<clus scale="   91.509">  5  6 -1 -1</clus>
<clus scale="   91.789">  7  8 -1 -1</clus>
<clus scale="   94.867">  2  5  1 -1</clus>
<clus scale="   36.081">  2  5  1 -1</clus>
</clustering>
</event>
<event>
 9    1  0.1426358E-005  0.1911714E+03  0.7546771E-02  0.1158291E+00
          3   -1    0    0  502    0 -0.00000000000E+00  0.00000000000E+00  0.37776683250E+03  0.37776683250E+03  0.00000000000E+00 0. -1.
         21   -1    0    0  501  502  0.00000000000E+00 -0.00000000000E+00 -0.19599434082E+03  0.19599434082E+03  0.00000000000E+00 0. -1.
         23    2    1    2    0    0  0.10623537660E+03  0.18026892183E+03  0.19712238490E+03  0.30142303860E+03  0.90640907704E+02 0.  0.
         23    2    1    2    0    0 -0.83927767596E+02 -0.55601569451E+02 -0.52864198232E+02  0.14025141605E+03  0.82100131244E+02 0.  0.
        -11    1    3    3    0    0  0.45447772897E+01  0.77749493063E+02  0.10270527708E+03  0.12889535528E+03  0.00000000000E+00 0.  1.
         11    1    3    3    0    0  0.10169059931E+03  0.10251942877E+03  0.94417107820E+02  0.17252768332E+03  0.00000000000E+00 0. -1.
        -11    1    4    4    0    0 -0.24611214520E+01 -0.45868667841E+02 -0.76358550512E+01  0.46564987820E+02  0.00000000000E+00 0.  1.
         11    1    4    4    0    0 -0.81466646144E+02 -0.97329016098E+01 -0.45228343180E+02  0.93686428230E+02  0.00000000000E+00 0. -1.
          3    1    1    2  501    0 -0.22307609000E+02 -0.12466735238E+03  0.37514305020E+02  0.13208671868E+03  0.00000000000E+00 0. -1.
<scales pt_clust_5="13000.00000" pt_clust_6="13000.00000" pt_clust_7="13000.00000" pt_clust_8="13000.00000" pt_clust_9="126.64746"></scales>
<clustering>
<clus scale="   82.100">  7  8 -1 -1</clus>
<clus scale="   90.641">  5  6 -1 -1</clus>
<clus scale="  126.647">  2  9  1 -1</clus>
<clus scale="  187.273">  2  7  1 -1</clus>
<clus scale="  126.647">  2  5  1 -1</clus>
</clustering>
</event>
<event>
 9    1  0.1426358E-005  0.1413406E+03  0.7546771E-02  0.1231638E+00
         21   -1    0    0  501  502  0.00000000000E+00  0.00000000000E+00  0.96860205076E+02  0.96860205076E+02  0.00000000000E+00 0.  1.
         -3   -1    0    0    0  501 -0.00000000000E+00 -0.00000000000E+00 -0.74710937195E+03  0.74710937195E+03  0.00000000000E+00 0.  1.
         23    2    1    2    0    0  0.17565844094E+02  0.11512679348E+02 -0.47535350916E+03  0.48432267567E+03  0.90368107367E+02 0.  0.
         23    2    1    2    0    0  0.92844043411E+02  0.85157524407E+01 -0.20591098395E+03  0.24322769417E+03  0.89821174922E+02 0.  0.
        -11    1    4    4    0    0  0.11854482911E+02  0.26333388555E+02 -0.12154942167E+03  0.12493293412E+03  0.00000000000E+00 0. -1.
         11    1    4    4    0    0  0.80989560500E+02 -0.17817636115E+02 -0.84361562276E+02  0.11829476005E+03  0.00000000000E+00 0.  1.
        -13    1    3    3    0    0  0.54429166614E+02  0.71305761348E+01 -0.31318028627E+03  0.31795482541E+03  0.00000000000E+00 0.  1.
         13    1    3    3    0    0 -0.36863322520E+02  0.43821032137E+01 -0.16217322289E+03  0.16636785026E+03  0.00000000000E+00 0. -1.
         -3    1    1    2    0  502 -0.11040988751E+03 -0.20028431789E+02  0.31015326242E+02  0.11641920718E+03  0.00000000000E+00 0.  1.
<scales pt_clust_5="13000.00000" pt_clust_6="13000.00000" pt_clust_7="13000.00000" pt_clust_8="13000.00000" pt_clust_9="109.12988"></scales>
<clustering>
<clus scale="   89.821">  5  6 -1 -1</clus>
<clus scale="   90.368">  7  8 -1 -1</clus>
<clus scale="   92.777">  2  7  1 -1</clus>
<clus scale="  109.130">  1  9  2 -1</clus>
<clus scale="  109.130">  1  5  2 -1</clus>
</clustering>
</event>
<event>
 9    1  0.1426358E-005  0.1163382E+03  0.7546771E-02  0.1252293E+00
         21   -1    0    0  501  502  0.00000000000E+00  0.00000000000E+00  0.16735484257E+03  0.16735484257E+03  0.00000000000E+00 0. -1.
          1   -1    0    0  502    0 -0.00000000000E+00 -0.00000000000E+00 -0.17898885513E+03  0.17898885513E+03  0.00000000000E+00 0. -1.
         23    2    1    2    0    0  0.58632822663E+02 -0.22360390402E+02 -0.70551924340E+02  0.13726763091E+03  0.99634499625E+02 0.  0.
         23    2    1    2    0    0 -0.59912626144E+02 -0.49784974522E+01 -0.32003687016E+02  0.11412455382E+03  0.91574393765E+02 0.  0.
        -11    1    4    4    0    0 -0.60573556686E+02 -0.38340261467E+02 -0.36516635635E+02  0.80452446184E+02  0.00000000000E+00 0.  1.
         11    1    4    4    0    0  0.66093054198E+00  0.33361764014E+02  0.45129486194E+01  0.33672107635E+02  0.00000000000E+00 0. -1.
        -13    1    3    3    0    0 -0.91604603071E+01 -0.44581976781E+02 -0.19363984192E+02  0.49461404858E+02  0.00000000000E+00 0.  1.
         13    1    3    3    0    0  0.67793282970E+02  0.22221586379E+02 -0.51187940148E+02  0.87806226053E+02  0.00000000000E+00 0. -1.
          1    1    1    2  501    0  0.12798034811E+01  0.27338887854E+02  0.90921598797E+02  0.94951512962E+02  0.00000000000E+00 0. -1.
<scales pt_clust_5="13000.00000" pt_clust_6="13000.00000" pt_clust_7="13000.00000" pt_clust_8="13000.00000" pt_clust_9="27.36883"></scales>
<clustering>
<clus scale="   27.369">  1  9  2 -1</clus>
<clus scale="   91.574">  5  6 -1 -1</clus>
<clus scale="   99.634">  7  8 -1 -1</clus>
<clus scale="  109.514">  1  5  2 -1</clus>
<clus scale="   27.369">  1  5  2 -1</clus>
</clustering>
</event>
<event>
 9    1  0.1426358E-005  0.9261568E+02  0.7546771E-02  0.1297335E+00
          1   -1    0    0  502    0 -0.00000000000E+00  0.00000000000E+00  0.12746726461E+03  0.12746726461E+03  0.00000000000E+00 0. -1.
         21   -1    0    0  501  502  0.00000000000E+00 -0.00000000000E+00 -0.48529598846E+03  0.48529598846E+03  0.00000000000E+00 0. -1.
         23    2    1    2    0    0 -0.88093571952E+01 -0.10845786751E+02  0.90710022085E+02  0.12861620561E+03  0.90103187366E+02 0.  0.
         23    2    1    2    0    0 -0.32269111305E+02  0.60038398558E+02 -0.23446141226E+03  0.26068237818E+03  0.91308507849E+02 0.  0.
        -11    1    4    4    0    0 -0.63644251312E+02  0.29495290981E+02 -0.14603953141E+03  0.16201267744E+03  0.00000000000E+00 0. -1.
         11    1    4    4    0    0  0.31375140007E+02  0.30543107577E+02 -0.88421880852E+02  0.98669700741E+02  0.00000000000E+00 0.  1.
        -13    1    3    3    0    0  0.35757781363E+02 -0.20902896361E+02  0.24341404205E+02  0.48042210221E+02  0.00000000000E+00 0.  1.
         13    1    3    3    0    0 -0.44567138558E+02  0.10057109610E+02  0.66368617881E+02  0.80573995385E+02  0.00000000000E+00 0. -1.
          1    1    1    2  501    0  0.41078468500E+02 -0.49192611807E+02 -0.21407733367E+03  0.22346466929E+03  0.00000000000E+00 0. -1.
<scales pt_clust_5="13000.00000" pt_clust_6="13000.00000" pt_clust_7="13000.00000" pt_clust_8="13000.00000" pt_clust_9="64.08864"></scales>
<clustering>
<clus scale="   64.089">  2  9  1 -1</clus>
<clus scale="   90.103">  7  8 -1 -1</clus>
<clus scale="   91.309">  5  6 -1 -1</clus>
<clus scale="   91.428">  1  7  2 -1</clus>
<clus scale="   64.089">  2  5  1 -1</clus>
</clustering>
</event>
<event>
 9    1  0.1426358E-005  0.2491408E+03  0.7546771E-02  0.1113890E+00
          1   -1    0    0  502    0 -0.00000000000E+00  0.00000000000E+00  0.11215668658E+04  0.11215668658E+04  0.00000000000E+00 0. -1.
         21   -1    0    0  501  502  0.00000000000E+00 -0.00000000000E+00 -0.13936113936E+03  0.13936113936E+03  0.00000000000E+00 0.  1.
         23    2    1    2    0    0  0.14600327277E+03  0.17170948844E+03  0.72830344242E+03  0.76784067431E+03  0.91390879210E+02 0.  0.
         23    2    1    2    0    0 -0.15044344273E+03 -0.19465003037E+03  0.32521026587E+03  0.41804859523E+03  0.92092601013E+02 0.  0.
        -11    1    4    4    0    0 -0.13194306931E+03 -0.10322228199E+03  0.23218266885E+03  0.28630858309E+03  0.00000000000E+00 0. -1.
         11    1    4    4    0    0 -0.18500373419E+02 -0.91427748377E+02  0.93027597025E+02  0.13174001214E+03  0.00000000000E+00 0.  1.
        -13    1    3    3    0    0  0.63011880793E+02  0.10025985879E+03  0.24277330261E+03  0.27011370358E+03  0.00000000000E+00 0.  1.
         13    1    3    3    0    0  0.82991391978E+02  0.71449629648E+02  0.48553013982E+03  0.49772697073E+03  0.00000000000E+00 0. -1.
          1    1    1    2  501    0  0.44401699558E+01  0.22940541934E+02 -0.71307981837E+02  0.75038735644E+02  0.00000000000E+00 0. -1.
<scales pt_clust_5="13000.00000" pt_clust_6="13000.00000" pt_clust_7="13000.00000" pt_clust_8="13000.00000" pt_clust_9="23.36629"></scales>
<clustering>
<clus scale="   23.366">  2  9  1 -1</clus>
<clus scale="   91.391">  7  8 -1 -1</clus>
<clus scale="   92.093">  5  6 -1 -1</clus>
<clus scale="  248.882">  1  7  2 -1</clus>
<clus scale="   23.366">  2  5  1 -1</clus>
</clustering>
</event>
<event>
 9    1  0.1426358E-005  0.1508644E+03  0.7546771E-02  0.1199501E+00
         21   -1    0    0  501  502  0.00000000000E+00  0.00000000000E+00  0.74926436948E+03  0.74926436948E+03  0.00000000000E+00 0. -1.
          3   -1    0    0  502    0 -0.00000000000E+00 -0.00000000000E+00 -0.91542196740E+02  0.91542196740E+02  0.00000000000E+00 0. -1.
         23    2    1    2    0    0  0.92377459909E+02  0.10907279264E+03  0.22092575036E+02  0.17116942765E+03  0.91544644282E+02 0.  0.
         23    2    1    2    0    0 -0.44026549574E+02 -0.46893640004E+02  0.22035733658E+03  0.24696101148E+03  0.91077082014E+02 0.  0.
        -11    1    4    4    0    0 -0.55691317343E+02 -0.65547458969E+02  0.19654369404E+03  0.21454000996E+03  0.00000000000E+00 0.  1.
         11    1    4    4    0    0  0.11664767769E+02  0.18653818965E+02  0.23813642538E+02  0.32421001527E+02  0.00000000000E+00 0. -1.
        -13    1    3    3    0    0  0.43075608588E+01  0.73801789218E+02  0.18617499701E+02  0.76235624661E+02  0.00000000000E+00 0.  1.
         13    1    3    3    0    0  0.88069899050E+02  0.35271003419E+02  0.34750753353E+01  0.94933802986E+02  0.00000000000E+00 0. -1.
          3    1    1    2  501    0 -0.48350910335E+02 -0.62179152632E+02  0.41527226112E+03  0.42267612709E+03  0.00000000000E+00 0. -1.
<scales pt_clust_5="13000.00000" pt_clust_6="13000.00000" pt_clust_7="13000.00000" pt_clust_8="13000.00000" pt_clust_9="78.76584"></scales>
<clustering>
<clus scale="   78.766">  1  9  2 -1</clus>
<clus scale="   91.077">  5  6 -1 -1</clus>
<clus scale="   91.545">  7  8 -1 -1</clus>
<clus scale="  150.581">  1  5  2 -1</clus>
<clus scale="   78.766">  1  5  2 -1</clus>
</clustering>
</event>
<event>
 9    1  0.1426358E-005  0.1239996E+03  0.7546771E-02  0.1237402E+00
          1   -1    0    0  502    0 -0.00000000000E+00  0.00000000000E+00  0.12898830566E+03  0.12898830566E+03  0.00000000000E+00 0. -1.
         21   -1    0    0  501  502  0.00000000000E+00 -0.00000000000E+00 -0.32646850265E+03  0.32646850265E+03  0.00000000000E+00 0. -1.
         23    2    1    2    0    0 -0.94654656398E+02 -0.30503751892E+02  0.46462561608E+02  0.14142091524E+03  0.89169068517E+02 0.  0.
         23    2    1    2    0    0  0.51797125707E+02  0.14606737864E+02 -0.55232000729E+02  0.11986783924E+03  0.91768327641E+02 0.  0.
        -11    1    3    3    0    0 -0.38205437232E+02 -0.18056007531E+01  0.65017329269E+02  0.75433207100E+02  0.00000000000E+00 0. -1.
         11    1    3    3    0    0 -0.56449219165E+02 -0.28698151138E+02 -0.18554767661E+02  0.65987708144E+02  0.00000000000E+00 0.  1.
        -11    1    4    4    0    0  0.38387372025E+02 -0.32695326258E+02 -0.68472212256E+01  0.50886728413E+02  0.00000000000E+00 0.  1.
         11    1    4    4    0    0  0.13409753682E+02  0.47302064121E+02 -0.48384779503E+02  0.68981110831E+02  0.00000000000E+00 0. -1.
          1    1    1    2  501    0  0.42857530691E+02  0.15897014028E+02 -0.18871075786E+03  0.19416805382E+03  0.00000000000E+00 0. -1.
<scales pt_clust_5="13000.00000" pt_clust_6="13000.00000" pt_clust_7="13000.00000" pt_clust_8="13000.00000" pt_clust_9="45.71086"></scales>
<clustering>
<clus scale="   45.711">  2  9  1 -1</clus>
<clus scale="   89.169">  5  6 -1 -1</clus>
<clus scale="   91.768">  7  8 -1 -1</clus>
<clus scale="  122.089">  1  5  2 -1</clus>
<clus scale="   45.711">  2  5  1 -1</clus>
</clustering>
</event>
<event>
 9    1  0.1426358E-005  0.9250287E+02  0.7546771E-02  0.1297387E+00
         21   -1    0    0  501  502  0.00000000000E+00  0.00000000000E+00  0.23011179636E+03  0.23011179636E+03  0.00000000000E+00 0. -1.
          4   -1    0    0  502    0 -0.00000000000E+00 -0.00000000000E+00 -0.86319387698E+02  0.86319387698E+02  0.00000000000E+00 0. -1.
         23    2    1    2    0    0  0.65636090595E+01 -0.82476086254E+01 -0.77090986595E+01  0.92665543262E+02  0.91740768985E+02 0.  0.
         23    2    1    2    0    0 -0.29564913554E+02 -0.39084963067E+02  0.13209898583E+03  0.16767740503E+03  0.90905729459E+02 0.  0.
        -11    1    4    4    0    0 -0.66663321306E+01  0.29801679644E+02  0.35158554444E+02  0.46569346616E+02  0.00000000000E+00 0.  1.
         11    1    4    4    0    0 -0.22898581423E+02 -0.68886642711E+02  0.96940431382E+02  0.12110805841E+03  0.00000000000E+00 0. -1.
        -13    1    3    3    0    0 -0.20996183485E+02  0.35128345665E+02 -0.45652432202E+01  0.41178657527E+02  0.00000000000E+00 0.  1.
         13    1    3    3    0    0  0.27559792545E+02 -0.43375954290E+02 -0.31438554393E+01  0.51486885735E+02  0.00000000000E+00 0. -1.
          4    1    1    2  501    0  0.23001304494E+02  0.47332571693E+02  0.19402521496E+02  0.56088235771E+02  0.00000000000E+00 0. -1.
<scales pt_clust_5="13000.00000" pt_clust_6="13000.00000" pt_clust_7="13000.00000" pt_clust_8="13000.00000" pt_clust_9="52.62542"></scales>
<clustering>
<clus scale="   52.625">  1  9  2 -1</clus>
<clus scale="   90.906">  5  6 -1 -1</clus>
<clus scale="   91.675">  1  5  2 -1</clus>
<clus scale="   91.741">  7  8 -1 -1</clus>
<clus scale="   52.625">  1  5  2 -1</clus>
</clustering>
</event>
<event>
 9    1  0.1426358E-005  0.1634710E+03  0.7546771E-02  0.1185672E+00
         21   -1    0    0  501  502  0.00000000000E+00  0.00000000000E+00  0.65956206776E+02  0.65956206776E+02  0.00000000000E+00 0.  1.
          2   -1    0    0  502    0 -0.00000000000E+00 -0.00000000000E+00 -0.47327674509E+03  0.47327674509E+03  0.00000000000E+00 0. -1.
         23    2    1    2    0    0  0.27768341440E+02 -0.11511028711E+03 -0.16190798223E+03  0.22097784972E+03  0.92712223432E+02 0.  0.
         23    2    1    2    0    0 -0.21820115221E+02  0.14247810476E+03 -0.21803421016E+03  0.27908939439E+03  0.97856249145E+02 0.  0.
        -13    1    3    3    0    0  0.31408624119E+02 -0.74439222840E+01 -0.78041741074E+02  0.84453697360E+02  0.00000000000E+00 0. -1.
         13    1    3    3    0    0 -0.36402826787E+01 -0.10766636482E+03 -0.83866241156E+02  0.13652415236E+03  0.00000000000E+00 0.  1.
        -13    1    4    4    0    0  0.22768671799E+02  0.50188256927E+02 -0.24969691888E+02  0.60504206977E+02  0.00000000000E+00 0. -1.
         13    1    4    4    0    0 -0.44588787020E+02  0.92289847833E+02 -0.19306451828E+03  0.21858518742E+03  0.00000000000E+00 0.  1.
          2    1    1    2  501    0 -0.59482262193E+01 -0.27367817651E+02 -0.27378345917E+02  0.39165707747E+02  0.00000000000E+00 0. -1.
<scales pt_clust_5="13000.00000" pt_clust_6="13000.00000" pt_clust_7="13000.00000" pt_clust_8="13000.00000" pt_clust_9="28.00676"></scales>
<clustering>
<clus scale="   28.007">  1  9  2 -1</clus>
<clus scale="   92.712">  5  6 -1 -1</clus>
<clus scale="   97.856">  7  8 -1 -1</clus>
<clus scale="  160.445">  2  5  1 -1</clus>
<clus scale="   28.007">  1  5  2 -1</clus>
</clustering>
</event>
<event>
 9    1  0.1426358E-005  0.9688654E+02  0.7546771E-02  0.1287503E+00
         21   -1    0    0  501  502  0.00000000000E+00  0.00000000000E+00  0.47110640237E+02  0.47110640237E+02  0.00000000000E+00 0.  1.
          1   -1    0    0  502    0 -0.00000000000E+00 -0.00000000000E+00 -0.36435392867E+03  0.36435392867E+03  0.00000000000E+00 0. -1.
         23    2    1    2    0    0  0.31980321115E+02 -0.11450230239E+02 -0.24654850173E+03  0.26498909483E+03  0.90990153107E+02 0.  0.
         23    2    1    2    0    0 -0.17214945846E+02  0.35778682246E+02 -0.63665291909E+02  0.11716159203E+03  0.89983891830E+02 0.  0.
        -11    1    4    4    0    0  0.24348770966E+02  0.15630696963E+02 -0.64791110796E+02  0.70958222732E+02  0.00000000000E+00 0. -1.
         11    1    4    4    0    0 -0.41563716811E+02  0.20147985283E+02  0.11258188867E+01  0.46203369296E+02  0.00000000000E+00 0.  1.
        -11    1    3    3    0    0  0.63572179118E+02 -0.25743943808E+01 -0.14721036419E+03  0.16037125923E+03  0.00000000000E+00 0. -1.
         11    1    3    3    0    0 -0.31591858003E+02 -0.88758358578E+01 -0.99338137541E+02  0.10461783559E+03  0.00000000000E+00 0.  1.
          1    1    1    2  501    0 -0.14765375269E+02 -0.24328452007E+02 -0.70294947980E+01  0.29313882053E+02  0.00000000000E+00 0. -1.
<scales pt_clust_5="13000.00000" pt_clust_6="13000.00000" pt_clust_7="13000.00000" pt_clust_8="13000.00000" pt_clust_9="28.45856"></scales>
<clustering>
<clus scale="   28.459">  1  9  2 -1</clus>
<clus scale="   89.984">  5  6 -1 -1</clus>
<clus scale="   90.990">  7  8 -1 -1</clus>
<clus scale="   95.942">  1  5  2 -1</clus>
<clus scale="   28.459">  1  5  2 -1</clus>
</clustering>
</event>
<event>
 9    1  0.1426358E-005  0.1648787E+03  0.7546771E-02  0.1184308E+00
         -1   -1    0    0    0  501 -0.00000000000E+00  0.00000000000E+00  0.23739608450E+02  0.23739608450E+02  0.00000000000E+00 0.  1.
         21   -1    0    0  501  502  0.00000000000E+00 -0.00000000000E+00 -0.13529612405E+04  0.13529612405E+04  0.00000000000E+00 0.  1.
         23    2    1    2    0    0 -0.27994842903E+02 -0.12276374364E+03 -0.50546769807E+03  0.52993719866E+03  0.97371416488E+02 0.  0.
         23    2    1    2    0    0  0.50998101887E+02  0.13418105816E+03 -0.69559447065E+03  0.71605652335E+03  0.90994034185E+02 0.  0.
        -11    1    3    3    0    0  0.99391971223E+00 -0.12452299232E+03 -0.34325318331E+03  0.36514341203E+03  0.00000000000E+00 0.  1.
         11    1    3    3    0    0 -0.28988762615E+02  0.17592486853E+01 -0.16221451476E+03  0.16479378663E+03  0.00000000000E+00 0. -1.
        -13    1    4    4    0    0  0.76267075313E+02  0.82124419420E+02 -0.46322413879E+03  0.47658964508E+03  0.00000000000E+00 0.  1.
         13    1    4    4    0    0 -0.25268973427E+02  0.52056638736E+02 -0.23237033186E+03  0.23946687826E+03  0.00000000000E+00 0. -1.
         -1    1    1    2    0  502 -0.23003258984E+02 -0.11417314516E+02 -0.12815946334E+03  0.13070712696E+03  0.00000000000E+00 0.  1.
<scales pt_clust_5="13000.00000" pt_clust_6="13000.00000" pt_clust_7="13000.00000" pt_clust_8="13000.00000" pt_clust_9="25.68083"></scales>
<clustering>
<clus scale="   25.681">  2  9  1 -1</clus>
<clus scale="   90.994">  7  8 -1 -1</clus>
<clus scale="   97.371">  5  6 -1 -1</clus>
<clus scale="  161.195">  2  7  1 -1</clus>
<clus scale="   25.681">  2  5  1 -1</clus>
</clustering>
</event>
<event>
 9    1  0.1426358E-005  0.1080784E+03  0.7546771E-02  0.1265003E+00
         21   -1    0    0  501  502  0.00000000000E+00  0.00000000000E+00  0.39763616550E+02  0.39763616550E+02  0.00000000000E+00 0.  1.
          1   -1    0    0  502    0 -0.00000000000E+00 -0.00000000000E+00 -0.52830616843E+03  0.52830616843E+03  0.00000000000E+00 0. -1.
         23    2    1    2    0    0  0.56860244665E+02  0.11732109340E+02 -0.25996926077E+03  0.28165351985E+03  0.91509337691E+02 0.  0.
         23    2    1    2    0    0 -0.47376359525E+02  0.45042520385E+02 -0.13755474521E+03  0.17872374749E+03  0.93528187748E+02 0.  0.
        -13    1    3    3    0    0  0.67161614760E+01  0.38618287659E+02 -0.17539490534E+03  0.17972159521E+03  0.00000000000E+00 0. -1.
         13    1    3    3    0    0  0.50144083189E+02 -0.26886178319E+02 -0.84574355432E+02  0.10193192464E+03  0.00000000000E+00 0.  1.
        -13    1    4    4    0    0  0.26738978069E+02  0.20596365338E+02 -0.59125415863E+02  0.68080819724E+02  0.00000000000E+00 0.  1.
         13    1    4    4    0    0 -0.74115337594E+02  0.24446155047E+02 -0.78429329344E+02  0.11064292777E+03  0.00000000000E+00 0. -1.
          1    1    1    2  501    0 -0.94838851396E+01 -0.56774629725E+02 -0.91018545896E+02  0.10769251764E+03  0.00000000000E+00 0. -1.
<scales pt_clust_5="13000.00000" pt_clust_6="13000.00000" pt_clust_7="13000.00000" pt_clust_8="13000.00000" pt_clust_9="57.56129"></scales>
<clustering>
<clus scale="   57.561">  1  9  2 -1</clus>
<clus scale="   91.509">  5  6 -1 -1</clus>
<clus scale="   93.528">  7  8 -1 -1</clus>
<clus scale="  106.336">  2  5  1 -1</clus>
<clus scale="   57.561">  1  5  2 -1</clus>
</clustering>
</event>
<event>
 9    1  0.1426358E-005  0.2052357E+03  0.7546771E-02  0.1166715E+00
         21   -1    0    0  501  502  0.00000000000E+00  0.00000000000E+00  0.46672475345E+03  0.46672475345E+03  0.00000000000E+00 0. -1.
          2   -1    0    0  502    0 -0.00000000000E+00 -0.00000000000E+00 -0.19393442147E+03  0.19393442147E+03  0.00000000000E+00 0. -1.
         23    2    1    2    0    0  0.78272362679E+02  0.26327347030E+02 -0.62977378678E+02  0.13952666409E+03  0.93176433742E+02 0.  0.
         23    2    1    2    0    0  0.10240632659E+03 -0.12887585201E+03  0.12610757429E+03  0.22597432035E+03  0.89806637888E+02 0.  0.
        -11    1    3    3    0    0 -0.16470364112E+01  0.42255424247E+02 -0.28774051372E+02  0.51148603497E+02  0.00000000000E+00 0.  1.
         11    1    3    3    0    0  0.79919399090E+02 -0.15928077217E+02 -0.34203327305E+02  0.88378060589E+02  0.00000000000E+00 0. -1.
        -11    1    4    4    0    0  0.27789497866E+02 -0.73593016757E+02  0.13170528354E+02  0.79759959404E+02  0.00000000000E+00 0. -1.
         11    1    4    4    0    0  0.74616828720E+02 -0.55282835248E+02  0.11293704594E+03  0.14621436095E+03  0.00000000000E+00 0.  1.
          2    1    1    2  501    0 -0.18067868926E+03  0.10254850498E+03  0.20966013636E+03  0.29515819048E+03  0.00000000000E+00 0. -1.
<scales pt_clust_5="13000.00000" pt_clust_6="13000.00000" pt_clust_7="13000.00000" pt_clust_8="13000.00000" pt_clust_9="184.54397"></scales>
<clustering>
<clus scale="   89.807">  7  8 -1 -1</clus>
<clus scale="   93.176">  5  6 -1 -1</clus>
<clus scale="  124.505">  2  5  1 -1</clus>
<clus scale="  184.544">  1  9  2 -1</clus>
<clus scale="  184.544">  1  5  2 -1</clus>
</clustering>
</event>
<event>
 9    1  0.1426358E-005  0.1285938E+03  0.7546771E-02  0.1230168E+00
         21   -1    0    0  501  502  0.00000000000E+00  0.00000000000E+00  0.10850562443E+03  0.10850562443E+03  0.00000000000E+00 0.  1.
          1   -1    0    0  502    0 -0.00000000000E+00 -0.00000000000E+00 -0.24657565693E+03  0.24657565693E+03  0.00000000000E+00 0. -1.
         23    2    1    2    0    0  0.75332225563E+02  0.52999299437E+02 -0.12000837819E+03  0.17594380384E+03  0.89835078485E+02 0.  0.
         23    2    1    2    0    0 -0.52030593001E+02 -0.69001444679E+02  0.23906481897E+02  0.12853748553E+03  0.92097683657E+02 0.  0.
        -11    1    4    4    0    0 -0.31794957553E+01 -0.21800539427E+02 -0.33165175945E+02  0.39815846192E+02  0.00000000000E+00 0.  1.
         11    1    4    4    0    0 -0.48851097246E+02 -0.47200905252E+02  0.57071657842E+02  0.88721639342E+02  0.00000000000E+00 0. -1.
        -13    1    3    3    0    0 -0.72662746892E+01  0.45017620695E+02 -0.39619380052E+02  0.60407617041E+02  0.00000000000E+00 0.  1.
         13    1    3    3    0    0  0.82598500253E+02  0.79816787420E+01 -0.80388998137E+02  0.11553618680E+03  0.00000000000E+00 0. -1.
          1    1    1    2  501    0 -0.23301632562E+02  0.16002145242E+02 -0.41968136201E+02  0.50599991983E+02  0.00000000000E+00 0. -1.
<scales pt_clust_5="13000.00000" pt_clust_6="13000.00000" pt_clust_7="13000.00000" pt_clust_8="13000.00000" pt_clust_9="28.26722"></scales>
<clustering>
<clus scale="   28.267">  1  9  2 -1</clus>
<clus scale="   89.835">  7  8 -1 -1</clus>
<clus scale="   92.098">  5  6 -1 -1</clus>
<clus scale="  126.983">  2  7  1 -1</clus>
<clus scale="   28.267">  1  5  2 -1</clus>
</clustering>
</event>
<event>
 9    1  0.1426358E-005  0.1025963E+03  0.7546771E-02  0.1275751E+00
         21   -1    0    0  501  502  0.00000000000E+00  0.00000000000E+00  0.13834926768E+03  0.13834926768E+03  0.00000000000E+00 0.  1.
         -1   -1    0    0    0  501 -0.00000000000E+00 -0.00000000000E+00 -0.22462998838E+03  0.22462998838E+03  0.00000000000E+00 0.  1.
         23    2    1    2    0    0  0.14708450238E+02 -0.47879541386E+02 -0.10576638712E+03  0.14827394983E+03  0.91048594519E+02 0.  0.
         23    2    1    2    0    0 -0.25715256677E+02  0.28145519643E+02 -0.70038417143E+02  0.12237360561E+03  0.92824968475E+02 0.  0.
        -11    1    3    3    0    0 -0.23514793801E+02 -0.13997269927E+02 -0.91114719334E+02  0.95135488501E+02  0.00000000000E+00 0.  1.
         11    1    3    3    0    0  0.38223244039E+02 -0.33882271459E+02 -0.14651667782E+02  0.53138461333E+02  0.00000000000E+00 0. -1.
        -13    1    4    4    0    0 -0.33295032426E+02 -0.20759051790E+02 -0.60291466445E+02  0.71934403046E+02  0.00000000000E+00 0. -1.
         13    1    4    4    0    0  0.75797757488E+01  0.48904571433E+02 -0.97469506981E+01  0.50439202565E+02  0.00000000000E+00 0.  1.
         -1    1    1    2    0  502  0.11006806439E+02  0.19734021743E+02  0.89524083556E+02  0.92331700616E+02  0.00000000000E+00 0.  1.
<scales pt_clust_5="13000.00000" pt_clust_6="13000.00000" pt_clust_7="13000.00000" pt_clust_8="13000.00000" pt_clust_9="22.59605"></scales>
<clustering>
<clus scale="   22.596">  1  9  2 -1</clus>
<clus scale="   91.049">  5  6 -1 -1</clus>
<clus scale="   92.825">  7  8 -1 -1</clus>
<clus scale="  100.992">  2  5  1 -1</clus>
<clus scale="   22.596">  1  5  2 -1</clus>
</clustering>
</event>
<event>
 9    1  0.1426358E-005  0.1453341E+03  0.7546771E-02  0.1206727E+00
         21   -1    0    0  501  502  0.00000000000E+00  0.00000000000E+00  0.17494142717E+03  0.17494142717E+03  0.00000000000E+00 0. -1.
          2   -1    0    0  502    0 -0.00000000000E+00 -0.00000000000E+00 -0.33515653697E+03  0.33515653697E+03  0.00000000000E+00 0. -1.
         23    2    1    2    0    0  0.40977016179E+02 -0.98209219056E+02 -0.16809643274E+03  0.21817855527E+03  0.89561736917E+02 0.  0.
         23    2    1    2    0    0 -0.36496685962E+02  0.11859616335E+03 -0.98849046434E+02  0.18316706360E+03  0.91553160294E+02 0.  0.
        -13    1    3    3    0    0  0.18432548859E+02  0.14389511293E+02 -0.38314013856E+02  0.44886306937E+02  0.00000000000E+00 0. -1.
         13    1    3    3    0    0  0.22544467321E+02 -0.11259873035E+03 -0.12978241888E+03  0.17329224834E+03  0.00000000000E+00 0.  1.
        -13    1    4    4    0    0 -0.64190249174E+01  0.12232036024E+03 -0.68799402960E+02  0.14048783669E+03  0.00000000000E+00 0. -1.
         13    1    4    4    0    0 -0.30077661044E+02 -0.37241968961E+01 -0.30049643474E+02  0.42679226907E+02  0.00000000000E+00 0.  1.
          2    1    1    2  501    0 -0.44803302179E+01 -0.20386944293E+02  0.10673036936E+03  0.10875234527E+03  0.00000000000E+00 0. -1.
<scales pt_clust_5="13000.00000" pt_clust_6="13000.00000" pt_clust_7="13000.00000" pt_clust_8="13000.00000" pt_clust_9="20.87345"></scales>
<clustering>
<clus scale="   20.873">  1  9  2 -1</clus>
<clus scale="   89.562">  5  6 -1 -1</clus>
<clus scale="   91.553">  7  8 -1 -1</clus>
<clus scale="  144.088">  2  5  1 -1</clus>
<clus scale="   20.873">  1  5  2 -1</clus>
</clustering>
</event>
<event>
 9    1  0.1426358E-005  0.1240226E+03  0.7546771E-02  0.1238159E+00
         21   -1    0    0  501  502  0.00000000000E+00  0.00000000000E+00  0.78720194383E+02  0.78720194383E+02  0.00000000000E+00 0.  1.
          1   -1    0    0  502    0 -0.00000000000E+00 -0.00000000000E+00 -0.34086870975E+03  0.34086870975E+03  0.00000000000E+00 0. -1.
         23    2    1    2    0    0  0.30326070620E+01 -0.10473859929E+03 -0.15394051806E+03  0.20807797025E+03  0.92840657683E+02 0.  0.
         23    2    1    2    0    0  0.43888863250E+02  0.52418215277E+02 -0.72485382449E+02  0.13267469747E+03  0.87604469462E+02 0.  0.
        -13    1    3    3    0    0  0.23922176159E+02 -0.70095152223E+02 -0.33994635134E+02  0.81493779489E+02  0.00000000000E+00 0.  1.
         13    1    3    3    0    0 -0.20889569097E+02 -0.34643447063E+02 -0.11994588292E+03  0.12658419076E+03  0.00000000000E+00 0. -1.
        -13    1    4    4    0    0 -0.25324697985E+02  0.18876878862E+02 -0.34895739693E+02  0.47067924666E+02  0.00000000000E+00 0.  1.
         13    1    4    4    0    0  0.69213561235E+02  0.33541336415E+02 -0.37589642756E+02  0.85606772804E+02  0.00000000000E+00 0. -1.
          1    1    1    2  501    0 -0.46921470312E+02  0.52320384009E+02 -0.35722614864E+02  0.78836236413E+02  0.00000000000E+00 0. -1.
<scales pt_clust_5="13000.00000" pt_clust_6="13000.00000" pt_clust_7="13000.00000" pt_clust_8="13000.00000" pt_clust_9="70.27835"></scales>
<clustering>
<clus scale="   70.278">  1  9  2 -1</clus>
<clus scale="   87.604">  7  8 -1 -1</clus>
<clus scale="   92.841">  5  6 -1 -1</clus>
<clus scale="  120.153">  1  7  2 -1</clus>
<clus scale="   70.278">  1  5  2 -1</clus>
</clustering>
</event>
<event>
 9    1  0.1426358E-005  0.2261064E+03  0.7546771E-02  0.1129561E+00
         21   -1    0    0  501  502  0.00000000000E+00  0.00000000000E+00  0.84533862508E+03  0.84533862508E+03  0.00000000000E+00 0.  1.
          3   -1    0    0  502    0 -0.00000000000E+00 -0.00000000000E+00 -0.11986337245E+03  0.11986337245E+03  0.00000000000E+00 0. -1.
         23    2    1    2    0    0 -0.10138816151E+03  0.17482030108E+03  0.40244378793E+02  0.22634065330E+03  0.93641787412E+02 0.  0.
         23    2    1    2    0    0  0.10295169967E+03 -0.19580254331E+03  0.52216308561E+03  0.57444175081E+03  0.91604304859E+02 0.  0.
        -11    1    4    4    0    0  0.63726662239E+02 -0.17575876606E+03  0.47203363945E+03  0.50770856611E+03  0.00000000000E+00 0.  1.
         11    1    4    4    0    0  0.39225037435E+02 -0.20043777251E+02  0.50129446155E+02  0.66733184699E+02  0.00000000000E+00 0. -1.
        -13    1    3    3    0    0 -0.79998916536E+02  0.16083549714E+03  0.64738606637E+02  0.19094232369E+03  0.00000000000E+00 0. -1.
         13    1    3    3    0    0 -0.21389244971E+02  0.13984803940E+02 -0.24494227844E+02  0.35398329612E+02  0.00000000000E+00 0.  1.
          3    1    1    2  501    0 -0.15635381674E+01  0.20982242230E+02  0.16306778823E+03  0.16441959342E+03  0.00000000000E+00 0. -1.
<scales pt_clust_5="13000.00000" pt_clust_6="13000.00000" pt_clust_7="13000.00000" pt_clust_8="13000.00000" pt_clust_9="21.04042"></scales>
<clustering>
<clus scale="   21.040">  1  9  2 -1</clus>
<clus scale="   91.604">  5  6 -1 -1</clus>
<clus scale="   93.642">  7  8 -1 -1</clus>
<clus scale="  225.270">  1  5  2 -1</clus>
<clus scale="   21.040">  1  5  2 -1</clus>
</clustering>
</event>
<event>
 9    1  0.1426358E-005  0.3048796E+03  0.7546771E-02  0.1099991E+00
          1   -1    0    0  502    0 -0.00000000000E+00  0.00000000000E+00  0.10556422081E+04  0.10556422081E+04  0.00000000000E+00 0. -1.
         21   -1    0    0  501  502  0.00000000000E+00 -0.00000000000E+00 -0.29031551808E+03  0.29031551808E+03  0.00000000000E+00 0.  1.
         23    2    1    2    0    0  0.16013960779E+03 -0.57366494048E+02  0.64552374256E+03  0.67401574441E+03  0.93062951155E+02 0.  0.
         23    2    1    2    0    0 -0.30494830114E+03 -0.12415134516E+03 -0.95306204762E+02  0.35541357706E+03  0.93960178918E+02 0.  0.
        -11    1    3    3    0    0  0.11546736317E+03  0.46557354542E+01  0.34114337485E+03  0.36018493865E+03  0.00000000000E+00 0.  1.
         11    1    3    3    0    0  0.44672244623E+02 -0.62022229502E+02  0.30438036771E+03  0.31383080576E+03  0.00000000000E+00 0. -1.
        -13    1    4    4    0    0 -0.21891614023E+03 -0.65775825194E+02 -0.10390407720E+03  0.25109120433E+03  0.00000000000E+00 0.  1.
         13    1    4    4    0    0 -0.86032160907E+02 -0.58375519964E+02  0.85978724417E+01  0.10432237273E+03  0.00000000000E+00 0. -1.
          1    1    1    2  501    0  0.14480869335E+03  0.18151783921E+03  0.21510915220E+03  0.31652840469E+03  0.00000000000E+00 0. -1.
<scales pt_clust_5="13000.00000" pt_clust_6="13000.00000" pt_clust_7="13000.00000" pt_clust_8="13000.00000" pt_clust_9="290.03992"></scales>
<clustering>
<clus scale="   93.063">  5  6 -1 -1</clus>
<clus scale="   93.960">  7  8 -1 -1</clus>
<clus scale="  193.898">  1  5  2 -1</clus>
<clus scale="  290.040">  2  9  1 -1</clus>
<clus scale="  290.040">  2  5  1 -1</clus>
</clustering>
</event>
<event>
 9    1  0.1426358E-005  0.1585171E+03  0.7546771E-02  0.1190411E+00
          2   -1    0    0  502    0 -0.00000000000E+00  0.00000000000E+00  0.20682935610E+03  0.20682935610E+03  0.00000000000E+00 0. -1.
         21   -1    0    0  501  502  0.00000000000E+00 -0.00000000000E+00 -0.30622212811E+03  0.30622212811E+03  0.00000000000E+00 0. -1.
         23    2    1    2    0    0 -0.29959871308E+02  0.14695880516E+03  0.11763967713E+03  0.21166582488E+03  0.92026319501E+02 0.  0.
         23    2    1    2    0    0  0.38903862308E+01 -0.54718826481E+02 -0.15072781375E+03  0.18483465593E+03  0.91846018519E+02 0.  0.
        -11    1    4    4    0    0  0.42006851496E+01  0.25579613649E+02 -0.46799200764E+02  0.53498855897E+02  0.00000000000E+00 0. -1.
         11    1    4    4    0    0 -0.31029891876E+00 -0.80298440130E+02 -0.10392861299E+03  0.13133580004E+03  0.00000000000E+00 0.  1.
        -11    1    3    3    0    0 -0.44489426523E+01  0.11427005442E+03  0.35645586780E+02  0.11978333058E+03  0.00000000000E+00 0.  1.
         11    1    3    3    0    0 -0.25510928655E+02  0.32688750748E+02  0.81994090351E+02  0.91882494300E+02  0.00000000000E+00 0. -1.
          2    1    1    2  501    0  0.26069485077E+02 -0.92239978682E+02 -0.66304635394E+02  0.11655100340E+03  0.00000000000E+00 0. -1.
<scales pt_clust_5="13000.00000" pt_clust_6="13000.00000" pt_clust_7="13000.00000" pt_clust_8="13000.00000" pt_clust_9="95.85318"></scales>
<clustering>
<clus scale="   91.846">  5  6 -1 -1</clus>
<clus scale="   92.026">  7  8 -1 -1</clus>
<clus scale="   95.853">  2  9  1 -1</clus>
<clus scale="  158.413">  2  5  1 -1</clus>
<clus scale="   95.853">  2  5  1 -1</clus>
</clustering>
</event>
<event>
 9    1  0.1426358E-005  0.1080966E+03  0.7546771E-02  0.1264412E+00
          1   -1    0    0  502    0 -0.00000000000E+00  0.00000000000E+00  0.21416993606E+03  0.21416993606E+03  0.00000000000E+00 0. -1.
         21   -1    0    0  501  502  0.00000000000E+00 -0.00000000000E+00 -0.97072659325E+02  0.97072659325E+02  0.00000000000E+00 0. -1.
         23    2    1    2    0    0 -0.48862809940E+02 -0.28018234575E+02  0.10892934858E+03  0.15225442683E+03  0.90239746468E+02 0.  0.
         23    2    1    2    0    0  0.64100677835E+02  0.10125210798E+02  0.40662978956E+02  0.11888478660E+03  0.90932380564E+02 0.  0.
        -11    1    3    3    0    0  0.90593863899E+01  0.23333026454E+02  0.10777966866E+02  0.27251920575E+02  0.00000000000E+00 0.  1.
         11    1    3    3    0    0 -0.57922196330E+02 -0.51351261029E+02  0.98151381718E+02  0.12500250626E+03  0.00000000000E+00 0. -1.
        -11    1    4    4    0    0  0.63813391425E+02 -0.13148947381E+02  0.60039618731E+02  0.88599094577E+02  0.00000000000E+00 0. -1.
         11    1    4    4    0    0  0.28728640986E+00  0.23274158179E+02 -0.19376639775E+02  0.30285692024E+02  0.00000000000E+00 0.  1.
          1    1    1    2  501    0 -0.15237867895E+02  0.17893023777E+02 -0.32495050800E+02  0.40103381957E+02  0.00000000000E+00 0. -1.
<scales pt_clust_5="13000.00000" pt_clust_6="13000.00000" pt_clust_7="13000.00000" pt_clust_8="13000.00000" pt_clust_9="23.50219"></scales>
<clustering>
<clus scale="   23.502">  2  9  1 -1</clus>
<clus scale="   90.240">  5  6 -1 -1</clus>
<clus scale="   90.932">  7  8 -1 -1</clus>
<clus scale="  107.515">  1  5  2 -1</clus>
<clus scale="   23.502">  2  5  1 -1</clus>
</clustering>
</event>
<event>
 9    1  0.1426358E-005  0.9373386E+02  0.7546771E-02  0.1294140E+00
         21   -1    0    0  501  502  0.00000000000E+00  0.00000000000E+00  0.22006239063E+03  0.22006239063E+03  0.00000000000E+00 0. -1.
          1   -1    0    0  502    0 -0.00000000000E+00 -0.00000000000E+00 -0.20517252665E+03  0.20517252665E+03  0.00000000000E+00 0. -1.
         23    2    1    2    0    0  0.10324504203E+02  0.20943617453E+02 -0.16071427186E+03  0.18621023107E+03  0.91104020094E+02 0.  0.
         23    2    1    2    0    0 -0.35199389603E+02  0.61836070642E+01  0.53314757301E+02  0.11131666635E+03  0.90948902335E+02 0.  0.
        -11    1    3    3    0    0  0.42422873429E+02  0.10782353275E+02 -0.13999262328E+03  0.14667615316E+03  0.00000000000E+00 0. -1.
         11    1    3    3    0    0 -0.32098369227E+02  0.10161264177E+02 -0.20721648580E+02  0.39534077915E+02  0.00000000000E+00 0.  1.
        -11    1    4    4    0    0 -0.38504383642E+01  0.32068309159E+02 -0.11939130061E+02  0.34434650492E+02  0.00000000000E+00 0. -1.
         11    1    4    4    0    0 -0.31348951239E+02 -0.25884702095E+02  0.65253887361E+02  0.76882015856E+02  0.00000000000E+00 0.  1.
          1    1    1    2  501    0  0.24874885400E+02 -0.27127224517E+02  0.12228937854E+03  0.12770801986E+03  0.00000000000E+00 0. -1.
<scales pt_clust_5="13000.00000" pt_clust_6="13000.00000" pt_clust_7="13000.00000" pt_clust_8="13000.00000" pt_clust_9="36.80552"></scales>
<clustering>
<clus scale="   36.806">  1  9  2 -1</clus>
<clus scale="   90.949">  7  8 -1 -1</clus>
<clus scale="   91.104">  5  6 -1 -1</clus>
<clus scale="   93.583">  1  7  2 -1</clus>
<clus scale="   36.806">  1  5  2 -1</clus>
</clustering>
</event>
<event>
 9    1  0.1426358E-005  0.1146602E+03  0.7546771E-02  0.1254540E+00
         21   -1    0    0  501  502  0.00000000000E+00  0.00000000000E+00  0.47233515026E+03  0.47233515026E+03  0.00000000000E+00 0. -1.
          2   -1    0    0  502    0 -0.00000000000E+00 -0.00000000000E+00 -0.35699973780E+02  0.35699973780E+02  0.00000000000E+00 0. -1.
         23    2    1    2    0    0  0.42656643218E-01  0.62207153260E+02  0.17484261294E+03  0.20944751341E+03  0.97100926045E+02 0.  0.
         23    2    1    2    0    0  0.27673975955E+02 -0.56634824723E+02  0.23467546237E+03  0.25941364294E+03  0.90826830796E+02 0.  0.
        -11    1    3    3    0    0  0.21212867617E+02  0.74474218637E+02  0.79361207968E+02  0.11088100074E+03  0.00000000000E+00 0. -1.
         11    1    3    3    0    0 -0.21170210973E+02 -0.12267065378E+02  0.95481404974E+02  0.98566512678E+02  0.00000000000E+00 0.  1.
        -13    1    4    4    0    0 -0.32815748451E+02 -0.19526397167E+02  0.63296041069E+02  0.73922542892E+02  0.00000000000E+00 0.  1.
         13    1    4    4    0    0  0.60489724406E+02 -0.37108427556E+02  0.17137942130E+03  0.18549110005E+03  0.00000000000E+00 0. -1.
          2    1    1    2  501    0 -0.27716632598E+02 -0.55723285367E+01  0.27117101170E+02  0.39173967680E+02  0.00000000000E+00 0. -1.
<scales pt_clust_5="13000.00000" pt_clust_6="13000.00000" pt_clust_7="13000.00000" pt_clust_8="13000.00000" pt_clust_9="28.27125"></scales>
<clustering>
<clus scale="   28.271">  1  9  2 -1</clus>
<clus scale="   90.827">  7  8 -1 -1</clus>
<clus scale="   97.101">  5  6 -1 -1</clus>
<clus scale="  109.398">  1  7  2 -1</clus>
<clus scale="   28.271">  1  5  2 -1</clus>
</clustering>
</event>
<event>
 9    1  0.1426358E-005  0.4697346E+03  0.7546771E-02  0.1022000E+00
          1   -1    0    0  502    0 -0.00000000000E+00  0.00000000000E+00  0.11006127707E+04  0.11006127707E+04  0.00000000000E+00 0. -1.
         21   -1    0    0  501  502  0.00000000000E+00 -0.00000000000E+00 -0.40721188121E+03  0.40721188121E+03  0.00000000000E+00 0.  1.
         23    2    1    2    0    0  0.49067958412E+03  0.37662443925E+02  0.74328926852E+03  0.89604455430E+03  0.90730329205E+02 0.  0.
         23    2    1    2    0    0 -0.36409912236E+03 -0.16993023587E+03  0.28082187353E+02  0.41279067253E+03  0.90349732258E+02 0.  0.
        -11    1    3    3    0    0  0.44496127857E+03  0.34865543346E+02  0.71285360283E+03  0.84105077410E+03  0.00000000000E+00 0.  1.
         11    1    3    3    0    0  0.45718305540E+02  0.27969005783E+01  0.30435665685E+02  0.54993780194E+02  0.00000000000E+00 0. -1.
        -13    1    4    4    0    0 -0.32331997096E+03 -0.16246318275E+03 -0.15265745573E+01  0.36184585089E+03  0.00000000000E+00 0. -1.
         13    1    4    4    0    0 -0.40779151392E+02 -0.74670531165E+01  0.29608761910E+02  0.50944821644E+02  0.00000000000E+00 0.  1.
          1    1    1    2  501    0 -0.12658046176E+03  0.13226779194E+03 -0.77970566365E+02  0.19898942511E+03  0.00000000000E+00 0. -1.
<scales pt_clust_5="13000.00000" pt_clust_6="13000.00000" pt_clust_7="13000.00000" pt_clust_8="13000.00000" pt_clust_9="183.07753"></scales>
<clustering>
<clus scale="   90.350">  7  8 -1 -1</clus>
<clus scale="   90.730">  5  6 -1 -1</clus>
<clus scale="  183.078">  2  9  1 -1</clus>
<clus scale="  469.661">  2  7  1 -1</clus>
<clus scale="  183.078">  2  5  1 -1</clus>
</clustering>
</event>
<event>
 9    1  0.1426358E-005  0.3877154E+03  0.7546771E-02  0.1048181E+00
         21   -1    0    0  501  502  0.00000000000E+00  0.00000000000E+00  0.10837300186E+04  0.10837300186E+04  0.00000000000E+00 0.  1.
          2   -1    0    0  502    0 -0.00000000000E+00 -0.00000000000E+00 -0.21710689547E+03  0.21710689547E+03  0.00000000000E+00 0. -1.
         23    2    1    2    0    0  0.75008711326E+01 -0.33318366367E+03  0.20110025826E+03  0.40051238453E+03  0.94346380349E+02 0.  0.
         23    2    1    2    0    0  0.31939736692E+02  0.46170430054E+03  0.50925368825E+03  0.69418581118E+03  0.91452794031E+02 0.  0.
        -11    1    4    4    0    0 -0.27414033435E+02  0.17995505276E+03  0.22714231079E+03  0.29108242749E+03  0.00000000000E+00 0. -1.
         11    1    4    4    0    0  0.59353770127E+02  0.28174924778E+03  0.28211137746E+03  0.40310338369E+03  0.00000000000E+00 0.  1.
        -11    1    3    3    0    0 -0.11452699500E+02 -0.29758593355E+03  0.20254577723E+03  0.36015738789E+03  0.00000000000E+00 0. -1.
         11    1    3    3    0    0  0.18953570632E+02 -0.35597730113E+02 -0.14455189676E+01  0.40354996642E+02  0.00000000000E+00 0.  1.
          2    1    1    2  501    0 -0.39440607824E+02 -0.12852063687E+03  0.15626917662E+03  0.20613871836E+03  0.00000000000E+00 0. -1.
<scales pt_clust_5="13000.00000" pt_clust_6="13000.00000" pt_clust_7="13000.00000" pt_clust_8="13000.00000" pt_clust_9="134.43629"></scales>
<clustering>
<clus scale="   91.453">  5  6 -1 -1</clus>
<clus scale="   94.346">  7  8 -1 -1</clus>
<clus scale="  134.436">  1  9  2 -1</clus>
<clus scale="  387.021">  1  5  2 -1</clus>
<clus scale="  134.436">  1  5  2 -1</clus>
</clustering>
</event>
<event>
 9    1  0.1426358E-005  0.1080763E+03  0.7546771E-02  0.1264512E+00
         -3   -1    0    0    0  501 -0.00000000000E+00  0.00000000000E+00  0.11379592575E+03  0.11379592575E+03  0.00000000000E+00 0.  1.
         21   -1    0    0  501  502  0.00000000000E+00 -0.00000000000E+00 -0.27359426320E+03  0.27359426320E+03  0.00000000000E+00 0.  1.
         23    2    1    2    0    0  0.34325333088E+02 -0.34749091869E+02  0.21142672917E+02  0.10321397656E+03  0.88432937658E+02 0.  0.
         23    2    1    2    0    0 -0.23167298324E+02  0.93791152729E+02 -0.51147384856E+02  0.14114876078E+03  0.89293973208E+02 0.  0.
        -11    1    3    3    0    0 -0.22877444273E+02 -0.92210110330E+01 -0.16924163935E+02  0.29913739750E+02  0.00000000000E+00 0. -1.
         11    1    3    3    0    0  0.57202777362E+02 -0.25528080836E+02  0.38066836852E+02  0.73300236814E+02  0.00000000000E+00 0.  1.
        -11    1    4    4    0    0 -0.24230825002E+02  0.45234377201E+02  0.19940440088E+02  0.55053636683E+02  0.00000000000E+00 0.  1.
         11    1    4    4    0    0  0.10635266775E+01  0.48556775528E+02 -0.71087824944E+02  0.86095124101E+02  0.00000000000E+00 0. -1.
         -3    1    1    2    0  502 -0.11158034764E+02 -0.59042060861E+02 -0.12979362550E+03  0.14302745160E+03  0.00000000000E+00 0.  1.
<scales pt_clust_5="13000.00000" pt_clust_6="13000.00000" pt_clust_7="13000.00000" pt_clust_8="13000.00000" pt_clust_9="60.08716"></scales>
<clustering>
<clus scale="   60.087">  2  9  1 -1</clus>
<clus scale="   88.433">  5  6 -1 -1</clus>
<clus scale="   89.294">  7  8 -1 -1</clus>
<clus scale="  107.366">  1  5  2 -1</clus>
<clus scale="   60.087">  2  5  1 -1</clus>
</clustering>
</event>
<event>
 9    1  0.1426358E-005  0.1242367E+03  0.7546771E-02  0.1237317E+00
          1   -1    0    0  502    0 -0.00000000000E+00  0.00000000000E+00  0.55851980436E+03  0.55851980436E+03  0.00000000000E+00 0. -1.
         21   -1    0    0  501  502  0.00000000000E+00 -0.00000000000E+00 -0.94502615407E+02  0.94502615407E+02  0.00000000000E+00 0. -1.
         23    2    1    2    0    0 -0.72602084934E+02  0.56408074234E+02  0.33006959055E+03  0.35446714212E+03  0.90818977399E+02 0.  0.
         23    2    1    2    0    0  0.51774922995E+02 -0.55932106152E+02  0.19900507311E+03  0.23024369564E+03  0.87178535809E+02 0.  0.
        -11    1    4    4    0    0 -0.17683901616E+02 -0.38436846212E+02  0.54834036846E+02  0.69259534505E+02  0.00000000000E+00 0.  1.
         11    1    4    4    0    0  0.69458824611E+02 -0.17495259940E+02  0.14417103627E+03  0.16098416113E+03  0.00000000000E+00 0. -1.
        -11    1    3    3    0    0 -0.80051244113E+02  0.10952346225E+02  0.17601146570E+03  0.19367031685E+03  0.00000000000E+00 0.  1.
         11    1    3    3    0    0  0.74491591791E+01  0.45455728009E+02  0.15405812485E+03  0.16079682526E+03  0.00000000000E+00 0. -1.
          1    1    1    2  501    0  0.20827161939E+02 -0.47596808201E+00 -0.65057474719E+02  0.68311582011E+02  0.00000000000E+00 0. -1.
<scales pt_clust_5="13000.00000" pt_clust_6="13000.00000" pt_clust_7="13000.00000" pt_clust_8="13000.00000" pt_clust_9="20.83260"></scales>
<clustering>
<clus scale="   20.833">  2  9  1 -1</clus>
<clus scale="   87.179">  5  6 -1 -1</clus>
<clus scale="   90.819">  7  8 -1 -1</clus>
<clus scale="  121.601">  2  5  1 -1</clus>
<clus scale="   20.833">  2  5  1 -1</clus>
</clustering>
</event>
<event>
 9    1  0.1426358E-005  0.1135505E+03  0.7546771E-02  0.1254914E+00
          1   -1    0    0  502    0 -0.00000000000E+00  0.00000000000E+00  0.21005946866E+03  0.21005946866E+03  0.00000000000E+00 0. -1.
         21   -1    0    0  501  502  0.00000000000E+00 -0.00000000000E+00 -0.14499330650E+03  0.14499330650E+03  0.00000000000E+00 0. -1.
         23    2    1    2    0    0 -0.39448362781E+02 -0.77262673415E+02  0.90158283487E+02  0.15404306804E+03  0.89861319271E+02 0.  0.
         23    2    1    2    0    0  0.37364368171E+02  0.30380862831E+02  0.47786115619E+02  0.11432934823E+03  0.92024965017E+02 0.  0.
        -11    1    3    3    0    0  0.77917760086E+01 -0.58284953486E+02  0.10842702038E+02  0.59794746957E+02  0.00000000000E+00 0.  1.
         11    1    3    3    0    0 -0.47240138789E+02 -0.18977719929E+02  0.79315581450E+02  0.94248321084E+02  0.00000000000E+00 0. -1.
        -13    1    4    4    0    0 -0.52893827270E+01  0.42452523377E+02 -0.75343294648E+01  0.43439157810E+02  0.00000000000E+00 0. -1.
         13    1    4    4    0    0  0.42653750898E+02 -0.12071660547E+02  0.55320445084E+02  0.70890190424E+02  0.00000000000E+00 0.  1.
          1    1    1    2  501    0  0.20839946093E+01  0.46881810584E+02 -0.72878236948E+02  0.86680358893E+02  0.00000000000E+00 0. -1.
<scales pt_clust_5="13000.00000" pt_clust_6="13000.00000" pt_clust_7="13000.00000" pt_clust_8="13000.00000" pt_clust_9="46.92811"></scales>
<clustering>
<clus scale="   46.928">  2  9  1 -1</clus>
<clus scale="   89.861">  5  6 -1 -1</clus>
<clus scale="   92.025">  7  8 -1 -1</clus>
<clus scale="  111.804">  1  5  2 -1</clus>
<clus scale="   46.928">  2  5  1 -1</clus>
</clustering>
</event>
<event>
 9    1  0.1426358E-005  0.8907123E+02  0.7546771E-02  0.1307534E+00
         -1   -1    0    0    0  501 -0.00000000000E+00  0.00000000000E+00  0.24026846054E+03  0.24026846054E+03  0.00000000000E+00 0.  1.
         21   -1    0    0  501  502  0.00000000000E+00 -0.00000000000E+00 -0.54658575694E+02  0.54658575694E+02  0.00000000000E+00 0. -1.
         23    2    1    2    0    0 -0.11374150025E+02  0.10739817827E+02  0.11887856656E+03  0.14869060828E+03  0.87932180837E+02 0.  0.
         23    2    1    2    0    0 -0.27077206331E+02 -0.20019812266E+02  0.48030126107E+02  0.10248303162E+03  0.84035175785E+02 0.  0.
        -11    1    3    3    0    0 -0.78962179025E+01  0.49390258252E+02  0.59153722461E+02  0.77465545556E+02  0.00000000000E+00 0.  1.
         11    1    3    3    0    0 -0.34779321223E+01 -0.38650440425E+02  0.59724844104E+02  0.71225062725E+02  0.00000000000E+00 0. -1.
        -13    1    4    4    0    0 -0.47224527651E+02  0.11566873603E+02  0.42568029389E+02  0.64621867064E+02  0.00000000000E+00 0.  1.
         13    1    4    4    0    0  0.20147321319E+02 -0.31586685870E+02  0.54620967180E+01  0.37861164551E+02  0.00000000000E+00 0. -1.
         -1    1    1    2    0  502  0.38451356356E+02  0.92799944392E+01  0.18701192173E+02  0.43753396338E+02  0.00000000000E+00 0.  1.
<scales pt_clust_5="13000.00000" pt_clust_6="13000.00000" pt_clust_7="13000.00000" pt_clust_8="13000.00000" pt_clust_9="39.55534"></scales>
<clustering>
<clus scale="   39.555">  2  9  1 -1</clus>
<clus scale="   84.035">  7  8 -1 -1</clus>
<clus scale="   85.226">  2  7  1 -1</clus>
<clus scale="   87.932">  5  6 -1 -1</clus>
<clus scale="   39.555">  2  5  1 -1</clus>
</clustering>
</event>
<event>
 9    1  0.1426358E-005  0.1257588E+03  0.7546771E-02  0.1234579E+00
         21   -1    0    0  501  502  0.00000000000E+00  0.00000000000E+00  0.97485469463E+02  0.97485469463E+02  0.00000000000E+00 0.  1.
         -4   -1    0    0    0  501 -0.00000000000E+00 -0.00000000000E+00 -0.45545705621E+03  0.45545705621E+03  0.00000000000E+00 0.  1.
         23    2    1    2    0    0 -0.78095200982E+02 -0.68906682424E+00 -0.31896770496E+03  0.34107840042E+03  0.92166931151E+02 0.  0.
         23    2    1    2    0    0  0.12573947551E+03 -0.17376974534E+02 -0.41343741681E+02  0.16085595248E+03  0.89738272361E+02 0.  0.
        -13    1    4    4    0    0  0.75434423316E+02 -0.53266049815E+01  0.22300004247E+02  0.78841709336E+02  0.00000000000E+00 0.  1.
         13    1    4    4    0    0  0.50305052195E+02 -0.12050369552E+02 -0.63643745928E+02  0.82014243143E+02  0.00000000000E+00 0. -1.
        -13    1    3    3    0    0 -0.39436762210E+02 -0.46427588706E+02 -0.15974497923E+03  0.17096560355E+03  0.00000000000E+00 0.  1.
         13    1    3    3    0    0 -0.38658438772E+02  0.45738521882E+02 -0.15922272573E+03  0.17011279687E+03  0.00000000000E+00 0. -1.
         -4    1    1    2    0  502 -0.47644274529E+02  0.18066041358E+02  0.23398598876E+01  0.51008172777E+02  0.00000000000E+00 0.  1.
<scales pt_clust_5="13000.00000" pt_clust_6="13000.00000" pt_clust_7="13000.00000" pt_clust_8="13000.00000" pt_clust_9="50.95448"></scales>
<clustering>
<clus scale="   50.954">  1  9  2 -1</clus>
<clus scale="   89.738">  5  6 -1 -1</clus>
<clus scale="   92.167">  7  8 -1 -1</clus>
<clus scale="  123.990">  1  5  2 -1</clus>
<clus scale="   50.954">  1  5  2 -1</clus>
</clustering>
</event>
<event>
 9    1  0.1426358E-005  0.1547538E+03  0.7546771E-02  0.1202744E+00
         21   -1    0    0  501  502  0.00000000000E+00  0.00000000000E+00  0.90138858671E+03  0.90138858671E+03  0.00000000000E+00 0. -1.
          1   -1    0    0  502    0 -0.00000000000E+00 -0.00000000000E+00 -0.10311702850E+03  0.10311702850E+03  0.00000000000E+00 0. -1.
         23    2    1    2    0    0  0.91766722647E+02  0.16855513918E+02 -0.22809524667E+02  0.13202632665E+03  0.90583865995E+02 0.  0.
         23    2    1    2    0    0  0.22261217216E+02  0.93769533167E+02  0.30977569625E+03  0.33706032129E+03  0.91435174095E+02 0.  0.
        -11    1    3    3    0    0 -0.76689995837E+01  0.23704867437E+02  0.10357130530E+02  0.26981557547E+02  0.00000000000E+00 0.  1.
         11    1    3    3    0    0  0.99435722231E+02 -0.68493535190E+01 -0.33166655197E+02  0.10504476910E+03  0.00000000000E+00 0. -1.
        -11    1    4    4    0    0 -0.21862486473E+02  0.98657679839E+01  0.14492094517E+03  0.14689241655E+03  0.00000000000E+00 0.  1.
         11    1    4    4    0    0  0.44123703689E+02  0.83903765183E+02  0.16485475108E+03  0.19016790474E+03  0.00000000000E+00 0. -1.
          1    1    1    2  501    0 -0.11402793986E+03 -0.11062504708E+03  0.51130538663E+03  0.53541896726E+03  0.00000000000E+00 0. -1.
<scales pt_clust_5="13000.00000" pt_clust_6="13000.00000" pt_clust_7="13000.00000" pt_clust_8="13000.00000" pt_clust_9="124.85333"></scales>
<clustering>
<clus scale="   90.584">  5  6 -1 -1</clus>
<clus scale="   91.435">  7  8 -1 -1</clus>
<clus scale="  130.041">  2  5  1 -1</clus>
<clus scale="  124.853">  1  9  2 -1</clus>
<clus scale="  124.853">  1  5  2 -1</clus>
</clustering>
</event>
<event>
 9    1  0.1426358E-005  0.1607736E+03  0.7546771E-02  0.1187864E+00
         21   -1    0    0  501  502  0.00000000000E+00  0.00000000000E+00  0.35536181020E+02  0.35536181020E+02  0.00000000000E+00 0.  1.
          2   -1    0    0  502    0 -0.00000000000E+00 -0.00000000000E+00 -0.96904271369E+03  0.96904271369E+03  0.00000000000E+00 0. -1.
         23    2    1    2    0    0 -0.13942244274E+03  0.46930548650E+02 -0.51545483908E+03  0.54342974829E+03  0.89337037395E+02 0.  0.
         23    2    1    2    0    0  0.11640104969E+03 -0.12567290921E+02 -0.27230417537E+03  0.30964615277E+03  0.89576977138E+02 0.  0.
        -11    1    3    3    0    0 -0.59829717895E+02  0.60361372692E+01 -0.35185488868E+03  0.35695642981E+03  0.00000000000E+00 0. -1.
         11    1    3    3    0    0 -0.79592724842E+02  0.40894411381E+02 -0.16359995041E+03  0.18647331847E+03  0.00000000000E+00 0.  1.
        -13    1    4    4    0    0  0.98653954809E+02 -0.30948570134E+02 -0.26276082391E+03  0.28237150595E+03  0.00000000000E+00 0.  1.
         13    1    4    4    0    0  0.17747094879E+02  0.18381279213E+02 -0.95433514658E+01  0.27274646824E+02  0.00000000000E+00 0. -1.
          2    1    1    2  501    0  0.23021393050E+02 -0.34363257729E+02 -0.14574751822E+03  0.15150299366E+03  0.00000000000E+00 0. -1.
<scales pt_clust_5="13000.00000" pt_clust_6="13000.00000" pt_clust_7="13000.00000" pt_clust_8="13000.00000" pt_clust_9="41.36206"></scales>
<clustering>
<clus scale="   41.362">  1  9  2 -1</clus>
<clus scale="   89.337">  5  6 -1 -1</clus>
<clus scale="   89.577">  7  8 -1 -1</clus>
<clus scale="  160.640">  2  5  1 -1</clus>
<clus scale="   41.362">  1  5  2 -1</clus>
</clustering>
</event>
<event>
 9    1  0.1426358E-005  0.1979722E+03  0.7546771E-02  0.1169337E+00
         21   -1    0    0  501  502  0.00000000000E+00  0.00000000000E+00  0.19575114429E+03  0.19575114429E+03  0.00000000000E+00 0. -1.
          1   -1    0    0  502    0 -0.00000000000E+00 -0.00000000000E+00 -0.47523795201E+03  0.47523795201E+03  0.00000000000E+00 0. -1.
         23    2    1    2    0    0  0.47424921582E+01 -0.92543127634E+02 -0.25215012530E+03  0.28397226899E+03  0.92053474475E+02 0.  0.
         23    2    1    2    0    0 -0.11490823377E+03  0.18774870521E+03  0.28422098508E+01  0.23831794310E+03  0.91290116405E+02 0.  0.
        -13    1    4    4    0    0 -0.25982437545E+02  0.11639527643E+03 -0.22889402605E+02  0.12143670033E+03  0.00000000000E+00 0. -1.
         13    1    4    4    0    0 -0.88925796221E+02  0.71353428778E+02  0.25731612456E+02  0.11688124277E+03  0.00000000000E+00 0.  1.
        -13    1    3    3    0    0  0.40653008136E+02 -0.84338492022E+02 -0.18705577603E+03  0.20917818159E+03  0.00000000000E+00 0.  1.
         13    1    3    3    0    0 -0.35910515977E+02 -0.82046356124E+01 -0.65094349271E+02  0.74794087402E+02  0.00000000000E+00 0. -1.
          1    1    1    2  501    0  0.11016574161E+03 -0.95205577572E+02 -0.30178892264E+02  0.14869888420E+03  0.00000000000E+00 0. -1.
<scales pt_clust_5="13000.00000" pt_clust_6="13000.00000" pt_clust_7="13000.00000" pt_clust_8="13000.00000" pt_clust_9="175.66766"></scales>
<clustering>
<clus scale="   91.290">  5  6 -1 -1</clus>
<clus scale="   92.053">  7  8 -1 -1</clus>
<clus scale="  130.616">  2  7  1 -1</clus>
<clus scale="  175.668">  1  9  2 -1</clus>
<clus scale="  175.668">  1  5  2 -1</clus>
</clustering>
</event>
<event>
 9    1  0.1426358E-005  0.1951756E+03  0.7546771E-02  0.1154256E+00
         21   -1    0    0  501  502  0.00000000000E+00  0.00000000000E+00  0.22241611001E+03  0.22241611001E+03  0.00000000000E+00 0. -1.
         -2   -1    0    0    0  501 -0.00000000000E+00 -0.00000000000E+00 -0.31218908095E+03  0.31218908095E+03  0.00000000000E+00 0.  1.
         23    2    1    2    0    0 -0.83535856429E+02 -0.11527367793E+03 -0.63307290419E+02  0.18188845597E+03  0.93858069781E+02 0.  0.
         23    2    1    2    0    0  0.18392493085E+03  0.14005709934E+03 -0.23732136549E+02  0.24927759104E+03  0.90176115608E+02 0.  0.
        -11    1    4    4    0    0  0.58562020231E+02  0.10021724342E+02 -0.33833236700E+02  0.68371288403E+02  0.00000000000E+00 0. -1.
         11    1    4    4    0    0  0.12536291061E+03  0.13003537500E+03  0.10101100151E+02  0.18090630263E+03  0.00000000000E+00 0.  1.
        -13    1    3    3    0    0 -0.49542814796E+02 -0.10526111977E+03 -0.85323568516E+01  0.11664988189E+03  0.00000000000E+00 0.  1.
         13    1    3    3    0    0 -0.33993041633E+02 -0.10012558163E+02 -0.54774933567E+02  0.65238574078E+02  0.00000000000E+00 0. -1.
         -2    1    1    2    0  502 -0.10038907442E+03 -0.24783421410E+02 -0.27335439728E+01  0.10343914395E+03  0.00000000000E+00 0.  1.
<scales pt_clust_5="13000.00000" pt_clust_6="13000.00000" pt_clust_7="13000.00000" pt_clust_8="13000.00000" pt_clust_9="103.40302"></scales>
<clustering>
<clus scale="   90.176">  5  6 -1 -1</clus>
<clus scale="   93.858">  7  8 -1 -1</clus>
<clus scale="  103.403">  1  9  2 -1</clus>
<clus scale="  193.432">  1  5  2 -1</clus>
<clus scale="  103.403">  1  5  2 -1</clus>
</clustering>
</event>
<event>
 9    1  0.1426358E-005  0.9678340E+02  0.7546771E-02  0.1288217E+00
          1   -1    0    0  502    0 -0.00000000000E+00  0.00000000000E+00  0.71159191466E+02  0.71159191466E+02  0.00000000000E+00 0. -1.
         21   -1    0    0  501  502  0.00000000000E+00 -0.00000000000E+00 -0.30434858588E+03  0.30434858588E+03  0.00000000000E+00 0.  1.
         23    2    1    2    0    0  0.26468204193E+02  0.29693898525E+02 -0.28883349811E+02  0.10441900561E+03  0.92123761281E+02 0.  0.
         23    2    1    2    0    0 -0.31299356125E+02  0.18774320969E+02 -0.50267913163E+02  0.10953304059E+03  0.90213630155E+02 0.  0.
        -11    1    3    3    0    0  0.57770123828E+02  0.28567302812E+02 -0.33703200837E+02  0.72728149596E+02  0.00000000000E+00 0. -1.
         11    1    3    3    0    0 -0.31301919634E+02  0.11265957131E+01  0.48198510254E+01  0.31690856009E+02  0.00000000000E+00 0.  1.
        -13    1    4    4    0    0 -0.53060756431E+02  0.25592313870E+02 -0.60584277098E+02  0.84503639174E+02  0.00000000000E+00 0.  1.
         13    1    4    4    0    0  0.21761400306E+02 -0.68179929007E+01  0.10316363935E+02  0.25029401417E+02  0.00000000000E+00 0. -1.
          1    1    1    2  501    0  0.48311519312E+01 -0.48468219495E+02 -0.15403813144E+03  0.16155573115E+03  0.00000000000E+00 0. -1.
<scales pt_clust_5="13000.00000" pt_clust_6="13000.00000" pt_clust_7="13000.00000" pt_clust_8="13000.00000" pt_clust_9="48.70840"></scales>
<clustering>
<clus scale="   48.708">  2  9  1 -1</clus>
<clus scale="   90.214">  7  8 -1 -1</clus>
<clus scale="   92.124">  5  6 -1 -1</clus>
<clus scale="   94.967">  2  7  1 -1</clus>
<clus scale="   48.708">  2  5  1 -1</clus>
</clustering>
</event>
<event>
 9    1  0.1426358E-005  0.9887482E+02  0.7546771E-02  0.1282769E+00
          3   -1    0    0  502    0 -0.00000000000E+00  0.00000000000E+00  0.79226996021E+02  0.79226996021E+02  0.00000000000E+00 0. -1.
         21   -1    0    0  501  502  0.00000000000E+00 -0.00000000000E+00 -0.38357799134E+03  0.38357799134E+03  0.00000000000E+00 0. -1.
         23    2    1    2    0    0 -0.37150972157E+02  0.24432153317E+02  0.24512428654E+02  0.10435022096E+03  0.91164601722E+02 0.  0.
         23    2    1    2    0    0  0.11689618035E+02 -0.27942326656E+01 -0.14655063596E+03  0.17310527804E+03  0.91344914905E+02 0.  0.
        -11    1    3    3    0    0  0.26572027369E+02 -0.41071157977E+01  0.21562963056E+02  0.34465960228E+02  0.00000000000E+00 0.  1.
         11    1    3    3    0    0 -0.63722999526E+02  0.28539269115E+02  0.29494655976E+01  0.69884260728E+02  0.00000000000E+00 0. -1.
        -13    1    4    4    0    0  0.14113857799E+02 -0.32439308783E+02 -0.13755413971E+03  0.14203045831E+03  0.00000000000E+00 0.  1.
         13    1    4    4    0    0 -0.24242397647E+01  0.29645076117E+02 -0.89964962482E+01  0.31074819729E+02  0.00000000000E+00 0. -1.
          3    1    1    2  501    0  0.25461354122E+02 -0.21637920652E+02 -0.18231278802E+03  0.18534948837E+03  0.00000000000E+00 0. -1.
<scales pt_clust_5="13000.00000" pt_clust_6="13000.00000" pt_clust_7="13000.00000" pt_clust_8="13000.00000" pt_clust_9="33.41377"></scales>
<clustering>
<clus scale="   33.414">  2  9  1 -1</clus>
<clus scale="   91.165">  5  6 -1 -1</clus>
<clus scale="   91.345">  7  8 -1 -1</clus>
<clus scale="   98.708">  1  5  2 -1</clus>
<clus scale="   33.414">  2  5  1 -1</clus>
</clustering>
</event>
<event>
 9    1  0.1426358E-005  0.2228927E+03  0.7546771E-02  0.1131798E+00
          1   -1    0    0  502    0 -0.00000000000E+00  0.00000000000E+00  0.10409972251E+04  0.10409972251E+04  0.00000000000E+00 0. -1.
         21   -1    0    0  501  502  0.00000000000E+00 -0.00000000000E+00 -0.75790312245E+02  0.75790312245E+02  0.00000000000E+00 0.  1.
         23    2    1    2    0    0  0.16348955701E+03 -0.14192436838E+03  0.77552313769E+03  0.81009879112E+03  0.89177086106E+02 0.  0.
         23    2    1    2    0    0 -0.13693870035E+03  0.10194375163E+03  0.15452958789E+03  0.24719744780E+03  0.89902438868E+02 0.  0.
        -11    1    4    4    0    0 -0.30929698273E+02 -0.14941999765E+02  0.36651554372E+02  0.50231922421E+02  0.00000000000E+00 0. -1.
         11    1    4    4    0    0 -0.10600900207E+03  0.11688575140E+03  0.11787803351E+03  0.19696552537E+03  0.00000000000E+00 0.  1.
        -13    1    3    3    0    0  0.50860827518E+02  0.25815444029E+01  0.16644853457E+03  0.17406493848E+03  0.00000000000E+00 0.  1.
         13    1    3    3    0    0  0.11262872949E+03 -0.14450591278E+03  0.60907460312E+03  0.63603385264E+03  0.00000000000E+00 0. -1.
          1    1    1    2  501    0 -0.26550856664E+02  0.39980616746E+02  0.35154187265E+02  0.59491298416E+02  0.00000000000E+00 0. -1.
<scales pt_clust_5="13000.00000" pt_clust_6="13000.00000" pt_clust_7="13000.00000" pt_clust_8="13000.00000" pt_clust_9="47.99373"></scales>
<clustering>
<clus scale="   47.994">  2  9  1 -1</clus>
<clus scale="   89.177">  7  8 -1 -1</clus>
<clus scale="   89.902">  5  6 -1 -1</clus>
<clus scale="  222.601">  1  7  2 -1</clus>
<clus scale="   47.994">  2  5  1 -1</clus>
</clustering>
</event>
<event>
 9    1  0.1426358E-005  0.1200705E+03  0.7546771E-02  0.1243677E+00
         21   -1    0    0  501  502  0.00000000000E+00  0.00000000000E+00  0.60764976304E+02  0.60764976304E+02  0.00000000000E+00 0.  1.
          1   -1    0    0  502    0 -0.00000000000E+00 -0.00000000000E+00 -0.41297616290E+03  0.41297616290E+03  0.00000000000E+00 0. -1.
         23    2    1    2    0    0 -0.81810696648E+01  0.96889868455E+02 -0.25519258923E+03  0.28737186350E+03  0.89469289825E+02 0.  0.
         23    2    1    2    0    0  0.10002972936E+02 -0.47406171927E+02 -0.88077658910E+02  0.13605132728E+03  0.91678160168E+02 0.  0.
        -11    1    3    3    0    0 -0.24696801963E+02  0.66566716368E+01 -0.12812063690E+03  0.13064892232E+03  0.00000000000E+00 0.  1.
         11    1    3    3    0    0  0.16515732299E+02  0.90233196818E+02 -0.12707195233E+03  0.15672294118E+03  0.00000000000E+00 0. -1.
        -13    1    4    4    0    0 -0.28105418954E+02  0.60321535813E+01 -0.34460056807E+01  0.28951276424E+02  0.00000000000E+00 0.  1.
         13    1    4    4    0    0  0.38108391890E+02 -0.53438325508E+02 -0.84631653229E+02  0.10710005086E+03  0.00000000000E+00 0. -1.
          1    1    1    2  501    0 -0.18219032709E+01 -0.49483696528E+02 -0.89409384608E+01  0.50317948429E+02  0.00000000000E+00 0. -1.
<scales pt_clust_5="13000.00000" pt_clust_6="13000.00000" pt_clust_7="13000.00000" pt_clust_8="13000.00000" pt_clust_9="49.51722"></scales>
<clustering>
<clus scale="   49.517">  1  9  2 -1</clus>
<clus scale="   89.469">  5  6 -1 -1</clus>
<clus scale="   91.678">  7  8 -1 -1</clus>
<clus scale="  118.393">  2  5  1 -1</clus>
<clus scale="   49.517">  1  5  2 -1</clus>
</clustering>
</event>
<event>
 9    1  0.1426358E-005  0.1132437E+03  0.7546771E-02  0.1255280E+00
          1   -1    0    0  502    0 -0.00000000000E+00  0.00000000000E+00  0.44499883317E+03  0.44499883317E+03  0.00000000000E+00 0. -1.
         21   -1    0    0  501  502  0.00000000000E+00 -0.00000000000E+00 -0.85295896899E+02  0.85295896899E+02  0.00000000000E+00 0. -1.
         23    2    1    2    0    0  0.43875483975E+02  0.73808355058E+02  0.27510238743E+03  0.30248419645E+03  0.91883807932E+02 0.  0.
         23    2    1    2    0    0 -0.27054792855E+02 -0.32542433301E+02  0.13025969432E+03  0.16400951862E+03  0.90225065539E+02 0.  0.
        -11    1    3    3    0    0  0.28130500127E+02 -0.76820110898E+01  0.23208354990E+02  0.37268835146E+02  0.00000000000E+00 0.  1.
         11    1    3    3    0    0  0.15744983848E+02  0.81490366148E+02  0.25189403244E+03  0.26521536130E+03  0.00000000000E+00 0. -1.
        -11    1    4    4    0    0  0.75937653826E+01  0.28470769714E+02  0.36830067913E+02  0.47166766936E+02  0.00000000000E+00 0. -1.
         11    1    4    4    0    0 -0.34648558237E+02 -0.61013203014E+02  0.93429626412E+02  0.11684275169E+03  0.00000000000E+00 0.  1.
          1    1    1    2  501    0 -0.16820691121E+02 -0.41265921758E+02 -0.45659145486E+02  0.63801014998E+02  0.00000000000E+00 0. -1.
<scales pt_clust_5="13000.00000" pt_clust_6="13000.00000" pt_clust_7="13000.00000" pt_clust_8="13000.00000" pt_clust_9="44.56245"></scales>
<clustering>
<clus scale="   44.562">  2  9  1 -1</clus>
<clus scale="   90.225">  7  8 -1 -1</clus>
<clus scale="   91.884">  5  6 -1 -1</clus>
<clus scale="  111.902">  2  7  1 -1</clus>
<clus scale="   44.562">  2  5  1 -1</clus>
</clustering>
</event>
<event>
 9    1  0.1426358E-005  0.1070803E+03  0.7546771E-02  0.1266939E+00
          1   -1    0    0  502    0 -0.00000000000E+00  0.00000000000E+00  0.40713731654E+03  0.40713731654E+03  0.00000000000E+00 0. -1.
         21   -1    0    0  501  502  0.00000000000E+00 -0.00000000000E+00 -0.20417871943E+03  0.20417871943E+03  0.00000000000E+00 0. -1.
         23    2    1    2    0    0 -0.55826651300E+02  0.30995161182E+02  0.27332111562E+03  0.29526022024E+03  0.91634329808E+02 0.  0.
         23    2    1    2    0    0  0.31692190536E+02 -0.25310003131E+02  0.10215321824E+03  0.14176734036E+03  0.89541652856E+02 0.  0.
        -11    1    3    3    0    0 -0.14186852250E+02  0.55741345110E+02  0.10067121769E+03  0.11594420383E+03  0.00000000000E+00 0.  1.
         11    1    3    3    0    0 -0.41639799050E+02 -0.24746183928E+02  0.17264989794E+03  0.17931601641E+03  0.00000000000E+00 0. -1.
        -13    1    4    4    0    0  0.55789167123E+02 -0.25509165133E+02  0.35464144594E+02  0.70857986324E+02  0.00000000000E+00 0.  1.
         13    1    4    4    0    0 -0.24096976586E+02  0.19916200181E+00  0.66689073642E+02  0.70909354033E+02  0.00000000000E+00 0. -1.
          1    1    1    2  501    0  0.24134460764E+02 -0.56851580506E+01 -0.17251573676E+03  0.17428847537E+03  0.00000000000E+00 0. -1.
<scales pt_clust_5="13000.00000" pt_clust_6="13000.00000" pt_clust_7="13000.00000" pt_clust_8="13000.00000" pt_clust_9="24.79502"></scales>
<clustering>
<clus scale="   24.795">  2  9  1 -1</clus>
<clus scale="   89.542">  7  8 -1 -1</clus>
<clus scale="   91.634">  5  6 -1 -1</clus>
<clus scale="  105.295">  2  7  1 -1</clus>
<clus scale="   24.795">  2  5  1 -1</clus>
</clustering>
</event>
<event>
 9    1  0.1426358E-005  0.9989657E+02  0.7546771E-02  0.1281239E+00
         21   -1    0    0  501  502  0.00000000000E+00  0.00000000000E+00  0.15561597761E+03  0.15561597761E+03  0.00000000000E+00 0.  1.
          1   -1    0    0  502    0 -0.00000000000E+00 -0.00000000000E+00 -0.37759250337E+03  0.37759250337E+03  0.00000000000E+00 0. -1.
         23    2    1    2    0    0  0.89770912846E+01 -0.32789855569E+02 -0.24774958195E+03  0.26626147379E+03  0.91430598131E+02 0.  0.
         23    2    1    2    0    0  0.19659264437E+02  0.46710872489E+02 -0.94898990703E+02  0.14214484982E+03  0.92902893427E+02 0.  0.
        -13    1    4    4    0    0  0.43423908683E+02  0.58767713770E+02 -0.88447554225E+02  0.11472684897E+03  0.00000000000E+00 0.  1.
         13    1    4    4    0    0 -0.23764644246E+02 -0.12056841281E+02 -0.64514364781E+01  0.27418000847E+02  0.00000000000E+00 0. -1.
        -13    1    3    3    0    0 -0.34742425825E+02 -0.13417996785E+01 -0.15640423522E+03  0.16022210014E+03  0.00000000000E+00 0. -1.
         13    1    3    3    0    0  0.43719517110E+02 -0.31448055891E+02 -0.91345346725E+02  0.10603937365E+03  0.00000000000E+00 0.  1.
          1    1    1    2  501    0 -0.28636355722E+02 -0.13921016920E+02  0.12067204690E+03  0.12480215737E+03  0.00000000000E+00 0. -1.
<scales pt_clust_5="13000.00000" pt_clust_6="13000.00000" pt_clust_7="13000.00000" pt_clust_8="13000.00000" pt_clust_9="31.84078"></scales>
<clustering>
<clus scale="   31.841">  1  9  2 -1</clus>
<clus scale="   91.431">  7  8 -1 -1</clus>
<clus scale="   92.903">  5  6 -1 -1</clus>
<clus scale="   98.529">  2  7  1 -1</clus>
<clus scale="   31.841">  1  5  2 -1</clus>
</clustering>
</event>
<event>
 9    1  0.1426358E-005  0.1159271E+03  0.7546771E-02  0.1252940E+00
          1   -1    0    0  502    0 -0.00000000000E+00  0.00000000000E+00  0.85248614776E+03  0.85248614776E+03  0.00000000000E+00 0. -1.
         21   -1    0    0  501  502  0.00000000000E+00 -0.00000000000E+00 -0.23965304395E+02  0.23965304395E+02  0.00000000000E+00 0. -1.
         23    2    1    2    0    0  0.58709480509E+02  0.35065123264E+02  0.49989360643E+03  0.51122989175E+03  0.82377293541E+02 0.  0.
         23    2    1    2    0    0 -0.57472093589E+02 -0.55143636001E+02  0.32211791334E+03  0.34407802490E+03  0.91026781729E+02 0.  0.
        -11    1    4    4    0    0 -0.66856126011E+02 -0.22911934374E+02  0.28668576503E+03  0.29526839687E+03  0.00000000000E+00 0. -1.
         11    1    4    4    0    0  0.93840324214E+01 -0.32231701627E+02  0.35432148314E+02  0.48809628030E+02  0.00000000000E+00 0.  1.
        -13    1    3    3    0    0 -0.13306685792E+02  0.31198604918E+02  0.19457428405E+03  0.19750841209E+03  0.00000000000E+00 0. -1.
         13    1    3    3    0    0  0.72016166301E+02  0.38665183458E+01  0.30531932239E+03  0.31372147965E+03  0.00000000000E+00 0.  1.
          1    1    1    2  501    0 -0.12373869197E+01  0.20078512737E+02  0.65093235895E+01  0.21143535506E+02  0.00000000000E+00 0. -1.
<scales pt_clust_5="13000.00000" pt_clust_6="13000.00000" pt_clust_7="13000.00000" pt_clust_8="13000.00000" pt_clust_9="20.11661"></scales>
<clustering>
<clus scale="   20.117">  2  9  1 -1</clus>
<clus scale="   82.377">  7  8 -1 -1</clus>
<clus scale="   91.027">  5  6 -1 -1</clus>
<clus scale="  109.267">  1  7  2 -1</clus>
<clus scale="   20.117">  2  5  1 -1</clus>
</clustering>
</event>
<event>
 9    1  0.1426358E-005  0.2417278E+03  0.7546771E-02  0.1142884E+00
         -2   -1    0    0    0  501 -0.00000000000E+00  0.00000000000E+00  0.18925313957E+03  0.18925313957E+03  0.00000000000E+00 0.  1.
         21   -1    0    0  501  502  0.00000000000E+00 -0.00000000000E+00 -0.56081917254E+03  0.56081917254E+03  0.00000000000E+00 0. -1.
         23    2    1    2    0    0 -0.91715278769E+02  0.42240124754E+01 -0.18440927490E+03  0.22759859525E+03  0.96771923880E+02 0.  0.
         23    2    1    2    0    0 -0.92685842756E+02  0.18124321489E+03 -0.11719231101E+03  0.25173973322E+03  0.90548810750E+02 0.  0.
        -11    1    3    3    0    0 -0.28965857700E+02  0.31542231853E+02 -0.13904605171E+03  0.14549136675E+03  0.00000000000E+00 0.  1.
         11    1    3    3    0    0 -0.62749421069E+02 -0.27318219377E+02 -0.45363223190E+02  0.82107228504E+02  0.00000000000E+00 0. -1.
        -13    1    4    4    0    0 -0.55310842467E+02  0.17183331928E+03 -0.77608201254E+02  0.19649176016E+03  0.00000000000E+00 0. -1.
         13    1    4    4    0    0 -0.37375000289E+02  0.94098956178E+01 -0.39584109756E+02  0.55247973060E+02  0.00000000000E+00 0.  1.
         -2    1    1    2    0  502  0.18440112152E+03 -0.18546722737E+03 -0.69964447057E+02  0.27073398364E+03  0.00000000000E+00 0.  1.
<scales pt_clust_5="13000.00000" pt_clust_6="13000.00000" pt_clust_7="13000.00000" pt_clust_8="13000.00000" pt_clust_9="224.12784"></scales>
<clustering>
<clus scale="   90.549">  7  8 -1 -1</clus>
<clus scale="   96.772">  5  6 -1 -1</clus>
<clus scale="  133.395">  1  5  2 -1</clus>
<clus scale="  224.128">  2  9  1 -1</clus>
<clus scale="  224.128">  2  5  1 -1</clus>
</clustering>
</event>
<event>
 9    1  0.1426358E-005  0.1006194E+03  0.7546771E-02  0.1280503E+00
         -3   -1    0    0    0  501 -0.00000000000E+00  0.00000000000E+00  0.27875133238E+02  0.27875133238E+02  0.00000000000E+00 0.  1.
         21   -1    0    0  501  502  0.00000000000E+00 -0.00000000000E+00 -0.89852824831E+03  0.89852824831E+03  0.00000000000E+00 0.  1.
         23    2    1    2    0    0  0.90721649150E+01 -0.25531726093E+02 -0.12745060532E+03  0.15918407618E+03  0.91442550815E+02 0.  0.
         23    2    1    2    0    0 -0.49531318275E+02  0.63852650215E+02 -0.34587604976E+03  0.36600396154E+03  0.88307109750E+02 0.  0.
        -11    1    3    3    0    0 -0.39246411460E+02  0.63596099865E+00 -0.41097830705E+02  0.56830598691E+02  0.00000000000E+00 0.  1.
         11    1    3    3    0    0  0.48318576375E+02 -0.26167687091E+02 -0.86352774611E+02  0.10235347749E+03  0.00000000000E+00 0. -1.
        -13    1    4    4    0    0  0.13214523204E+02  0.42689778681E+02 -0.76388149455E+02  0.88499662172E+02  0.00000000000E+00 0.  1.
         13    1    4    4    0    0 -0.62745841479E+02  0.21162871534E+02 -0.26948790031E+03  0.27750429936E+03  0.00000000000E+00 0. -1.
         -3    1    1    2    0  502  0.40459153360E+02 -0.38320924122E+02 -0.39732645999E+03  0.40121534383E+03  0.00000000000E+00 0.  1.
<scales pt_clust_5="13000.00000" pt_clust_6="13000.00000" pt_clust_7="13000.00000" pt_clust_8="13000.00000" pt_clust_9="55.72644"></scales>
<clustering>
<clus scale="   55.726">  2  9  1 -1</clus>
<clus scale="   88.307">  7  8 -1 -1</clus>
<clus scale="   91.443">  5  6 -1 -1</clus>
<clus scale="   97.779">  2  7  1 -1</clus>
<clus scale="   55.726">  2  5  1 -1</clus>
</clustering>
</event>
<event>
 9    1  0.1426358E-005  0.2844167E+03  0.7546771E-02  0.1093343E+00
          2   -1    0    0  502    0 -0.00000000000E+00  0.00000000000E+00  0.20200573645E+04  0.20200573645E+04  0.00000000000E+00 0. -1.
         21   -1    0    0  501  502  0.00000000000E+00 -0.00000000000E+00 -0.64092762501E+02  0.64092762501E+02  0.00000000000E+00 0. -1.
         23    2    1    2    0    0  0.28312987167E+03  0.23675403039E+02  0.15398848610E+04  0.15684381352E+04  0.89608872510E+02 0.  0.
         23    2    1    2    0    0 -0.22833584916E+03 -0.45689609113E+01  0.31350338727E+03  0.39785890789E+03  0.88595718504E+02 0.  0.
        -11    1    4    4    0    0 -0.12863266914E+03  0.35633863011E+01  0.10311448320E+03  0.16489893249E+03  0.00000000000E+00 0. -1.
         11    1    4    4    0    0 -0.99703180020E+02 -0.81323472125E+01  0.21038890407E+03  0.23295997539E+03  0.00000000000E+00 0.  1.
        -13    1    3    3    0    0  0.54392067483E+02  0.41424339870E+02  0.33525738909E+03  0.34215784351E+03  0.00000000000E+00 0.  1.
         13    1    3    3    0    0  0.22873780418E+03 -0.17748936831E+02  0.12046274719E+04  0.12262802917E+04  0.00000000000E+00 0. -1.
          2    1    1    2  501    0 -0.54794022505E+02 -0.19106442127E+02  0.10257635377E+03  0.11785308390E+03  0.00000000000E+00 0. -1.
<scales pt_clust_5="13000.00000" pt_clust_6="13000.00000" pt_clust_7="13000.00000" pt_clust_8="13000.00000" pt_clust_9="58.02966"></scales>
<clustering>
<clus scale="   58.030">  2  9  1 -1</clus>
<clus scale="   88.596">  5  6 -1 -1</clus>
<clus scale="   89.609">  7  8 -1 -1</clus>
<clus scale="  284.099">  2  5  1 -1</clus>
<clus scale="   58.030">  2  5  1 -1</clus>
</clustering>
</event>
<event>
 9    1  0.1426358E-005  0.9717760E+02  0.7546771E-02  0.1287006E+00
         21   -1    0    0  501  502  0.00000000000E+00  0.00000000000E+00  0.16633788014E+03  0.16633788014E+03  0.00000000000E+00 0. -1.
          1   -1    0    0  502    0 -0.00000000000E+00 -0.00000000000E+00 -0.29609130327E+03  0.29609130327E+03  0.00000000000E+00 0. -1.
         23    2    1    2    0    0  0.35295834033E+02  0.27725448869E+02 -0.20475538716E+03  0.22869330062E+03  0.91440476599E+02 0.  0.
         23    2    1    2    0    0 -0.11580450909E+02  0.71329788462E+01 -0.48469795610E+02  0.10326441156E+03  0.90162250288E+02 0.  0.
        -13    1    4    4    0    0 -0.50478709372E+02 -0.52578548516E+00 -0.19302666142E+02  0.54045994028E+02  0.00000000000E+00 0.  1.
         13    1    4    4    0    0  0.38898258463E+02  0.76587643314E+01 -0.29167129467E+02  0.49218417527E+02  0.00000000000E+00 0. -1.
        -13    1    3    3    0    0  0.21446491045E+02 -0.23777561546E+02 -0.23402889274E+02  0.39661311597E+02  0.00000000000E+00 0.  1.
         13    1    3    3    0    0  0.13849342988E+02  0.51503010415E+02 -0.18135249789E+03  0.18903198902E+03  0.00000000000E+00 0. -1.
          1    1    1    2  501    0 -0.23715383124E+02 -0.34858427715E+02  0.12347175964E+03  0.13047147124E+03  0.00000000000E+00 0. -1.
<scales pt_clust_5="13000.00000" pt_clust_6="13000.00000" pt_clust_7="13000.00000" pt_clust_8="13000.00000" pt_clust_9="42.16076"></scales>
<clustering>
<clus scale="   42.161">  1  9  2 -1</clus>
<clus scale="   90.162">  5  6 -1 -1</clus>
<clus scale="   91.440">  7  8 -1 -1</clus>
<clus scale="   95.976">  1  5  2 -1</clus>
<clus scale="   42.161">  1  5  2 -1</clus>
</clustering>
</event>
<event>
 9    1  0.1426358E-005  0.9629517E+02  0.7546771E-02  0.1289635E+00
         -3   -1    0    0    0  501 -0.00000000000E+00  0.00000000000E+00  0.20750404598E+02  0.20750404598E+02  0.00000000000E+00 0.  1.
         21   -1    0    0  501  502  0.00000000000E+00 -0.00000000000E+00 -0.98563064521E+03  0.98563064521E+03  0.00000000000E+00 0.  1.
         23    2    1    2    0    0  0.28985034985E+02  0.42287420502E+02 -0.27116656060E+03  0.29037511745E+03  0.90321907983E+02 0.  0.
         23    2    1    2    0    0  0.31141491785E+02 -0.82771104282E+01 -0.28416388422E+03  0.30067120513E+03  0.92821104434E+02 0.  0.
        -11    1    3    3    0    0  0.12408093596E+02 -0.27425841714E+02 -0.55818090589E+02  0.63417638063E+02  0.00000000000E+00 0. -1.
         11    1    3    3    0    0  0.16576941389E+02  0.69713262216E+02 -0.21534847001E+03  0.22695747939E+03  0.00000000000E+00 0.  1.
        -13    1    4    4    0    0  0.37453203416E+00 -0.36391267937E+02 -0.44863064888E+02  0.57768150805E+02  0.00000000000E+00 0. -1.
         13    1    4    4    0    0  0.30766959751E+02  0.28114157508E+02 -0.23930081933E+03  0.24290305432E+03  0.00000000000E+00 0.  1.
         -3    1    1    2    0  502 -0.60126526770E+02 -0.34010310074E+02 -0.40954979578E+03  0.41533472723E+03  0.00000000000E+00 0.  1.
<scales pt_clust_5="13000.00000" pt_clust_6="13000.00000" pt_clust_7="13000.00000" pt_clust_8="13000.00000" pt_clust_9="69.07894"></scales>
<clustering>
<clus scale="   69.079">  2  9  1 -1</clus>
<clus scale="   90.322">  5  6 -1 -1</clus>
<clus scale="   92.821">  7  8 -1 -1</clus>
<clus scale="   93.888">  1  5  2 -1</clus>
<clus scale="   69.079">  2  5  1 -1</clus>
</clustering>
</event>
<event>
 9    1  0.1426358E-005  0.9979298E+02  0.7546771E-02  0.1282848E+00
         21   -1    0    0  501  502  0.00000000000E+00  0.00000000000E+00  0.66178626462E+02  0.66178626462E+02  0.00000000000E+00 0.  1.
         -1   -1    0    0    0  501 -0.00000000000E+00 -0.00000000000E+00 -0.23673401134E+03  0.23673401134E+03  0.00000000000E+00 0.  1.
         23    2    1    2    0    0  0.24597271975E+01 -0.32218238182E+02 -0.99006993143E+02  0.14087097339E+03  0.94858744051E+02 0.  0.
         23    2    1    2    0    0 -0.31008962358E+02  0.21303654863E+02 -0.17223660285E+02  0.99708981137E+02  0.90718382860E+02 0.  0.
        -11    1    4    4    0    0 -0.67921614738E+01  0.55064220558E+02 -0.17448129920E+02  0.58160459771E+02  0.00000000000E+00 0. -1.
         11    1    4    4    0    0 -0.24216800884E+02 -0.33760565695E+02  0.22446963485E+00  0.41548521366E+02  0.00000000000E+00 0.  1.
        -11    1    3    3    0    0  0.30536922168E+02 -0.47300840604E+02 -0.27660890857E+02  0.62729562571E+02  0.00000000000E+00 0.  1.
         11    1    3    3    0    0 -0.28077194971E+02  0.15082602422E+02 -0.71346102286E+02  0.78141410818E+02  0.00000000000E+00 0. -1.
         -1    1    1    2    0  502  0.28549235160E+02  0.10914583319E+02 -0.54324731450E+02  0.62332683276E+02  0.00000000000E+00 0.  1.
<scales pt_clust_5="13000.00000" pt_clust_6="13000.00000" pt_clust_7="13000.00000" pt_clust_8="13000.00000" pt_clust_9="30.56449"></scales>
<clustering>
<clus scale="   30.564">  1  9  2 -1</clus>
<clus scale="   90.718">  5  6 -1 -1</clus>
<clus scale="   94.859">  7  8 -1 -1</clus>
<clus scale="   95.866">  1  5  2 -1</clus>
<clus scale="   30.564">  1  5  2 -1</clus>
</clustering>
</event>
<event>
 9    1  0.1426358E-005  0.9986581E+02  0.7546771E-02  0.1283361E+00
         21   -1    0    0  501  502  0.00000000000E+00  0.00000000000E+00  0.74099419017E+02  0.74099419017E+02  0.00000000000E+00 0.  1.
          1   -1    0    0  502    0 -0.00000000000E+00 -0.00000000000E+00 -0.25471471973E+03  0.25471471973E+03  0.00000000000E+00 0. -1.
         23    2    1    2    0    0 -0.75384346830E+01  0.25732019947E+02 -0.16104435553E+03  0.18681338786E+03  0.90801941541E+02 0.  0.
         23    2    1    2    0    0  0.37988805607E+02 -0.12376169558E+02 -0.27763239111E+02  0.10775578763E+03  0.96146728482E+02 0.  0.
        -13    1    3    3    0    0 -0.10625732865E+00  0.57839583382E+02 -0.75275236567E+02  0.94930447890E+02  0.00000000000E+00 0.  1.
         13    1    3    3    0    0 -0.74321773543E+01 -0.32107563434E+02 -0.85769118958E+02  0.91882939966E+02  0.00000000000E+00 0. -1.
        -13    1    4    4    0    0 -0.63333410406E+01 -0.47126073813E+02 -0.16414177100E+02  0.50303113737E+02  0.00000000000E+00 0. -1.
         13    1    4    4    0    0  0.44322146648E+02  0.34749904254E+02 -0.11349062011E+02  0.57452673895E+02  0.00000000000E+00 0.  1.
          1    1    1    2  501    0 -0.30450370925E+02 -0.13355850389E+02  0.81922939215E+01  0.34244963261E+02  0.00000000000E+00 0. -1.
<scales pt_clust_5="13000.00000" pt_clust_6="13000.00000" pt_clust_7="13000.00000" pt_clust_8="13000.00000" pt_clust_9="33.25062"></scales>
<clustering>
<clus scale="   33.251">  1  9  2 -1</clus>
<clus scale="   90.802">  5  6 -1 -1</clus>
<clus scale="   94.731">  2  5  1 -1</clus>
<clus scale="   96.147">  7  8 -1 -1</clus>
<clus scale="   33.251">  1  5  2 -1</clus>
</clustering>
</event>
<event>
 9    1  0.1426358E-005  0.1257154E+03  0.7546771E-02  0.1235987E+00
          1   -1    0    0  502    0 -0.00000000000E+00  0.00000000000E+00  0.63403674599E+03  0.63403674599E+03  0.00000000000E+00 0. -1.
         21   -1    0    0  501  502  0.00000000000E+00 -0.00000000000E+00 -0.36814350361E+03  0.36814350361E+03  0.00000000000E+00 0. -1.
         23    2    1    2    0    0 -0.81458844216E+02  0.16854965799E+02  0.58822754082E+03  0.60215561998E+03  0.98285897892E+02 0.  0.
         23    2    1    2    0    0  0.34976099212E+02  0.12820400775E+02 -0.31222502105E+02  0.10373532686E+03  0.91643238746E+02 0.  0.
        -13    1    3    3    0    0 -0.59828268295E+01  0.45523473524E+02  0.16361656231E+03  0.16993693042E+03  0.00000000000E+00 0.  1.
         13    1    3    3    0    0 -0.75476017387E+02 -0.28668507725E+02  0.42461097850E+03  0.43221868955E+03  0.00000000000E+00 0. -1.
        -13    1    4    4    0    0  0.43715104498E+02 -0.18502999550E+02 -0.47686287235E+02  0.67285610229E+02  0.00000000000E+00 0.  1.
         13    1    4    4    0    0 -0.87390052858E+01  0.31323400325E+02  0.16463785130E+02  0.36449716626E+02  0.00000000000E+00 0. -1.
          1    1    1    2  501    0  0.46482745004E+02 -0.29675366574E+02 -0.29111179634E+03  0.29628930276E+03  0.00000000000E+00 0. -1.
<scales pt_clust_5="13000.00000" pt_clust_6="13000.00000" pt_clust_7="13000.00000" pt_clust_8="13000.00000" pt_clust_9="55.14774"></scales>
<clustering>
<clus scale="   55.148">  2  9  1 -1</clus>
<clus scale="   91.643">  7  8 -1 -1</clus>
<clus scale="   98.286">  5  6 -1 -1</clus>
<clus scale="  120.593">  2  7  1 -1</clus>
<clus scale="   55.148">  2  5  1 -1</clus>
</clustering>
</event>
<event>
 9    1  0.1426358E-005  0.2105414E+03  0.7546771E-02  0.1141173E+00
          1   -1    0    0  502    0 -0.00000000000E+00  0.00000000000E+00  0.16116568076E+04  0.16116568076E+04  0.00000000000E+00 0. -1.
         21   -1    0    0  501  502  0.00000000000E+00 -0.00000000000E+00 -0.71290921317E+02  0.71290921317E+02  0.00000000000E+00 0. -1.
         23    2    1    2    0    0  0.18941426744E+03  0.63282620471E+02  0.12310598428E+04  0.12504598815E+04  0.90879721001E+02 0.  0.
         23    2    1    2    0    0 -0.16649553358E+03 -0.12288964460E+02  0.32304429618E+03  0.37491736113E+03  0.91288712489E+02 0.  0.
        -11    1    4    4    0    0 -0.12531686950E+03  0.85525675026E+01  0.29570044542E+03  0.32127280870E+03  0.00000000000E+00 0.  1.
         11    1    4    4    0    0 -0.41178664081E+02 -0.20841531962E+02  0.27343850767E+02  0.53644552424E+02  0.00000000000E+00 0. -1.
        -11    1    3    3    0    0  0.14910121613E+02  0.40243577186E+02  0.21020000656E+03  0.21453647706E+03  0.00000000000E+00 0.  1.
         11    1    3    3    0    0  0.17450414583E+03  0.23039043285E+02  0.10208598363E+04  0.10359234044E+04  0.00000000000E+00 0. -1.
          1    1    1    2  501    0 -0.22918733860E+02 -0.50993656011E+02 -0.13738252702E+02  0.57570486384E+02  0.00000000000E+00 0. -1.
<scales pt_clust_5="13000.00000" pt_clust_6="13000.00000" pt_clust_7="13000.00000" pt_clust_8="13000.00000" pt_clust_9="55.90726"></scales>
<clustering>
<clus scale="   55.907">  2  9  1 -1</clus>
<clus scale="   90.880">  7  8 -1 -1</clus>
<clus scale="   91.289">  5  6 -1 -1</clus>
<clus scale="  210.364">  1  7  2 -1</clus>
<clus scale="   55.907">  2  5  1 -1</clus>
</clustering>
</event>
<event>
 9    1  0.1426358E-005  0.8990369E+02  0.7546771E-02  0.1304746E+00
         21   -1    0    0  501  502  0.00000000000E+00  0.00000000000E+00  0.31490415574E+03  0.31490415574E+03  0.00000000000E+00 0. -1.
          2   -1    0    0  502    0 -0.00000000000E+00 -0.00000000000E+00 -0.63720644990E+02  0.63720644990E+02  0.00000000000E+00 0. -1.
         23    2    1    2    0    0  0.21906534600E+02  0.35129085793E+02  0.13657273141E+02  0.87565873116E+02  0.75942821241E+02 0.  0.
         23    2    1    2    0    0  0.31840207636E+02 -0.64443927363E+02  0.15723641137E+03  0.19009097015E+03  0.79021954389E+02 0.  0.
        -13    1    4    4    0    0  0.10050337711E+02 -0.76788449910E+02  0.92257312643E+02  0.12045284166E+03  0.00000000000E+00 0. -1.
         13    1    4    4    0    0  0.21789869924E+02  0.12344522546E+02  0.64979098725E+02  0.69638128489E+02  0.00000000000E+00 0.  1.
        -13    1    3    3    0    0  0.51295646847E+01 -0.23152193561E+02  0.12722018467E+02  0.26910708917E+02  0.00000000000E+00 0.  1.
         13    1    3    3    0    0  0.16776969915E+02  0.58281279354E+02  0.93525467432E+00  0.60655164199E+02  0.00000000000E+00 0. -1.
          2    1    1    2  501    0 -0.53746742235E+02  0.29314841570E+02  0.80289826242E+02  0.10096795747E+03  0.00000000000E+00 0. -1.
<scales pt_clust_5="13000.00000" pt_clust_6="13000.00000" pt_clust_7="13000.00000" pt_clust_8="13000.00000" pt_clust_9="61.22150"></scales>
<clustering>
<clus scale="   61.222">  1  9  2 -1</clus>
<clus scale="   75.943">  7  8 -1 -1</clus>
<clus scale="   79.022">  5  6 -1 -1</clus>
<clus scale="   87.210">  2  7  1 -1</clus>
<clus scale="   61.222">  1  5  2 -1</clus>
</clustering>
</event>
<event>
 9    1  0.1426358E-005  0.9335927E+02  0.7546771E-02  0.1295038E+00
         21   -1    0    0  501  502  0.00000000000E+00  0.00000000000E+00  0.12760380322E+03  0.12760380322E+03  0.00000000000E+00 0.  1.
         -3   -1    0    0    0  501 -0.00000000000E+00 -0.00000000000E+00 -0.10617205653E+03  0.10617205653E+03  0.00000000000E+00 0.  1.
         23    2    1    2    0    0 -0.10352850816E+02 -0.61516384233E+01 -0.14921770431E+02  0.92795189438E+02  0.90792421351E+02 0.  0.
         23    2    1    2    0    0  0.19630649851E+02  0.25369116442E+02 -0.26343479876E+01  0.96534718398E+02  0.91011304706E+02 0.  0.
        -11    1    4    4    0    0  0.44109051809E+02  0.34710187642E+02 -0.25602987413E+02  0.61692127067E+02  0.00000000000E+00 0.  1.
         11    1    4    4    0    0 -0.24478401958E+02 -0.93410712004E+01  0.22968639425E+02  0.34842591331E+02  0.00000000000E+00 0. -1.
        -13    1    3    3    0    0 -0.20352203796E+02 -0.46090661336E+02 -0.94258067317E+01  0.51258239282E+02  0.00000000000E+00 0.  1.
         13    1    3    3    0    0  0.99993529808E+01  0.39939022913E+02 -0.54959636996E+01  0.41536950156E+02  0.00000000000E+00 0. -1.
         -3    1    1    2    0  502 -0.92777990354E+01 -0.19217478018E+02  0.38987865107E+02  0.44445951919E+02  0.00000000000E+00 0.  1.
<scales pt_clust_5="13000.00000" pt_clust_6="13000.00000" pt_clust_7="13000.00000" pt_clust_8="13000.00000" pt_clust_9="21.33985"></scales>
<clustering>
<clus scale="   21.340">  1  9  2 -1</clus>
<clus scale="   90.792">  7  8 -1 -1</clus>
<clus scale="   91.011">  5  6 -1 -1</clus>
<clus scale="   93.146">  2  7  1 -1</clus>
<clus scale="   21.340">  1  5  2 -1</clus>
</clustering>
</event>
<event>
 9    1  0.1426358E-005  0.1117176E+03  0.7546771E-02  0.1257735E+00
         21   -1    0    0  501  502  0.00000000000E+00  0.00000000000E+00  0.45229391823E+02  0.45229391823E+02  0.00000000000E+00 0.  1.
         -4   -1    0    0    0  501 -0.00000000000E+00 -0.00000000000E+00 -0.10125205633E+04  0.10125205633E+04  0.00000000000E+00 0.  1.
         23    2    1    2    0    0  0.47192117856E+02  0.42803832525E+02 -0.28121331668E+03  0.30250778574E+03  0.91491895195E+02 0.  0.
         23    2    1    2    0    0  0.23715638566E+02 -0.98893801835E+02 -0.11865778481E+03  0.18066447194E+03  0.90650791350E+02 0.  0.
        -11    1    3    3    0    0  0.22578991634E+02 -0.25904474300E+02 -0.13202928866E+03  0.13642795064E+03  0.00000000000E+00 0. -1.
         11    1    3    3    0    0  0.24613126222E+02  0.68708306825E+02 -0.14918402802E+03  0.16607983510E+03  0.00000000000E+00 0.  1.
        -11    1    4    4    0    0  0.22628029963E+02 -0.76828492248E+02 -0.24214770850E+02  0.83671979112E+02  0.00000000000E+00 0. -1.
         11    1    4    4    0    0  0.10876086026E+01 -0.22065309587E+02 -0.94443013962E+02  0.96992492833E+02  0.00000000000E+00 0.  1.
         -4    1    1    2    0  502 -0.70907756422E+02  0.56089969310E+02 -0.56742007001E+03  0.57457769747E+03  0.00000000000E+00 0.  1.
<scales pt_clust_5="13000.00000" pt_clust_6="13000.00000" pt_clust_7="13000.00000" pt_clust_8="13000.00000" pt_clust_9="90.41019"></scales>
<clustering>
<clus scale="   90.410">  1  9  2 -1</clus>
<clus scale="   90.651">  7  8 -1 -1</clus>
<clus scale="   91.492">  5  6 -1 -1</clus>
<clus scale="  111.030">  1  7  2 -1</clus>
<clus scale="   90.410">  1  5  2 -1</clus>
</clustering>
</event>
<event>
 9    1  0.1426358E-005  0.9321350E+02  0.7546771E-02  0.1308193E+00
         -3   -1    0    0    0  501 -0.00000000000E+00  0.00000000000E+00  0.39320090989E+03  0.39320090989E+03  0.00000000000E+00 0.  1.
         21   -1    0    0  501  502  0.00000000000E+00 -0.00000000000E+00 -0.69676497927E+02  0.69676497927E+02  0.00000000000E+00 0. -1.
         23    2    1    2    0    0 -0.57378486972E+01  0.18463631884E+02  0.34137791803E+03  0.35399971443E+03  0.91668349438E+02 0.  0.
         23    2    1    2    0    0  0.34574735962E+01  0.62893779853E+01 -0.33725988633E+02  0.79384519414E+02  0.71504889443E+02 0.  0.
        -13    1    3    3    0    0 -0.27813472805E+02 -0.23956158998E+02  0.76639731517E+02  0.84977263256E+02  0.00000000000E+00 0.  1.
         13    1    3    3    0    0  0.22075624108E+02  0.42419790882E+02  0.26473818652E+03  0.26902245118E+03  0.00000000000E+00 0. -1.
        -13    1    4    4    0    0 -0.26289251740E+02 -0.18580335107E+02 -0.21568426463E+02  0.38749846837E+02  0.00000000000E+00 0.  1.
         13    1    4    4    0    0  0.29746725337E+02  0.24869713092E+02 -0.12157562169E+02  0.40634672577E+02  0.00000000000E+00 0. -1.
         -3    1    1    2    0  502  0.22803751009E+01 -0.24753009869E+02  0.15872482565E+02  0.29493173972E+02  0.00000000000E+00 0.  1.
<scales pt_clust_5="13000.00000" pt_clust_6="13000.00000" pt_clust_7="13000.00000" pt_clust_8="13000.00000" pt_clust_9="24.85783"></scales>
<clustering>
<clus scale="   24.858">  2  9  1 -1</clus>
<clus scale="   71.505">  7  8 -1 -1</clus>
<clus scale="   73.475">  2  7  1 -1</clus>
<clus scale="   91.668">  5  6 -1 -1</clus>
<clus scale="   24.858">  2  5  1 -1</clus>
</clustering>
</event>
<event>
 9    1  0.1426358E-005  0.1095521E+03  0.7546771E-02  0.1263331E+00
         -2   -1    0    0    0  501 -0.00000000000E+00  0.00000000000E+00  0.13570626939E+03  0.13570626939E+03  0.00000000000E+00 0.  1.
         21   -1    0    0  501  502  0.00000000000E+00 -0.00000000000E+00 -0.13899893160E+03  0.13899893160E+03  0.00000000000E+00 0. -1.
         23    2    1    2    0    0 -0.49595667248E+02  0.38005084312E+02  0.26893830221E+02  0.11179683759E+03  0.88719435010E+02 0.  0.
         23    2    1    2    0    0  0.56265646917E+02 -0.31634941936E+01  0.96027953588E+01  0.10960158659E+03  0.93511835537E+02 0.  0.
        -11    1    3    3    0    0 -0.51848978438E+02 -0.10459045642E+02 -0.59228488270E+01  0.53223945166E+02  0.00000000000E+00 0. -1.
         11    1    3    3    0    0  0.22533111894E+01  0.48464129955E+02  0.32816679048E+02  0.58572892428E+02  0.00000000000E+00 0.  1.
        -11    1    4    4    0    0  0.70879298454E+02  0.26454580993E+02  0.18556006927E+01  0.75678022297E+02  0.00000000000E+00 0.  1.
         11    1    4    4    0    0 -0.14613651537E+02 -0.29618075187E+02  0.77471946661E+01  0.33923564291E+02  0.00000000000E+00 0. -1.
         -2    1    1    2    0  502 -0.66699796686E+01 -0.34841590119E+02 -0.39789287794E+02  0.53306776810E+02  0.00000000000E+00 0.  1.
<scales pt_clust_5="13000.00000" pt_clust_6="13000.00000" pt_clust_7="13000.00000" pt_clust_8="13000.00000" pt_clust_9="35.47429"></scales>
<clustering>
<clus scale="   35.474">  2  9  1 -1</clus>
<clus scale="   88.719">  5  6 -1 -1</clus>
<clus scale="   93.512">  7  8 -1 -1</clus>
<clus scale="  105.491">  1  5  2 -1</clus>
<clus scale="   35.474">  2  5  1 -1</clus>
</clustering>
</event>
<event>
 9    1  0.1426358E-005  0.3213610E+03  0.7546771E-02  0.1075084E+00
         21   -1    0    0  501  502  0.00000000000E+00  0.00000000000E+00  0.26500979794E+03  0.26500979794E+03  0.00000000000E+00 0. -1.
          1   -1    0    0  502    0 -0.00000000000E+00 -0.00000000000E+00 -0.75348867684E+03  0.75348867684E+03  0.00000000000E+00 0. -1.
         23    2    1    2    0    0 -0.77042563984E+02  0.29542509936E+03 -0.52547348683E+03  0.61470930724E+03  0.92377492118E+02 0.  0.
         23    2    1    2    0    0  0.13868288811E+03 -0.29043896699E+03  0.55061238559E+01  0.33439236859E+03  0.90554965481E+02 0.  0.
        -11    1    3    3    0    0 -0.28034591981E+02  0.60655368708E+02 -0.54654095165E+02  0.86325443636E+02  0.00000000000E+00 0.  1.
         11    1    3    3    0    0 -0.49007972003E+02  0.23476973066E+03 -0.47081939167E+03  0.52838386361E+03  0.00000000000E+00 0. -1.
        -13    1    4    4    0    0  0.23253942110E+02 -0.50593230301E+02 -0.34088285173E+02  0.65287303222E+02  0.00000000000E+00 0.  1.
         13    1    4    4    0    0  0.11542894600E+03 -0.23984573668E+03  0.39594409029E+02  0.26910506537E+03  0.00000000000E+00 0. -1.
          1    1    1    2  501    0 -0.61640324130E+02 -0.49861323772E+01  0.31488484068E+02  0.69396798945E+02  0.00000000000E+00 0. -1.
<scales pt_clust_5="13000.00000" pt_clust_6="13000.00000" pt_clust_7="13000.00000" pt_clust_8="13000.00000" pt_clust_9="61.84166"></scales>
<clustering>
<clus scale="   61.842">  1  9  2 -1</clus>
<clus scale="   90.555">  7  8 -1 -1</clus>
<clus scale="   92.377">  5  6 -1 -1</clus>
<clus scale="  320.842">  1  7  2 -1</clus>
<clus scale="   61.842">  1  5  2 -1</clus>
</clustering>
</event>
<event>
 9    1  0.1426358E-005  0.9776176E+02  0.7546771E-02  0.1285725E+00
         -3   -1    0    0    0  501 -0.00000000000E+00  0.00000000000E+00  0.74821075138E+03  0.74821075138E+03  0.00000000000E+00 0.  1.
         21   -1    0    0  501  502  0.00000000000E+00 -0.00000000000E+00 -0.20742062616E+02  0.20742062616E+02  0.00000000000E+00 0. -1.
         23    2    1    2    0    0  0.17009261060E+02  0.20206244259E+02  0.45167090051E+03  0.46201249839E+03  0.93548591807E+02 0.  0.
         23    2    1    2    0    0 -0.31063656372E+02  0.99060262488E+01  0.22395804273E+03  0.24536406955E+03  0.94779964228E+02 0.  0.
        -13    1    4    4    0    0  0.16241022967E+02  0.20007541231E+02  0.12869845600E+02  0.28804608292E+02  0.00000000000E+00 0. -1.
         13    1    4    4    0    0 -0.47304679338E+02 -0.10101514982E+02  0.21108819713E+03  0.21655946126E+03  0.00000000000E+00 0.  1.
        -13    1    3    3    0    0 -0.33089078259E+02  0.31268586293E+02  0.23268527294E+03  0.23709712742E+03  0.00000000000E+00 0.  1.
         13    1    3    3    0    0  0.50098339318E+02 -0.11062342035E+02  0.21898562758E+03  0.22491537097E+03  0.00000000000E+00 0. -1.
         -3    1    1    2    0  502  0.14054395312E+02 -0.30112270508E+02  0.51839745514E+02  0.61576246050E+02  0.00000000000E+00 0.  1.
<scales pt_clust_5="13000.00000" pt_clust_6="13000.00000" pt_clust_7="13000.00000" pt_clust_8="13000.00000" pt_clust_9="33.23063"></scales>
<clustering>
<clus scale="   33.231">  2  9  1 -1</clus>
<clus scale="   93.549">  7  8 -1 -1</clus>
<clus scale="   94.780">  5  6 -1 -1</clus>
<clus scale="   96.568">  1  7  2 -1</clus>
<clus scale="   33.231">  2  5  1 -1</clus>
</clustering>
</event>
<event>
 9    1  0.1426358E-005  0.1164057E+03  0.7546771E-02  0.1249189E+00
         -1   -1    0    0    0  501 -0.00000000000E+00  0.00000000000E+00  0.20340726562E+03  0.20340726562E+03  0.00000000000E+00 0.  1.
         21   -1    0    0  501  502  0.00000000000E+00 -0.00000000000E+00 -0.22198394257E+03  0.22198394257E+03  0.00000000000E+00 0.  1.
         23    2    1    2    0    0 -0.78078607005E+02 -0.57438589208E+02  0.12513202361E+03  0.18312092432E+03  0.92085770833E+02 0.  0.
         23    2    1    2    0    0  0.13813689656E+02  0.13137633934E+02 -0.20418175244E+02  0.96348702619E+02  0.92210385362E+02 0.  0.
        -11    1    3    3    0    0 -0.58950937899E+02  0.10199186842E+02  0.78785891017E+02  0.98926503601E+02  0.00000000000E+00 0. -1.
         11    1    3    3    0    0 -0.19127669106E+02 -0.67637776049E+02  0.46346132596E+02  0.84194420723E+02  0.00000000000E+00 0.  1.
        -13    1    4    4    0    0  0.52234792840E+02  0.16570726366E+01 -0.20797384406E+02  0.56247228117E+02  0.00000000000E+00 0. -1.
         13    1    4    4    0    0 -0.38421103184E+02  0.11480561298E+02  0.37920916228E+00  0.40101474501E+02  0.00000000000E+00 0.  1.
         -1    1    1    2    0  502  0.64264917348E+02  0.44300955273E+02 -0.12329052532E+03  0.14592158124E+03  0.00000000000E+00 0.  1.
<scales pt_clust_5="13000.00000" pt_clust_6="13000.00000" pt_clust_7="13000.00000" pt_clust_8="13000.00000" pt_clust_9="78.05482"></scales>
<clustering>
<clus scale="   78.055">  2  9  1 -1</clus>
<clus scale="   92.086">  5  6 -1 -1</clus>
<clus scale="   92.210">  7  8 -1 -1</clus>
<clus scale="  116.307">  1  5  2 -1</clus>
<clus scale="   78.055">  2  5  1 -1</clus>
</clustering>
</event>
<event>
 9    1  0.1426358E-005  0.1142073E+03  0.7546771E-02  0.1253734E+00
         -4   -1    0    0    0  501 -0.00000000000E+00  0.00000000000E+00  0.14418436008E+03  0.14418436008E+03  0.00000000000E+00 0. -1.
         21   -1    0    0  501  502  0.00000000000E+00 -0.00000000000E+00 -0.49000430142E+03  0.49000430142E+03  0.00000000000E+00 0. -1.
         23    2    1    2    0    0 -0.36770234725E+02  0.58159287773E+02  0.95814498515E+02  0.15095062482E+03  0.94186623736E+02 0.  0.
         23    2    1    2    0    0 -0.11402238414E+02 -0.12834830130E+02 -0.38477265657E+03  0.39601329233E+03  0.92096615304E+02 0.  0.
        -11    1    4    4    0    0 -0.49907882370E+02 -0.65214400410E+01 -0.27361773076E+03  0.27820853418E+03  0.00000000000E+00 0. -1.
         11    1    4    4    0    0  0.38505643956E+02 -0.63133900890E+01 -0.11115492581E+03  0.11780475815E+03  0.00000000000E+00 0.  1.
        -11    1    3    3    0    0 -0.33970484778E+02  0.15515227139E+02 -0.84306042510E+01  0.38285652630E+02  0.00000000000E+00 0.  1.
         11    1    3    3    0    0 -0.27997499463E+01  0.42644060634E+02  0.10424510277E+03  0.11266497219E+03  0.00000000000E+00 0. -1.
         -4    1    1    2    0  502  0.48172473138E+02 -0.45324457643E+02 -0.56861783289E+02  0.87224744354E+02  0.00000000000E+00 0. -1.
<scales pt_clust_5="13000.00000" pt_clust_6="13000.00000" pt_clust_7="13000.00000" pt_clust_8="13000.00000" pt_clust_9="66.14298"></scales>
<clustering>
<clus scale="   66.143">  2  9  1 -1</clus>
<clus scale="   92.097">  5  6 -1 -1</clus>
<clus scale="   94.187">  7  8 -1 -1</clus>
<clus scale="  112.490">  2  5  1 -1</clus>
<clus scale="   66.143">  2  5  1 -1</clus>
</clustering>
</event>
<event>
 9    1  0.1426358E-005  0.1021441E+03  0.7546771E-02  0.1279014E+00
          1   -1    0    0  502    0 -0.00000000000E+00  0.00000000000E+00  0.32243306364E+03  0.32243306364E+03  0.00000000000E+00 0. -1.
         21   -1    0    0  501  502  0.00000000000E+00 -0.00000000000E+00 -0.82807813368E+02  0.82807813368E+02  0.00000000000E+00 0. -1.
         23    2    1    2    0    0 -0.20542935721E+02 -0.37473940281E+02  0.12787384017E+03  0.15865000314E+03  0.83616960528E+02 0.  0.
         23    2    1    2    0    0 -0.52058697645E+02  0.63113896885E+02  0.11753952513E+03  0.16937748890E+03  0.90441814434E+02 0.  0.
        -11    1    4    4    0    0 -0.15096809420E+02  0.35490147772E+02 -0.45725731235E+01  0.38837773732E+02  0.00000000000E+00 0.  1.
         11    1    4    4    0    0 -0.36961888225E+02  0.27623749114E+02  0.12211209826E+03  0.13053971517E+03  0.00000000000E+00 0. -1.
        -11    1    3    3    0    0  0.57439654109E+01 -0.52976266283E+02  0.11249307572E+03  0.12447557999E+03  0.00000000000E+00 0.  1.
         11    1    3    3    0    0 -0.26286901132E+02  0.15502326002E+02  0.15380764445E+02  0.34174423148E+02  0.00000000000E+00 0. -1.
          1    1    1    2  501    0  0.72601633367E+02 -0.25639956604E+02 -0.57881150317E+01  0.77213384965E+02  0.00000000000E+00 0. -1.
<scales pt_clust_5="13000.00000" pt_clust_6="13000.00000" pt_clust_7="13000.00000" pt_clust_8="13000.00000" pt_clust_9="76.99613"></scales>
<clustering>
<clus scale="   76.996">  2  9  1 -1</clus>
<clus scale="   83.617">  7  8 -1 -1</clus>
<clus scale="   90.442">  5  6 -1 -1</clus>
<clus scale="   96.153">  1  7  2 -1</clus>
<clus scale="   76.996">  2  5  1 -1</clus>
</clustering>
</event>
<event>
 9    1  0.1426358E-005  0.1352468E+03  0.7546771E-02  0.1219989E+00
         21   -1    0    0  501  502  0.00000000000E+00  0.00000000000E+00  0.71419917720E+02  0.71419917720E+02  0.00000000000E+00 0.  1.
          2   -1    0    0  502    0 -0.00000000000E+00 -0.00000000000E+00 -0.40843018439E+03  0.40843018439E+03  0.00000000000E+00 0. -1.
         23    2    1    2    0    0 -0.82884855845E+02 -0.46655032156E+02 -0.16330460731E+03  0.20923077735E+03  0.89791603554E+02 0.  0.
         23    2    1    2    0    0  0.11809850009E+03  0.51432034744E-01 -0.11660480934E+03  0.18893454430E+03  0.90290210430E+02 0.  0.
        -11    1    4    4    0    0  0.10850980227E+03  0.23656801317E+02 -0.11968043749E+03  0.16327102791E+03  0.00000000000E+00 0. -1.
         11    1    4    4    0    0  0.95886978233E+01 -0.23605369282E+02  0.30756281532E+01  0.25663516388E+02  0.00000000000E+00 0.  1.
        -11    1    3    3    0    0 -0.88627714291E+01 -0.42455682349E+02 -0.19739729954E+02  0.47651764079E+02  0.00000000000E+00 0.  1.
         11    1    3    3    0    0 -0.74022084416E+02 -0.41993498062E+01 -0.14356487736E+03  0.16157901327E+03  0.00000000000E+00 0. -1.
          2    1    1    2  501    0 -0.35213644248E+02  0.46603600121E+02 -0.57100850026E+02  0.81684780462E+02  0.00000000000E+00 0. -1.
<scales pt_clust_5="13000.00000" pt_clust_6="13000.00000" pt_clust_7="13000.00000" pt_clust_8="13000.00000" pt_clust_9="58.41144"></scales>
<clustering>
<clus scale="   58.411">  1  9  2 -1</clus>
<clus scale="   89.792">  7  8 -1 -1</clus>
<clus scale="   90.290">  5  6 -1 -1</clus>
<clus scale="  134.914">  2  7  1 -1</clus>
<clus scale="   58.411">  1  5  2 -1</clus>
</clustering>
</event>
<event>
 9    1  0.1426358E-005  0.9771385E+02  0.7546771E-02  0.1286978E+00
         21   -1    0    0  501  502  0.00000000000E+00  0.00000000000E+00  0.30984186236E+03  0.30984186236E+03  0.00000000000E+00 0.  1.
         -1   -1    0    0    0  501 -0.00000000000E+00 -0.00000000000E+00 -0.99008743873E+02  0.99008743873E+02  0.00000000000E+00 0.  1.
         23    2    1    2    0    0  0.12866781335E+02  0.14831585048E+02 -0.19180937424E+01  0.89690272611E+02  0.87493633714E+02 0.  0.
         23    2    1    2    0    0 -0.81249530032E+02 -0.70426897435E+02  0.17126540863E+03  0.22175339866E+03  0.91001624225E+02 0.  0.
        -11    1    4    4    0    0 -0.61952610531E+02  0.57328218520E+01  0.71975476463E+02  0.95139163388E+02  0.00000000000E+00 0.  1.
         11    1    4    4    0    0 -0.19296919501E+02 -0.76159719287E+02  0.99289932166E+02  0.12661423527E+03  0.00000000000E+00 0. -1.
        -13    1    3    3    0    0  0.28893233839E+02  0.32134092700E+02 -0.30307717125E+02  0.52782351148E+02  0.00000000000E+00 0.  1.
         13    1    3    3    0    0 -0.16026452503E+02 -0.17302507652E+02  0.28389623383E+02  0.36907921463E+02  0.00000000000E+00 0. -1.
         -1    1    1    2    0  502  0.68382748696E+02  0.55595312387E+02  0.41485803604E+02  0.97406934965E+02  0.00000000000E+00 0.  1.
<scales pt_clust_5="13000.00000" pt_clust_6="13000.00000" pt_clust_7="13000.00000" pt_clust_8="13000.00000" pt_clust_9="88.13085"></scales>
<clustering>
<clus scale="   87.494">  7  8 -1 -1</clus>
<clus scale="   88.131">  1  9  2 -1</clus>
<clus scale="   91.002">  5  6 -1 -1</clus>
<clus scale="   94.455">  2  7  1 -1</clus>
<clus scale="   88.131">  1  5  2 -1</clus>
</clustering>
</event>
<event>
 9    1  0.1426358E-005  0.3132256E+03  0.7546771E-02  0.1125929E+00
         21   -1    0    0  501  502  0.00000000000E+00  0.00000000000E+00  0.16495767710E+03  0.16495767710E+03  0.00000000000E+00 0.  1.
          2   -1    0    0  502    0 -0.00000000000E+00 -0.00000000000E+00 -0.10434159348E+04  0.10434159348E+04  0.00000000000E+00 0. -1.
         23    2    1    2    0    0 -0.98516487033E+01 -0.56592161904E+01 -0.44567486318E+03  0.45520871808E+03  0.91977234334E+02 0.  0.
         23    2    1    2    0    0 -0.29070944168E+03 -0.42557023236E+02 -0.26275073849E+03  0.40449186804E+03  0.90844047813E+02 0.  0.
        -11    1    4    4    0    0 -0.26998162959E+03 -0.11543106033E+02 -0.23064304094E+03  0.35527388863E+03  0.00000000000E+00 0.  1.
         11    1    4    4    0    0 -0.20727812088E+02 -0.31013917203E+02 -0.32107697555E+02  0.49217979403E+02  0.00000000000E+00 0. -1.
        -13    1    3    3    0    0 -0.46117730201E+02 -0.23992892028E+02 -0.25780779497E+03  0.26299688791E+03  0.00000000000E+00 0.  1.
         13    1    3    3    0    0  0.36266081498E+02  0.18333675837E+02 -0.18786706821E+03  0.19221183016E+03  0.00000000000E+00 0. -1.
          2    1    1    2  501    0  0.30056109038E+03  0.48216239427E+02 -0.17003265602E+03  0.34867302578E+03  0.00000000000E+00 0. -1.
<scales pt_clust_5="13000.00000" pt_clust_6="13000.00000" pt_clust_7="13000.00000" pt_clust_8="13000.00000" pt_clust_9="299.76260"></scales>
<clustering>
<clus scale="   90.844">  5  6 -1 -1</clus>
<clus scale="   91.977">  7  8 -1 -1</clus>
<clus scale="   92.676">  2  7  1 -1</clus>
<clus scale="  299.763">  1  9  2 -1</clus>
<clus scale="  299.763">  1  5  2 -1</clus>
</clustering>
</event>
<event>
 9    1  0.1426358E-005  0.1333060E+03  0.7546771E-02  0.1222668E+00
          1   -1    0    0  502    0 -0.00000000000E+00  0.00000000000E+00  0.14866719315E+03  0.14866719315E+03  0.00000000000E+00 0. -1.
         21   -1    0    0  501  502  0.00000000000E+00 -0.00000000000E+00 -0.16392395550E+03  0.16392395550E+03  0.00000000000E+00 0. -1.
         23    2    1    2    0    0  0.26183023644E+02 -0.87666360476E+02 -0.20842702003E+02  0.13093219662E+03  0.91311994823E+02 0.  0.
         23    2    1    2    0    0 -0.52273678127E+02  0.90374092079E+02 -0.25355297694E+02  0.14109524620E+03  0.91460174037E+02 0.  0.
        -13    1    4    4    0    0  0.15640862106E+02  0.60696834419E+02  0.25322463832E+00  0.62680191437E+02  0.00000000000E+00 0.  1.
         13    1    4    4    0    0 -0.67914540233E+02  0.29677257660E+02 -0.25608522332E+02  0.78415054762E+02  0.00000000000E+00 0. -1.
        -13    1    3    3    0    0 -0.31894373310E+02 -0.23571188281E+02 -0.20039686435E+02  0.44434682380E+02  0.00000000000E+00 0. -1.
         13    1    3    3    0    0  0.58077396954E+02 -0.64095172195E+02 -0.80301556821E+00  0.86497514240E+02  0.00000000000E+00 0.  1.
          1    1    1    2  501    0  0.26090654483E+02 -0.27077316031E+01  0.30941237354E+02  0.40563705831E+02  0.00000000000E+00 0. -1.
<scales pt_clust_5="13000.00000" pt_clust_6="13000.00000" pt_clust_7="13000.00000" pt_clust_8="13000.00000" pt_clust_9="26.23080"></scales>
<clustering>
<clus scale="   26.231">  2  9  1 -1</clus>
<clus scale="   91.312">  7  8 -1 -1</clus>
<clus scale="   91.460">  5  6 -1 -1</clus>
<clus scale="  133.204">  1  7  2 -1</clus>
<clus scale="   26.231">  2  5  1 -1</clus>
</clustering>
</event>
<event>
 9    1  0.1426358E-005  0.1974138E+03  0.7546771E-02  0.1153108E+00
          3   -1    0    0  502    0 -0.00000000000E+00  0.00000000000E+00  0.26542291662E+03  0.26542291662E+03  0.00000000000E+00 0. -1.
         21   -1    0    0  501  502  0.00000000000E+00 -0.00000000000E+00 -0.17768431850E+03  0.17768431850E+03  0.00000000000E+00 0.  1.
         23    2    1    2    0    0 -0.76524899017E+02  0.16628676267E+03  0.10595435957E+03  0.22918801267E+03  0.88280639054E+02 0.  0.
         23    2    1    2    0    0  0.65943368391E+02 -0.13532576855E+03 -0.16480205455E+02  0.18115393440E+03  0.99416091793E+02 0.  0.
        -11    1    4    4    0    0  0.69552593315E+02 -0.34564718990E+02 -0.20227857032E+02  0.80258639634E+02  0.00000000000E+00 0.  1.
         11    1    4    4    0    0 -0.36092249241E+01 -0.10076104956E+03  0.37476515777E+01  0.10089529477E+03  0.00000000000E+00 0. -1.
        -13    1    3    3    0    0  0.90454951335E+01  0.65449284253E+02  0.12485491495E+02  0.67240741291E+02  0.00000000000E+00 0.  1.
         13    1    3    3    0    0 -0.85570394150E+02  0.10083747841E+03  0.93468868072E+02  0.16194727138E+03  0.00000000000E+00 0. -1.
          3    1    1    2  501    0  0.10581530626E+02 -0.30960994112E+02 -0.17355559947E+01  0.32765288056E+02  0.00000000000E+00 0. -1.
<scales pt_clust_5="13000.00000" pt_clust_6="13000.00000" pt_clust_7="13000.00000" pt_clust_8="13000.00000" pt_clust_9="32.71929"></scales>
<clustering>
<clus scale="   32.719">  2  9  1 -1</clus>
<clus scale="   88.281">  7  8 -1 -1</clus>
<clus scale="   99.416">  5  6 -1 -1</clus>
<clus scale="  192.047">  1  7  2 -1</clus>
<clus scale="   32.719">  2  5  1 -1</clus>
</clustering>
</event>
<event>
 9    1  0.1426358E-005  0.2670863E+03  0.7546771E-02  0.1145499E+00
          1   -1    0    0  502    0 -0.00000000000E+00  0.00000000000E+00  0.12688587423E+04  0.12688587423E+04  0.00000000000E+00 0. -1.
         21   -1    0    0  501  502  0.00000000000E+00 -0.00000000000E+00 -0.86786444752E+02  0.86786444752E+02  0.00000000000E+00 0. -1.
         23    2    1    2    0    0 -0.18280869964E+02  0.18705834233E+01  0.44697646812E+03  0.45652699225E+03  0.91056259047E+02 0.  0.
         23    2    1    2    0    0  0.20760873209E+03  0.15191940800E+03  0.39097885570E+03  0.47732097758E+03  0.93754775196E+02 0.  0.
        -11    1    3    3    0    0 -0.51650228947E+02  0.19407128117E+02  0.26095413597E+03  0.26672353449E+03  0.00000000000E+00 0.  1.
         11    1    3    3    0    0  0.33369358983E+02 -0.17536544694E+02  0.18602233216E+03  0.18980345777E+03  0.00000000000E+00 0. -1.
        -13    1    4    4    0    0  0.14080643701E+03  0.12566437080E+03  0.20848223791E+03  0.28121669637E+03  0.00000000000E+00 0. -1.
         13    1    4    4    0    0  0.66802295075E+02  0.26255037194E+02  0.18249661779E+03  0.19610428121E+03  0.00000000000E+00 0.  1.
          1    1    1    2  501    0 -0.18932786212E+03 -0.15378999142E+03  0.34411697368E+03  0.42179721717E+03  0.00000000000E+00 0. -1.
<scales pt_clust_5="13000.00000" pt_clust_6="13000.00000" pt_clust_7="13000.00000" pt_clust_8="13000.00000" pt_clust_9="250.09030"></scales>
<clustering>
<clus scale="   91.056">  5  6 -1 -1</clus>
<clus scale="   92.892">  1  5  2 -1</clus>
<clus scale="   93.755">  7  8 -1 -1</clus>
<clus scale="  250.090">  2  9  1 -1</clus>
<clus scale="  250.090">  2  5  1 -1</clus>
</clustering>
</event>
<event>
 9    1  0.1426358E-005  0.1061135E+03  0.7546771E-02  0.1275380E+00
         -1   -1    0    0    0  501 -0.00000000000E+00  0.00000000000E+00  0.23235306447E+03  0.23235306447E+03  0.00000000000E+00 0.  1.
         21   -1    0    0  501  502  0.00000000000E+00 -0.00000000000E+00 -0.85418635767E+02  0.85418635767E+02  0.00000000000E+00 0. -1.
         23    2    1    2    0    0  0.45442664629E+02  0.21694634179E+02  0.11921437581E+03  0.16357820870E+03  0.10005033753E+03 0.  0.
         23    2    1    2    0    0 -0.21030011230E+02  0.27820260113E+02  0.35633175389E+02  0.98423249374E+02  0.84859793683E+02 0.  0.
        -11    1    4    4    0    0 -0.25879805130E+02 -0.18764927477E+02 -0.95313219555E+01  0.33357651521E+02  0.00000000000E+00 0.  1.
         11    1    4    4    0    0  0.48497938997E+01  0.46585187590E+02  0.45164497344E+02  0.65065597853E+02  0.00000000000E+00 0. -1.
        -13    1    3    3    0    0 -0.58777307944E+01 -0.33502368646E+02  0.54473755744E+02  0.64221075116E+02  0.00000000000E+00 0.  1.
         13    1    3    3    0    0  0.51320395423E+02  0.55197002825E+02  0.64740620070E+02  0.99357133585E+02  0.00000000000E+00 0. -1.
         -1    1    1    2    0  502 -0.24412653399E+02 -0.49514894292E+02 -0.79131225029E+01  0.55770242159E+02  0.00000000000E+00 0.  1.
<scales pt_clust_5="13000.00000" pt_clust_6="13000.00000" pt_clust_7="13000.00000" pt_clust_8="13000.00000" pt_clust_9="55.20600"></scales>
<clustering>
<clus scale="   55.206">  2  9  1 -1</clus>
<clus scale="   84.860">  5  6 -1 -1</clus>
<clus scale="   91.930">  2  5  1 -1</clus>
<clus scale="  100.050">  7  8 -1 -1</clus>
<clus scale="   55.206">  2  5  1 -1</clus>
</clustering>
</event>
<event>
 9    1  0.1426358E-005  0.1193688E+03  0.7546771E-02  0.1244702E+00
          2   -1    0    0  502    0 -0.00000000000E+00  0.00000000000E+00  0.62458287533E+03  0.62458287533E+03  0.00000000000E+00 0. -1.
         21   -1    0    0  501  502  0.00000000000E+00 -0.00000000000E+00 -0.10254252607E+03  0.10254252607E+03  0.00000000000E+00 0. -1.
         23    2    1    2    0    0 -0.10324571053E+03  0.68074666509E+00  0.38977686835E+03  0.41312371857E+03  0.89916959391E+02 0.  0.
         23    2    1    2    0    0  0.48968338655E+02 -0.26697742753E+02  0.19866601221E+03  0.22437906655E+03  0.88131228514E+02 0.  0.
        -11    1    4    4    0    0  0.44113874621E+02  0.51505197088E+01  0.32285446873E+02  0.54908213111E+02  0.00000000000E+00 0.  1.
         11    1    4    4    0    0  0.48544640340E+01 -0.31848262462E+02  0.16638056534E+03  0.16947085344E+03  0.00000000000E+00 0. -1.
        -11    1    3    3    0    0 -0.49995031835E+02  0.35297326480E+02  0.10666399856E+03  0.12297403406E+03  0.00000000000E+00 0.  1.
         11    1    3    3    0    0 -0.53250678697E+02 -0.34616579815E+02  0.28311286979E+03  0.29014968451E+03  0.00000000000E+00 0. -1.
          2    1    1    2  501    0  0.54277371878E+02  0.26016996088E+02 -0.66402531308E+02  0.89622616272E+02  0.00000000000E+00 0. -1.
<scales pt_clust_5="13000.00000" pt_clust_6="13000.00000" pt_clust_7="13000.00000" pt_clust_8="13000.00000" pt_clust_9="60.19067"></scales>
<clustering>
<clus scale="   60.191">  2  9  1 -1</clus>
<clus scale="   88.131">  5  6 -1 -1</clus>
<clus scale="   89.917">  7  8 -1 -1</clus>
<clus scale="  118.029">  2  5  1 -1</clus>
<clus scale="   60.191">  2  5  1 -1</clus>
</clustering>
</event>
<event>
 9    1  0.1426358E-005  0.9835497E+02  0.7546771E-02  0.1285061E+00
          1   -1    0    0  502    0 -0.00000000000E+00  0.00000000000E+00  0.49433925015E+02  0.49433925015E+02  0.00000000000E+00 0. -1.
         21   -1    0    0  501  502  0.00000000000E+00 -0.00000000000E+00 -0.60236745155E+03  0.60236745155E+03  0.00000000000E+00 0. -1.
         23    2    1    2    0    0  0.34173285130E+02 -0.13314908629E+02 -0.23638459447E+02  0.10320911968E+03  0.93532055535E+02 0.  0.
         23    2    1    2    0    0  0.13409292772E+02  0.23203351091E+02 -0.32405984991E+03  0.33768142885E+03  0.91081043177E+02 0.  0.
        -13    1    3    3    0    0  0.50667608141E+01 -0.29922544293E+02  0.28235617548E+02  0.41452150975E+02  0.00000000000E+00 0. -1.
         13    1    3    3    0    0  0.29106524316E+02  0.16607635664E+02 -0.51874076995E+02  0.61756968710E+02  0.00000000000E+00 0.  1.
        -13    1    4    4    0    0 -0.36778309939E+01 -0.23516325373E+02 -0.25024427840E+02  0.34536444354E+02  0.00000000000E+00 0.  1.
         13    1    4    4    0    0  0.17087123766E+02  0.46719676464E+02 -0.29903542207E+03  0.30314498449E+03  0.00000000000E+00 0. -1.
          1    1    1    2  501    0 -0.47582577902E+02 -0.98884424621E+01 -0.20523521717E+03  0.21091082803E+03  0.00000000000E+00 0. -1.
<scales pt_clust_5="13000.00000" pt_clust_6="13000.00000" pt_clust_7="13000.00000" pt_clust_8="13000.00000" pt_clust_9="48.59921"></scales>
<clustering>
<clus scale="   48.599">  2  9  1 -1</clus>
<clus scale="   91.081">  7  8 -1 -1</clus>
<clus scale="   93.532">  5  6 -1 -1</clus>
<clus scale="   96.027">  2  7  1 -1</clus>
<clus scale="   48.599">  2  5  1 -1</clus>
</clustering>
</event>
<event>
 9    1  0.1426358E-005  0.1037115E+03  0.7546771E-02  0.1277120E+00
         21   -1    0    0  501  502  0.00000000000E+00  0.00000000000E+00  0.89177828080E+02  0.89177828080E+02  0.00000000000E+00 0. -1.
         -2   -1    0    0    0  501 -0.00000000000E+00 -0.00000000000E+00 -0.16772422985E+03  0.16772422985E+03  0.00000000000E+00 0.  1.
         23    2    1    2    0    0 -0.18145820284E+02  0.28135056461E+02 -0.74310041037E+02  0.12865440731E+03  0.99544573556E+02 0.  0.
         23    2    1    2    0    0  0.28654983343E+02 -0.21535170890E+01  0.11959650612E+02  0.95878009296E+02  0.90685245313E+02 0.  0.
        -13    1    3    3    0    0  0.31858867219E+02 -0.16466790817E+02 -0.38744400782E+02  0.52794613477E+02  0.00000000000E+00 0.  1.
         13    1    3    3    0    0 -0.50004687503E+02  0.44601847278E+02 -0.35565640255E+02  0.75859793828E+02  0.00000000000E+00 0. -1.
        -13    1    4    4    0    0  0.59189462202E+02  0.12670733740E+02  0.22438342750E+01  0.60572062220E+02  0.00000000000E+00 0.  1.
         13    1    4    4    0    0 -0.30534478859E+02 -0.14824250829E+02  0.97158163369E+01  0.35305947076E+02  0.00000000000E+00 0. -1.
         -2    1    1    2    0  502 -0.10509163059E+02 -0.25981539372E+02 -0.16196011346E+02  0.32369641330E+02  0.00000000000E+00 0.  1.
<scales pt_clust_5="13000.00000" pt_clust_6="13000.00000" pt_clust_7="13000.00000" pt_clust_8="13000.00000" pt_clust_9="28.02648"></scales>
<clustering>
<clus scale="   28.026">  1  9  2 -1</clus>
<clus scale="   90.685">  7  8 -1 -1</clus>
<clus scale="   95.241">  1  7  2 -1</clus>
<clus scale="   99.545">  5  6 -1 -1</clus>
<clus scale="   28.026">  1  5  2 -1</clus>
</clustering>
</event>
<event>
 9    1  0.1426358E-005  0.1824744E+03  0.7546771E-02  0.1192241E+00
         21   -1    0    0  501  502  0.00000000000E+00  0.00000000000E+00  0.12969538592E+04  0.12969538592E+04  0.00000000000E+00 0.  1.
         -4   -1    0    0    0  501 -0.00000000000E+00 -0.00000000000E+00 -0.97141838923E+03  0.97141838923E+03  0.00000000000E+00 0.  1.
         23    2    1    2    0    0  0.33986212019E+02 -0.77793083172E+01 -0.34085583559E+03  0.35515078201E+03  0.93454786172E+02 0.  0.
         23    2    1    2    0    0 -0.93581307322E+02  0.15424786109E+03 -0.60201752363E+03  0.63499395526E+03  0.90787448042E+02 0.  0.
        -11    1    3    3    0    0 -0.27494511433E+02  0.18231497218E+02 -0.11290109862E+03  0.11762225010E+03  0.00000000000E+00 0.  1.
         11    1    3    3    0    0  0.61480723453E+02 -0.26010805535E+02 -0.22795473697E+03  0.23752853190E+03  0.00000000000E+00 0. -1.
        -11    1    4    4    0    0 -0.38048869441E+02  0.94472683917E+02 -0.46061871832E+03  0.47174400700E+03  0.00000000000E+00 0.  1.
         11    1    4    4    0    0 -0.55532437881E+02  0.59775177168E+02 -0.14139880532E+03  0.16324994826E+03  0.00000000000E+00 0. -1.
         -4    1    1    2    0  502  0.59595095303E+02 -0.14646855277E+03  0.12684088292E+04  0.12782275112E+04  0.00000000000E+00 0.  1.
<scales pt_clust_5="13000.00000" pt_clust_6="13000.00000" pt_clust_7="13000.00000" pt_clust_8="13000.00000" pt_clust_9="158.28624"></scales>
<clustering>
<clus scale="   90.787">  7  8 -1 -1</clus>
<clus scale="   93.455">  5  6 -1 -1</clus>
<clus scale="   99.747">  2  5  1 -1</clus>
<clus scale="  158.286">  1  9  2 -1</clus>
<clus scale="  158.286">  1  5  2 -1</clus>
</clustering>
</event>
<event>
 9    1  0.1426358E-005  0.1150840E+03  0.7546771E-02  0.1251550E+00
         21   -1    0    0  501  502  0.00000000000E+00  0.00000000000E+00  0.76490476685E+02  0.76490476685E+02  0.00000000000E+00 0.  1.
          2   -1    0    0  502    0 -0.00000000000E+00 -0.00000000000E+00 -0.48730941684E+03  0.48730941684E+03  0.00000000000E+00 0. -1.
         23    2    1    2    0    0  0.69442273390E+02 -0.31284339763E+02 -0.39905038879E+03  0.41641101667E+03  0.91411064774E+02 0.  0.
         23    2    1    2    0    0 -0.39102633316E+02  0.20598972728E+02 -0.35648194046E+02  0.10732757180E+03  0.91077331541E+02 0.  0.
        -13    1    4    4    0    0  0.12556320660E+02 -0.27625663380E+02 -0.13975754755E+02  0.33408983622E+02  0.00000000000E+00 0. -1.
         13    1    4    4    0    0 -0.51658953977E+02  0.48224636108E+02 -0.21672439291E+02  0.73918588180E+02  0.00000000000E+00 0.  1.
        -13    1    3    3    0    0 -0.86621522996E+01 -0.37461520105E+02 -0.96432101829E+02  0.10381497307E+03  0.00000000000E+00 0.  1.
         13    1    3    3    0    0  0.78104425690E+02  0.61771803423E+01 -0.30261828696E+03  0.31259604360E+03  0.00000000000E+00 0. -1.
          2    1    1    2  501    0 -0.30339640074E+02  0.10685367035E+02  0.23879642676E+02  0.40061305056E+02  0.00000000000E+00 0. -1.
<scales pt_clust_5="13000.00000" pt_clust_6="13000.00000" pt_clust_7="13000.00000" pt_clust_8="13000.00000" pt_clust_9="32.16630"></scales>
<clustering>
<clus scale="   32.166">  1  9  2 -1</clus>
<clus scale="   91.077">  5  6 -1 -1</clus>
<clus scale="   91.411">  7  8 -1 -1</clus>
<clus scale="  114.819">  1  5  2 -1</clus>
<clus scale="   32.166">  1  5  2 -1</clus>
</clustering>
</event>
<event>
 9    1  0.1426358E-005  0.9725220E+02  0.7546771E-02  0.1286307E+00
         21   -1    0    0  501  502  0.00000000000E+00  0.00000000000E+00  0.27739746523E+02  0.27739746523E+02  0.00000000000E+00 0. -1.
          1   -1    0    0  502    0 -0.00000000000E+00 -0.00000000000E+00 -0.64179327464E+03  0.64179327464E+03  0.00000000000E+00 0. -1.
         23    2    1    2    0    0 -0.14831257739E+02  0.18244024108E+02 -0.37090599243E+03  0.38285335902E+03  0.91938178532E+02 0.  0.
         23    2    1    2    0    0  0.43437330329E+02 -0.22136108233E+02 -0.23462040429E+03  0.25657704303E+03  0.91696433662E+02 0.  0.
        -11    1    4    4    0    0 -0.16989931065E+02  0.21139092287E+02 -0.40770288251E+02  0.48966676264E+02  0.00000000000E+00 0.  1.
         11    1    4    4    0    0  0.60427261394E+02 -0.43275200521E+02 -0.19385011604E+03  0.20761036676E+03  0.00000000000E+00 0. -1.
        -11    1    3    3    0    0 -0.38479865632E+02  0.44846852053E+02 -0.21894500926E+03  0.22677931405E+03  0.00000000000E+00 0.  1.
         11    1    3    3    0    0  0.23648607893E+02 -0.26602827944E+02 -0.15196098316E+03  0.15607404497E+03  0.00000000000E+00 0. -1.
          1    1    1    2  501    0 -0.28606072589E+02  0.38920841252E+01 -0.85271314033E+01  0.30102619119E+02  0.00000000000E+00 0. -1.
<scales pt_clust_5="13000.00000" pt_clust_6="13000.00000" pt_clust_7="13000.00000" pt_clust_8="13000.00000" pt_clust_9="28.86963"></scales>
<clustering>
<clus scale="   28.870">  1  9  2 -1</clus>
<clus scale="   91.696">  5  6 -1 -1</clus>
<clus scale="   91.938">  7  8 -1 -1</clus>
<clus scale="   97.024">  1  5  2 -1</clus>
<clus scale="   28.870">  1  5  2 -1</clus>
</clustering>
</event>
<event>
 9    1  0.1426358E-005  0.2169391E+03  0.7546771E-02  0.1167109E+00
         21   -1    0    0  501  502  0.00000000000E+00  0.00000000000E+00  0.16944920768E+03  0.16944920768E+03  0.00000000000E+00 0. -1.
          1   -1    0    0  502    0 -0.00000000000E+00 -0.00000000000E+00 -0.46570458010E+03  0.46570458010E+03  0.00000000000E+00 0. -1.
         23    2    1    2    0    0 -0.31943307699E+02  0.41381547999E+02 -0.17200197168E+03  0.20124365238E+03  0.90451765826E+02 0.  0.
         23    2    1    2    0    0 -0.17227498810E+03  0.28476940564E+02 -0.78340253530E+02  0.21324446554E+03  0.94055298044E+02 0.  0.
        -11    1    4    4    0    0 -0.27570768821E+02  0.35262611140E+02  0.67068228195E+01  0.45261247333E+02  0.00000000000E+00 0.  1.
         11    1    4    4    0    0 -0.14470421928E+03 -0.67856705764E+01 -0.85047076350E+02  0.16798321821E+03  0.00000000000E+00 0. -1.
        -11    1    3    3    0    0 -0.42813985598E+01  0.66765380131E+02 -0.11230002251E+03  0.13071817553E+03  0.00000000000E+00 0. -1.
         11    1    3    3    0    0 -0.27661909140E+02 -0.25383832132E+02 -0.59701949170E+02  0.70525476855E+02  0.00000000000E+00 0.  1.
          1    1    1    2  501    0  0.20421829580E+03 -0.69858488563E+02 -0.45913147209E+02  0.22066566985E+03  0.00000000000E+00 0. -1.
<scales pt_clust_5="13000.00000" pt_clust_6="13000.00000" pt_clust_7="13000.00000" pt_clust_8="13000.00000" pt_clust_9="195.48969"></scales>
<clustering>
<clus scale="   90.452">  7  8 -1 -1</clus>
<clus scale="   94.055">  5  6 -1 -1</clus>
<clus scale="  104.472">  2  7  1 -1</clus>
<clus scale="  195.490">  1  9  2 -1</clus>
<clus scale="  195.490">  1  5  2 -1</clus>
</clustering>
</event>
<event>
 9    1  0.1426358E-005  0.1051737E+03  0.7546771E-02  0.1269867E+00
          2   -1    0    0  502    0 -0.00000000000E+00  0.00000000000E+00  0.14348791699E+03  0.14348791699E+03  0.00000000000E+00 0. -1.
         21   -1    0    0  501  502  0.00000000000E+00 -0.00000000000E+00 -0.11258502816E+03  0.11258502816E+03  0.00000000000E+00 0. -1.
         23    2    1    2    0    0 -0.18955801248E+02 -0.53619538936E+02  0.48735035997E+02  0.11769742221E+03  0.90792081732E+02 0.  0.
         23    2    1    2    0    0 -0.98543377086E+01  0.50946061866E+02 -0.60708662762E-02  0.10439110617E+03  0.90580868948E+02 0.  0.
        -11    1    4    4    0    0  0.32111279407E+02  0.40403672983E+01 -0.20368671550E+02  0.38240575490E+02  0.00000000000E+00 0.  1.
         11    1    4    4    0    0 -0.41965617116E+02  0.46905694568E+02  0.20362600684E+02  0.66150530681E+02  0.00000000000E+00 0. -1.
        -13    1    3    3    0    0 -0.46951375911E+02 -0.17015499224E+02  0.51234953252E+02  0.71547042906E+02  0.00000000000E+00 0.  1.
         13    1    3    3    0    0  0.27995574663E+02 -0.36604039712E+02 -0.24999172552E+01  0.46150379307E+02  0.00000000000E+00 0. -1.
          2    1    1    2  501    0  0.28810138957E+02  0.26734770691E+01 -0.17826076297E+02  0.33984416760E+02  0.00000000000E+00 0. -1.
<scales pt_clust_5="13000.00000" pt_clust_6="13000.00000" pt_clust_7="13000.00000" pt_clust_8="13000.00000" pt_clust_9="28.93392"></scales>
<clustering>
<clus scale="   28.934">  2  9  1 -1</clus>
<clus scale="   90.581">  5  6 -1 -1</clus>
<clus scale="   90.792">  7  8 -1 -1</clus>
<clus scale="  104.991">  2  5  1 -1</clus>
<clus scale="   28.934">  2  5  1 -1</clus>
</clustering>
</event>
<event>
 9    1  0.1426358E-005  0.1221129E+03  0.7546771E-02  0.1241243E+00
         21   -1    0    0  501  502  0.00000000000E+00  0.00000000000E+00  0.33314723889E+02  0.33314723889E+02  0.00000000000E+00 0. -1.
          2   -1    0    0  502    0 -0.00000000000E+00 -0.00000000000E+00 -0.79492891664E+03  0.79492891664E+03  0.00000000000E+00 0. -1.
         23    2    1    2    0    0  0.70100876067E+02 -0.35268433643E+02 -0.52926602411E+03  0.54387898636E+03  0.97590123899E+02 0.  0.
         23    2    1    2    0    0 -0.64493158964E+02  0.13477354084E+02 -0.23562008015E+03  0.26162695323E+03  0.92686751258E+02 0.  0.
        -13    1    4    4    0    0 -0.24042119374E+02  0.38710539087E+02 -0.41153540518E+02  0.61401492145E+02  0.00000000000E+00 0.  1.
         13    1    4    4    0    0 -0.40451039589E+02 -0.25233185003E+02 -0.19446653963E+03  0.20022546108E+03  0.00000000000E+00 0. -1.
        -13    1    3    3    0    0  0.49793410766E+02  0.27310020596E+02 -0.30146899262E+03  0.30677153468E+03  0.00000000000E+00 0.  1.
         13    1    3    3    0    0  0.20307465301E+02 -0.62578454239E+02 -0.22779703150E+03  0.23710745168E+03  0.00000000000E+00 0. -1.
          2    1    1    2  501    0 -0.56077171034E+01  0.21791079559E+02  0.32719115096E+01  0.22737700948E+02  0.00000000000E+00 0. -1.
<scales pt_clust_5="13000.00000" pt_clust_6="13000.00000" pt_clust_7="13000.00000" pt_clust_8="13000.00000" pt_clust_9="22.50106"></scales>
<clustering>
<clus scale="   22.501">  1  9  2 -1</clus>
<clus scale="   92.687">  5  6 -1 -1</clus>
<clus scale="   97.590">  7  8 -1 -1</clus>
<clus scale="  118.231">  1  5  2 -1</clus>
<clus scale="   22.501">  1  5  2 -1</clus>
</clustering>
</event>
<event>
 9    1  0.1426358E-005  0.1960430E+03  0.7546771E-02  0.1153390E+00
         21   -1    0    0  501  502  0.00000000000E+00  0.00000000000E+00  0.12228101804E+03  0.12228101804E+03  0.00000000000E+00 0. -1.
          3   -1    0    0  502    0 -0.00000000000E+00 -0.00000000000E+00 -0.11375128037E+04  0.11375128037E+04  0.00000000000E+00 0. -1.
         23    2    1    2    0    0  0.16928435973E+03  0.56259886492E+02 -0.57124990646E+03  0.60593476098E+03  0.94911061792E+02 0.  0.
         23    2    1    2    0    0 -0.89194490133E+02 -0.13822801953E+03  0.67709816359E+01  0.18876627046E+03  0.92326682051E+02 0.  0.
        -11    1    3    3    0    0  0.51435130483E+02  0.57917647846E+02 -0.15436682987E+03  0.17271115987E+03  0.00000000000E+00 0. -1.
         11    1    3    3    0    0  0.11784922925E+03 -0.16577613539E+01 -0.41688307659E+03  0.43322360111E+03  0.00000000000E+00 0.  1.
        -13    1    4    4    0    0 -0.10351821188E+03 -0.91724847062E+02  0.16026250653E+02  0.13923472437E+03  0.00000000000E+00 0. -1.
         13    1    4    4    0    0  0.14323721746E+02 -0.46503172464E+02 -0.92552690167E+01  0.49531546094E+02  0.00000000000E+00 0.  1.
          3    1    1    2  501    0 -0.80089869602E+02  0.81968133034E+02 -0.45075286082E+03  0.46509279030E+03  0.00000000000E+00 0. -1.
<scales pt_clust_5="13000.00000" pt_clust_6="13000.00000" pt_clust_7="13000.00000" pt_clust_8="13000.00000" pt_clust_9="114.60007"></scales>
<clustering>
<clus scale="   92.327">  7  8 -1 -1</clus>
<clus scale="   94.911">  5  6 -1 -1</clus>
<clus scale="  114.600">  1  9  2 -1</clus>
<clus scale="  194.805">  1  7  2 -1</clus>
<clus scale="  114.600">  1  5  2 -1</clus>
</clustering>
</event>
<event>
 9    1  0.1426358E-005  0.1072498E+03  0.7546771E-02  0.1266978E+00
         21   -1    0    0  501  502  0.00000000000E+00  0.00000000000E+00  0.49946399876E+02  0.49946399876E+02  0.00000000000E+00 0. -1.
          2   -1    0    0  502    0 -0.00000000000E+00 -0.00000000000E+00 -0.65049876117E+03  0.65049876117E+03  0.00000000000E+00 0. -1.
         23    2    1    2    0    0  0.31793731965E+02 -0.50803421015E+02 -0.50654738165E+03  0.51866175753E+03  0.93957117296E+02 0.  0.
         23    2    1    2    0    0 -0.36419986842E+02  0.43153763714E+00 -0.86265022947E+02  0.13061079561E+03  0.91054511590E+02 0.  0.
        -13    1    4    4    0    0 -0.57485339722E+02  0.23876429344E+02 -0.74224883417E+02  0.96870952713E+02  0.00000000000E+00 0.  1.
         13    1    4    4    0    0  0.21065352880E+02 -0.23444891707E+02 -0.12040139530E+02  0.33739842902E+02  0.00000000000E+00 0. -1.
        -13    1    3    3    0    0  0.19115013120E+02  0.25735092352E+02 -0.10905842581E+03  0.11367241946E+03  0.00000000000E+00 0.  1.
         13    1    3    3    0    0  0.12678718845E+02 -0.76538513367E+02 -0.39748895584E+03  0.40498933807E+03  0.00000000000E+00 0. -1.
          2    1    1    2  501    0  0.46262548769E+01  0.50371883378E+02 -0.77399566940E+01  0.51172607896E+02  0.00000000000E+00 0. -1.
<scales pt_clust_5="13000.00000" pt_clust_6="13000.00000" pt_clust_7="13000.00000" pt_clust_8="13000.00000" pt_clust_9="50.58388"></scales>
<clustering>
<clus scale="   50.584">  1  9  2 -1</clus>
<clus scale="   91.055">  5  6 -1 -1</clus>
<clus scale="   93.957">  7  8 -1 -1</clus>
<clus scale="  104.716">  1  5  2 -1</clus>
<clus scale="   50.584">  1  5  2 -1</clus>
</clustering>
</event>
<event>
 9    1  0.1426358E-005  0.1058722E+03  0.7546771E-02  0.1270245E+00
         21   -1    0    0  501  502  0.00000000000E+00  0.00000000000E+00  0.12629146009E+03  0.12629146009E+03  0.00000000000E+00 0.  1.
         -4   -1    0    0    0  501 -0.00000000000E+00 -0.00000000000E+00 -0.26611665453E+03  0.26611665453E+03  0.00000000000E+00 0.  1.
         23    2    1    2    0    0  0.31921218074E+02  0.26893259140E+02 -0.19594638400E+03  0.22242609859E+03  0.96623870646E+02 0.  0.
         23    2    1    2    0    0 -0.59387980101E+02 -0.31949793490E+01  0.88245817965E+01  0.11037496454E+03  0.92561436246E+02 0.  0.
        -11    1    3    3    0    0 -0.25678526549E+02  0.36808797102E+02 -0.64573688975E+02  0.78638639216E+02  0.00000000000E+00 0.  1.
         11    1    3    3    0    0  0.57599744623E+02 -0.99155379621E+01 -0.13137269503E+03  0.14378745937E+03  0.00000000000E+00 0. -1.
        -13    1    4    4    0    0 -0.65818570839E+02  0.31665936848E+02 -0.27285599089E+01  0.73090771393E+02  0.00000000000E+00 0.  1.
         13    1    4    4    0    0  0.64305907380E+01 -0.34860916197E+02  0.11553141705E+02  0.37284193147E+02  0.00000000000E+00 0. -1.
         -4    1    1    2    0  502  0.27466762027E+02 -0.23698279791E+02  0.47296607768E+02  0.59607051493E+02  0.00000000000E+00 0.  1.
<scales pt_clust_5="13000.00000" pt_clust_6="13000.00000" pt_clust_7="13000.00000" pt_clust_8="13000.00000" pt_clust_9="36.27715"></scales>
<clustering>
<clus scale="   36.277">  1  9  2 -1</clus>
<clus scale="   92.561">  7  8 -1 -1</clus>
<clus scale="   96.624">  5  6 -1 -1</clus>
<clus scale="  102.178">  1  7  2 -1</clus>
<clus scale="   36.277">  1  5  2 -1</clus>
</clustering>
</event>
<event>
 9    1  0.1426358E-005  0.1476642E+03  0.7546771E-02  0.1207652E+00
          2   -1    0    0  502    0 -0.00000000000E+00  0.00000000000E+00  0.41505020177E+02  0.41505020177E+02  0.00000000000E+00 0. -1.
         21   -1    0    0  501  502  0.00000000000E+00 -0.00000000000E+00 -0.10783543201E+04  0.10783543201E+04  0.00000000000E+00 0. -1.
         23    2    1    2    0    0 -0.26013972487E+02  0.10011020731E+03 -0.15798939971E+03  0.20963258586E+03  0.91029612011E+02 0.  0.
         23    2    1    2    0    0  0.92621530063E+02 -0.56541234822E+02 -0.64705337367E+03  0.66513679575E+03  0.10933082647E+03 0.  0.
        -11    1    4    4    0    0 -0.18568545024E+02 -0.13713068056E+02 -0.37410104751E+02  0.43958560455E+02  0.00000000000E+00 0.  1.
         11    1    4    4    0    0  0.11119007509E+03 -0.42828166766E+02 -0.60964326892E+03  0.62117823529E+03  0.00000000000E+00 0. -1.
        -13    1    3    3    0    0 -0.44918921349E+02  0.16400054721E+02 -0.33326705428E+02  0.58286710189E+02  0.00000000000E+00 0.  1.
         13    1    3    3    0    0  0.18904948862E+02  0.83710152587E+02 -0.12466269429E+03  0.15134587568E+03  0.00000000000E+00 0. -1.
          2    1    1    2  501    0 -0.66607557576E+02 -0.43568972486E+02 -0.23180652653E+03  0.24508995865E+03  0.00000000000E+00 0. -1.
<scales pt_clust_5="13000.00000" pt_clust_6="13000.00000" pt_clust_7="13000.00000" pt_clust_8="13000.00000" pt_clust_9="79.59160"></scales>
<clustering>
<clus scale="   79.592">  2  9  1 -1</clus>
<clus scale="   91.030">  7  8 -1 -1</clus>
<clus scale="  109.331">  5  6 -1 -1</clus>
<clus scale="  134.677">  1  7  2 -1</clus>
<clus scale="   79.592">  2  5  1 -1</clus>
</clustering>
</event>
<event>
 9    1  0.1426358E-005  0.1256570E+03  0.7546771E-02  0.1249178E+00
         21   -1    0    0  501  502  0.00000000000E+00  0.00000000000E+00  0.33818364618E+03  0.33818364618E+03  0.00000000000E+00 0.  1.
          2   -1    0    0  502    0 -0.00000000000E+00 -0.00000000000E+00 -0.16092864680E+03  0.16092864680E+03  0.00000000000E+00 0. -1.
         23    2    1    2    0    0  0.12213966418E+02 -0.13371598756E+02 -0.12243381490E+03  0.17554340714E+03  0.12448882732E+03 0.  0.
         23    2    1    2    0    0 -0.22485786608E+02 -0.12181206122E+02  0.22863260217E+03  0.24736231521E+03  0.90891450798E+02 0.  0.
        -11    1    3    3    0    0  0.19592122477E+02  0.21188874639E+02  0.15774538687E+02  0.32888535121E+02  0.00000000000E+00 0.  1.
         11    1    3    3    0    0 -0.73781560597E+01 -0.34560473394E+02 -0.13820835359E+03  0.14265487202E+03  0.00000000000E+00 0. -1.
        -13    1    4    4    0    0 -0.42259381533E+02  0.77250881030E+01  0.20837061176E+03  0.21275301210E+03  0.00000000000E+00 0.  1.
         13    1    4    4    0    0  0.19773594926E+02 -0.19906294225E+02  0.20261990410E+02  0.34609303105E+02  0.00000000000E+00 0. -1.
          2    1    1    2  501    0  0.10271820190E+02  0.25552804878E+02  0.71056212120E+02  0.76206570635E+02  0.00000000000E+00 0. -1.
<scales pt_clust_5="13000.00000" pt_clust_6="13000.00000" pt_clust_7="13000.00000" pt_clust_8="13000.00000" pt_clust_9="27.54008"></scales>
<clustering>
<clus scale="   27.540">  1  9  2 -1</clus>
<clus scale="   90.891">  7  8 -1 -1</clus>
<clus scale="   92.485">  1  7  2 -1</clus>
<clus scale="  124.489">  5  6 -1 -1</clus>
<clus scale="   27.540">  1  5  2 -1</clus>
</clustering>
</event>
<event>
 9    1  0.1426358E-005  0.1299894E+03  0.7546771E-02  0.1228155E+00
         21   -1    0    0  501  502  0.00000000000E+00  0.00000000000E+00  0.42215069465E+03  0.42215069465E+03  0.00000000000E+00 0. -1.
          2   -1    0    0  502    0 -0.00000000000E+00 -0.00000000000E+00 -0.46916824395E+02  0.46916824395E+02  0.00000000000E+00 0. -1.
         23    2    1    2    0    0 -0.95097884484E+02 -0.33201174906E+02  0.15743814636E+03  0.20766155667E+03  0.90502080293E+02 0.  0.
         23    2    1    2    0    0  0.84601398447E+02  0.15426170841E+02  0.17470244702E+03  0.21362356500E+03  0.87856241437E+02 0.  0.
        -11    1    3    3    0    0 -0.31848614259E+02  0.31209531999E+02  0.61058561226E+02  0.75607651841E+02  0.00000000000E+00 0.  1.
         11    1    3    3    0    0 -0.63249270225E+02 -0.64410706905E+02  0.96379585138E+02  0.13205390482E+03  0.00000000000E+00 0. -1.
        -13    1    4    4    0    0  0.89105956090E+01  0.33645638062E+02  0.99375596892E+02  0.10529452470E+03  0.00000000000E+00 0.  1.
         13    1    4    4    0    0  0.75690802838E+02 -0.18219467221E+02  0.75326850132E+02  0.10832904029E+03  0.00000000000E+00 0. -1.
          2    1    1    2  501    0  0.10496486036E+02  0.17775004064E+02  0.43093276868E+02  0.47782397384E+02  0.00000000000E+00 0. -1.
<scales pt_clust_5="13000.00000" pt_clust_6="13000.00000" pt_clust_7="13000.00000" pt_clust_8="13000.00000" pt_clust_9="20.64284"></scales>
<clustering>
<clus scale="   20.643">  1  9  2 -1</clus>
<clus scale="   87.856">  7  8 -1 -1</clus>
<clus scale="   90.502">  5  6 -1 -1</clus>
<clus scale="  128.161">  1  7  2 -1</clus>
<clus scale="   20.643">  1  5  2 -1</clus>
</clustering>
</event>
<event>
 9    1  0.1426358E-005  0.1091491E+03  0.7546771E-02  0.1264994E+00
         21   -1    0    0  501  502  0.00000000000E+00  0.00000000000E+00  0.27498179018E+03  0.27498179018E+03  0.00000000000E+00 0.  1.
          2   -1    0    0  502    0 -0.00000000000E+00 -0.00000000000E+00 -0.68792689283E+03  0.68792689283E+03  0.00000000000E+00 0. -1.
         23    2    1    2    0    0 -0.27497695830E+02 -0.41551635821E+02 -0.65490997344E+03  0.66392265326E+03  0.96971926297E+02 0.  0.
         23    2    1    2    0    0  0.17602811586E+02  0.67144581518E+02  0.24615966033E+03  0.27122807840E+03  0.90287531444E+02 0.  0.
        -13    1    4    4    0    0  0.28227206674E+02  0.39761384830E+00  0.15607773138E+03  0.15861018734E+03  0.00000000000E+00 0.  1.
         13    1    4    4    0    0 -0.10624395088E+02  0.66746967669E+02  0.90081928950E+02  0.11261789106E+03  0.00000000000E+00 0. -1.
        -13    1    3    3    0    0 -0.49454331315E+02  0.12220236344E+02 -0.30532110873E+03  0.30954166844E+03  0.00000000000E+00 0.  1.
         13    1    3    3    0    0  0.21956635485E+02 -0.53771872165E+02 -0.34958886471E+03  0.35438098482E+03  0.00000000000E+00 0. -1.
          2    1    1    2  501    0  0.98948842443E+01 -0.25592945697E+02 -0.41947895475E+01  0.27757951348E+02  0.00000000000E+00 0. -1.
<scales pt_clust_5="13000.00000" pt_clust_6="13000.00000" pt_clust_7="13000.00000" pt_clust_8="13000.00000" pt_clust_9="27.43916"></scales>
<clustering>
<clus scale="   27.439">  1  9  2 -1</clus>
<clus scale="   90.288">  5  6 -1 -1</clus>
<clus scale="   96.972">  7  8 -1 -1</clus>
<clus scale="  103.256">  1  5  2 -1</clus>
<clus scale="   27.439">  1  5  2 -1</clus>
</clustering>
</event>
<event>
 9    1  0.1426358E-005  0.2857091E+03  0.7546771E-02  0.1132778E+00
         21   -1    0    0  501  502  0.00000000000E+00  0.00000000000E+00  0.59443094194E+02  0.59443094194E+02  0.00000000000E+00 0. -1.
          2   -1    0    0  502    0 -0.00000000000E+00 -0.00000000000E+00 -0.18835582297E+04  0.18835582297E+04  0.00000000000E+00 0. -1.
         23    2    1    2    0    0 -0.35575378726E+02 -0.29848442405E+02 -0.25871730117E+03  0.27853644097E+03  0.92148629586E+02 0.  0.
         23    2    1    2    0    0 -0.24406346304E+03 -0.32182282865E+02 -0.94748912540E+03  0.98339450089E+03  0.93415353752E+02 0.  0.
        -11    1    3    3    0    0 -0.59734455227E+01 -0.49278919664E+02 -0.65949677546E+02  0.82543648715E+02  0.00000000000E+00 0. -1.
         11    1    3    3    0    0 -0.29601933203E+02  0.19430477259E+02 -0.19276762363E+03  0.19599279225E+03  0.00000000000E+00 0.  1.
        -11    1    4    4    0    0 -0.10982639354E+02  0.21435202647E+02 -0.92409364594E+02  0.95496476083E+02  0.00000000000E+00 0.  1.
         11    1    4    4    0    0 -0.23308082369E+03 -0.53617485512E+02 -0.85507976080E+03  0.88789802481E+03  0.00000000000E+00 0. -1.
          2    1    1    2  501    0  0.27963884177E+03  0.62030725270E+02 -0.61790870889E+03  0.68107038200E+03  0.00000000000E+00 0. -1.
<scales pt_clust_5="13000.00000" pt_clust_6="13000.00000" pt_clust_7="13000.00000" pt_clust_8="13000.00000" pt_clust_9="270.00609"></scales>
<clustering>
<clus scale="   92.149">  5  6 -1 -1</clus>
<clus scale="   93.415">  7  8 -1 -1</clus>
<clus scale="  103.189">  2  5  1 -1</clus>
<clus scale="  270.006">  1  9  2 -1</clus>
<clus scale="  270.006">  1  5  2 -1</clus>
</clustering>
</event>
<event>
 9    1  0.1426358E-005  0.9310790E+02  0.7546771E-02  0.1295755E+00
         21   -1    0    0  501  502  0.00000000000E+00  0.00000000000E+00  0.81522178247E+02  0.81522178247E+02  0.00000000000E+00 0. -1.
         -3   -1    0    0    0  501 -0.00000000000E+00 -0.00000000000E+00 -0.17307511357E+03  0.17307511357E+03  0.00000000000E+00 0.  1.
         23    2    1    2    0    0 -0.22444834033E+01  0.29951194894E+01 -0.95854507574E+02  0.13338550322E+03  0.92680080933E+02 0.  0.
         23    2    1    2    0    0 -0.11967095676E+02 -0.23606876719E+02  0.99116279399E+00  0.95957633948E+02  0.92230087834E+02 0.  0.
        -13    1    3    3    0    0 -0.21066723098E+02  0.24713384671E+02 -0.99267333432E+02  0.10444406010E+03  0.00000000000E+00 0.  1.
         13    1    3    3    0    0  0.18822239694E+02 -0.21718265182E+02  0.34128258587E+01  0.28941443121E+02  0.00000000000E+00 0. -1.
        -13    1    4    4    0    0  0.15110635384E+02 -0.50608567189E+02  0.15522060012E+02  0.55049911186E+02  0.00000000000E+00 0. -1.
         13    1    4    4    0    0 -0.27077731059E+02  0.27001690470E+02 -0.14530897218E+02  0.40907722761E+02  0.00000000000E+00 0.  1.
         -3    1    1    2    0  502  0.14211579079E+02  0.20611757229E+02  0.33104094579E+01  0.25254154644E+02  0.00000000000E+00 0.  1.
<scales pt_clust_5="13000.00000" pt_clust_6="13000.00000" pt_clust_7="13000.00000" pt_clust_8="13000.00000" pt_clust_9="25.03624"></scales>
<clustering>
<clus scale="   25.036">  1  9  2 -1</clus>
<clus scale="   92.230">  7  8 -1 -1</clus>
<clus scale="   92.660">  1  7  2 -1</clus>
<clus scale="   92.680">  5  6 -1 -1</clus>
<clus scale="   25.036">  1  5  2 -1</clus>
</clustering>
</event>
<event>
 9    1  0.1426358E-005  0.1168399E+03  0.7546771E-02  0.1253180E+00
         21   -1    0    0  501  502  0.00000000000E+00  0.00000000000E+00  0.52948084528E+02  0.52948084528E+02  0.00000000000E+00 0.  1.
         -1   -1    0    0    0  501 -0.00000000000E+00 -0.00000000000E+00 -0.49705593976E+03  0.49705593976E+03  0.00000000000E+00 0.  1.
         23    2    1    2    0    0  0.58886502353E+02  0.22663150869E+01 -0.39362368094E+03  0.40819840437E+03  0.90628796686E+02 0.  0.
         23    2    1    2    0    0 -0.36347280604E+02  0.79337269835E+00 -0.36251190414E+02  0.11497362342E+03  0.10287385979E+03 0.  0.
        -11    1    3    3    0    0  0.16161296980E+02  0.44910765767E+02 -0.17138351900E+03  0.17790580369E+03  0.00000000000E+00 0. -1.
         11    1    3    3    0    0  0.42725205373E+02 -0.42644450681E+02 -0.22224016194E+03  0.23029260068E+03  0.00000000000E+00 0.  1.
        -13    1    4    4    0    0  0.18090839455E+02  0.38692143888E+02 -0.16146310511E+02  0.45662498989E+02  0.00000000000E+00 0.  1.
         13    1    4    4    0    0 -0.54438120059E+02 -0.37898771189E+02 -0.20104879903E+02  0.69311124426E+02  0.00000000000E+00 0. -1.
         -1    1    1    2    0  502 -0.22539221749E+02 -0.30596877852E+01 -0.14232983881E+02  0.26831996507E+02  0.00000000000E+00 0.  1.
<scales pt_clust_5="13000.00000" pt_clust_6="13000.00000" pt_clust_7="13000.00000" pt_clust_8="13000.00000" pt_clust_9="22.74595"></scales>
<clustering>
<clus scale="   22.746">  1  9  2 -1</clus>
<clus scale="   90.629">  5  6 -1 -1</clus>
<clus scale="  102.874">  7  8 -1 -1</clus>
<clus scale="  106.217">  2  5  1 -1</clus>
<clus scale="   22.746">  1  5  2 -1</clus>
</clustering>
</event>
<event>
 9    1  0.1426358E-005  0.1283547E+03  0.7546771E-02  0.1230156E+00
         21   -1    0    0  501  502  0.00000000000E+00  0.00000000000E+00  0.17856123860E+03  0.17856123860E+03  0.00000000000E+00 0.  1.
         -2   -1    0    0    0  501 -0.00000000000E+00 -0.00000000000E+00 -0.38037685580E+03  0.38037685580E+03  0.00000000000E+00 0.  1.
         23    2    1    2    0    0 -0.90414060017E+02 -0.34677502070E+02 -0.31547935980E+03  0.34227676114E+03  0.90823583708E+02 0.  0.
         23    2    1    2    0    0  0.59977479630E+02  0.17791910829E+02  0.13205559243E+02  0.11034409467E+03  0.89930986207E+02 0.  0.
        -11    1    4    4    0    0  0.44845555476E+02  0.53931275476E+02  0.11899820409E+02  0.71142898776E+02  0.00000000000E+00 0.  1.
         11    1    4    4    0    0  0.15131924154E+02 -0.36139364647E+02  0.13057388337E+01  0.39201195895E+02  0.00000000000E+00 0. -1.
        -13    1    3    3    0    0 -0.29782379396E+02 -0.59974000012E+02 -0.16603545505E+03  0.17902972696E+03  0.00000000000E+00 0. -1.
         13    1    3    3    0    0 -0.60631680621E+02  0.25296497942E+02 -0.14944390475E+03  0.16324703418E+03  0.00000000000E+00 0.  1.
         -2    1    1    2    0  502  0.30436580387E+02  0.16885591241E+02  0.10045818336E+03  0.10631723859E+03  0.00000000000E+00 0.  1.
<scales pt_clust_5="13000.00000" pt_clust_6="13000.00000" pt_clust_7="13000.00000" pt_clust_8="13000.00000" pt_clust_9="34.80673"></scales>
<clustering>
<clus scale="   34.807">  1  9  2 -1</clus>
<clus scale="   89.931">  5  6 -1 -1</clus>
<clus scale="   90.824">  7  8 -1 -1</clus>
<clus scale="  127.725">  1  5  2 -1</clus>
<clus scale="   34.807">  1  5  2 -1</clus>
</clustering>
</event>
<event>
 9    1  0.1426358E-005  0.1014628E+03  0.7546771E-02  0.1278290E+00
         21   -1    0    0  501  502  0.00000000000E+00  0.00000000000E+00  0.13441310660E+03  0.13441310660E+03  0.00000000000E+00 0.  1.
         -4   -1    0    0    0  501 -0.00000000000E+00 -0.00000000000E+00 -0.56977344057E+03  0.56977344057E+03  0.00000000000E+00 0.  1.
         23    2    1    2    0    0 -0.34336351914E+02  0.36011650725E+02 -0.31577855861E+03  0.33210738513E+03  0.90018848716E+02 0.  0.
         23    2    1    2    0    0  0.44848651221E+02 -0.13245209314E+02 -0.23436434830E+03  0.25458933974E+03  0.87762446778E+02 0.  0.
        -11    1    3    3    0    0  0.26159096145E+02  0.32520304362E+02 -0.14553349657E+03  0.15139969330E+03  0.00000000000E+00 0.  1.
         11    1    3    3    0    0 -0.60495448059E+02  0.34913463626E+01 -0.17024506204E+03  0.18070769182E+03  0.00000000000E+00 0. -1.
        -13    1    4    4    0    0  0.13025435029E+02  0.37259583190E+02 -0.10273869018E+03  0.11005987896E+03  0.00000000000E+00 0.  1.
         13    1    4    4    0    0  0.31823216193E+02 -0.50504792504E+02 -0.13162565812E+03  0.14452946077E+03  0.00000000000E+00 0. -1.
         -4    1    1    2    0  502 -0.10512299307E+02 -0.22766441410E+02  0.11478257295E+03  0.11748982230E+03  0.00000000000E+00 0.  1.
<scales pt_clust_5="13000.00000" pt_clust_6="13000.00000" pt_clust_7="13000.00000" pt_clust_8="13000.00000" pt_clust_9="25.07627"></scales>
<clustering>
<clus scale="   25.076">  1  9  2 -1</clus>
<clus scale="   87.762">  7  8 -1 -1</clus>
<clus scale="   90.019">  5  6 -1 -1</clus>
<clus scale="   99.466">  1  7  2 -1</clus>
<clus scale="   25.076">  1  5  2 -1</clus>
</clustering>
</event>
<event>
 9    1  0.1426358E-005  0.1022182E+03  0.7546771E-02  0.1276453E+00
         -1   -1    0    0    0  501 -0.00000000000E+00  0.00000000000E+00  0.39652125826E+03  0.39652125826E+03  0.00000000000E+00 0.  1.
         21   -1    0    0  501  502  0.00000000000E+00 -0.00000000000E+00 -0.72518876264E+02  0.72518876264E+02  0.00000000000E+00 0.  1.
         23    2    1    2    0    0  0.18408025550E+02 -0.59904531821E+02  0.25128189924E+03  0.27489482769E+03  0.92180068732E+02 0.  0.
         23    2    1    2    0    0 -0.17279621496E+02 -0.20473031237E+02  0.54481261193E+02  0.11171657918E+03  0.93779826807E+02 0.  0.
        -13    1    3    3    0    0  0.30846393174E+02 -0.22130492103E+02  0.22271859185E+03  0.22593102888E+03  0.00000000000E+00 0.  1.
         13    1    3    3    0    0 -0.12438367624E+02 -0.37774039718E+02  0.28563307382E+02  0.48963798814E+02  0.00000000000E+00 0. -1.
        -13    1    4    4    0    0 -0.55690439625E+02 -0.47631823217E+01  0.34197629685E+02  0.65525497690E+02  0.00000000000E+00 0.  1.
         13    1    4    4    0    0  0.38410818129E+02 -0.15709848916E+02  0.20283631508E+02  0.46191081492E+02  0.00000000000E+00 0. -1.
         -1    1    1    2    0  502 -0.11284040539E+01  0.80377563058E+02  0.18239221570E+02  0.82428727652E+02  0.00000000000E+00 0.  1.
<scales pt_clust_5="13000.00000" pt_clust_6="13000.00000" pt_clust_7="13000.00000" pt_clust_8="13000.00000" pt_clust_9="80.38548"></scales>
<clustering>
<clus scale="   80.385">  2  9  1 -1</clus>
<clus scale="   92.180">  5  6 -1 -1</clus>
<clus scale="   93.780">  7  8 -1 -1</clus>
<clus scale="  100.753">  1  5  2 -1</clus>
<clus scale="   80.385">  2  5  1 -1</clus>
</clustering>
</event>
<event>
 9    1  0.1426358E-005  0.9485827E+02  0.7546771E-02  0.1292325E+00
         21   -1    0    0  501  502  0.00000000000E+00  0.00000000000E+00  0.29379078321E+03  0.29379078321E+03  0.00000000000E+00 0. -1.
          1   -1    0    0  502    0 -0.00000000000E+00 -0.00000000000E+00 -0.23561745608E+03  0.23561745608E+03  0.00000000000E+00 0. -1.
         23    2    1    2    0    0  0.23938612124E+02 -0.10598504682E+02 -0.19407355618E+03  0.21596417923E+03  0.91052710272E+02 0.  0.
         23    2    1    2    0    0 -0.49389673518E+02 -0.47580056785E+02  0.10942054034E+03  0.15713709993E+03  0.89532183448E+02 0.  0.
        -11    1    4    4    0    0  0.16163523874E+02 -0.22230937420E+02  0.72946112671E+02  0.77952610196E+02  0.00000000000E+00 0.  1.
         11    1    4    4    0    0 -0.65553197391E+02 -0.25349119365E+02  0.36474427665E+02  0.79184489733E+02  0.00000000000E+00 0. -1.
        -13    1    3    3    0    0  0.43574931197E+02 -0.33963696586E+02 -0.75683203759E+02  0.93703013003E+02  0.00000000000E+00 0. -1.
         13    1    3    3    0    0 -0.19636319073E+02  0.23365191904E+02 -0.11839035242E+03  0.12226116622E+03  0.00000000000E+00 0.  1.
          1    1    1    2  501    0  0.25451061394E+02  0.58178561467E+02  0.14282634298E+03  0.15630696014E+03  0.00000000000E+00 0. -1.
<scales pt_clust_5="13000.00000" pt_clust_6="13000.00000" pt_clust_7="13000.00000" pt_clust_8="13000.00000" pt_clust_9="63.50198"></scales>
<clustering>
<clus scale="   63.502">  1  9  2 -1</clus>
<clus scale="   89.532">  5  6 -1 -1</clus>
<clus scale="   91.053">  7  8 -1 -1</clus>
<clus scale="   93.400">  1  5  2 -1</clus>
<clus scale="   63.502">  1  5  2 -1</clus>
</clustering>
</event>
<event>
 9    1  0.1426358E-005  0.1577303E+03  0.7546771E-02  0.1192471E+00
         21   -1    0    0  501  502  0.00000000000E+00  0.00000000000E+00  0.14538129406E+03  0.14538129406E+03  0.00000000000E+00 0. -1.
         -3   -1    0    0    0  501 -0.00000000000E+00 -0.00000000000E+00 -0.24953358367E+03  0.24953358367E+03  0.00000000000E+00 0.  1.
         23    2    1    2    0    0  0.10425654779E+03 -0.71696210939E+02 -0.11068944948E+03  0.19406313340E+03  0.96946227878E+02 0.  0.
         23    2    1    2    0    0 -0.73276917980E+02  0.10185911647E+03 -0.93193553461E+01  0.15479778241E+03  0.90170487075E+02 0.  0.
        -11    1    3    3    0    0  0.80599195319E+02 -0.53839463836E+02 -0.12736642029E+03  0.16005350096E+03  0.00000000000E+00 0.  1.
         11    1    3    3    0    0  0.23657352471E+02 -0.17856747103E+02  0.16676970815E+02  0.34009632438E+02  0.00000000000E+00 0. -1.
        -13    1    4    4    0    0  0.71112853620E+01  0.59657527580E+02  0.12623081732E+02  0.61391637614E+02  0.00000000000E+00 0.  1.
         13    1    4    4    0    0 -0.80388203342E+02  0.42201588889E+02 -0.21942437078E+02  0.93406144799E+02  0.00000000000E+00 0. -1.
         -3    1    1    2    0  502 -0.30979629811E+02 -0.30162905531E+02  0.15856515223E+02  0.46053961917E+02  0.00000000000E+00 0.  1.
<scales pt_clust_5="13000.00000" pt_clust_6="13000.00000" pt_clust_7="13000.00000" pt_clust_8="13000.00000" pt_clust_9="43.23816"></scales>
<clustering>
<clus scale="   43.238">  1  9  2 -1</clus>
<clus scale="   90.170">  7  8 -1 -1</clus>
<clus scale="   96.946">  5  6 -1 -1</clus>
<clus scale="  153.659">  1  7  2 -1</clus>
<clus scale="   43.238">  1  5  2 -1</clus>
</clustering>
</event>
<event>
 9    1  0.1426358E-005  0.1039654E+03  0.7546771E-02  0.1277223E+00
         21   -1    0    0  501  502  0.00000000000E+00  0.00000000000E+00  0.44806270679E+02  0.44806270679E+02  0.00000000000E+00 0. -1.
          1   -1    0    0  502    0 -0.00000000000E+00 -0.00000000000E+00 -0.42318712905E+03  0.42318712905E+03  0.00000000000E+00 0. -1.
         23    2    1    2    0    0 -0.19281498192E+02  0.74935885631E+01 -0.27771730821E+03  0.29674343210E+03  0.10247844247E+03 0.  0.
         23    2    1    2    0    0  0.14323227962E+02  0.12573791060E+02 -0.11282062975E+03  0.14726916796E+03  0.92717087176E+02 0.  0.
        -11    1    3    3    0    0 -0.94753218768E+01 -0.33181772449E+02 -0.30638028584E+02  0.46146511710E+02  0.00000000000E+00 0.  1.
         11    1    3    3    0    0 -0.98061763151E+01  0.40675361012E+02 -0.24707927963E+03  0.25059692039E+03  0.00000000000E+00 0. -1.
        -13    1    4    4    0    0 -0.34838048463E+02 -0.99536820793E+01 -0.67926091463E+02  0.76985188894E+02  0.00000000000E+00 0.  1.
         13    1    4    4    0    0  0.49161276424E+02  0.22527473139E+02 -0.44894538284E+02  0.70283979067E+02  0.00000000000E+00 0. -1.
          1    1    1    2  501    0  0.49582702301E+01 -0.20067379623E+02  0.12157079588E+02  0.23980799668E+02  0.00000000000E+00 0. -1.
<scales pt_clust_5="13000.00000" pt_clust_6="13000.00000" pt_clust_7="13000.00000" pt_clust_8="13000.00000" pt_clust_9="20.67085"></scales>
<clustering>
<clus scale="   20.671">  1  9  2 -1</clus>
<clus scale="   92.717">  7  8 -1 -1</clus>
<clus scale="   94.358">  1  7  2 -1</clus>
<clus scale="  102.478">  5  6 -1 -1</clus>
<clus scale="   20.671">  1  5  2 -1</clus>
</clustering>
</event>
<event>
 9    1  0.1426358E-005  0.9679449E+02  0.7546771E-02  0.1287961E+00
         21   -1    0    0  501  502  0.00000000000E+00  0.00000000000E+00  0.80699637766E+02  0.80699637766E+02  0.00000000000E+00 0. -1.
          2   -1    0    0  502    0 -0.00000000000E+00 -0.00000000000E+00 -0.44525765822E+03  0.44525765822E+03  0.00000000000E+00 0. -1.
         23    2    1    2    0    0 -0.40776554977E+02 -0.16783083864E+02 -0.27349898249E+03  0.29246945019E+03  0.93767193281E+02 0.  0.
         23    2    1    2    0    0 -0.32626977433E+01 -0.21610822910E+02 -0.13170321253E+03  0.16231554231E+03  0.92319695740E+02 0.  0.
        -13    1    3    3    0    0 -0.28513041497E+02  0.37355115680E+02 -0.10431246548E+03  0.11440930320E+03  0.00000000000E+00 0.  1.
         13    1    3    3    0    0 -0.12263513480E+02 -0.54138199544E+02 -0.16918651700E+03  0.17806014699E+03  0.00000000000E+00 0. -1.
        -13    1    4    4    0    0  0.25072243049E+02 -0.81041313160E+01 -0.12802830657E+03  0.13071167354E+03  0.00000000000E+00 0.  1.
         13    1    4    4    0    0 -0.28334940792E+02 -0.13506691594E+02 -0.36749059585E+01  0.31603868771E+02  0.00000000000E+00 0. -1.
          2    1    1    2  501    0  0.44039252720E+02  0.38393906774E+02  0.40644174560E+02  0.71172303484E+02  0.00000000000E+00 0. -1.
<scales pt_clust_5="13000.00000" pt_clust_6="13000.00000" pt_clust_7="13000.00000" pt_clust_8="13000.00000" pt_clust_9="58.42558"></scales>
<clustering>
<clus scale="   58.426">  1  9  2 -1</clus>
<clus scale="   92.320">  7  8 -1 -1</clus>
<clus scale="   93.767">  5  6 -1 -1</clus>
<clus scale="   95.393">  1  7  2 -1</clus>
<clus scale="   58.426">  1  5  2 -1</clus>
</clustering>
</event>
<event>
 9    1  0.1426358E-005  0.1025700E+03  0.7546771E-02  0.1276046E+00
          3   -1    0    0  502    0 -0.00000000000E+00  0.00000000000E+00  0.51205164987E+02  0.51205164987E+02  0.00000000000E+00 0. -1.
         21   -1    0    0  501  502  0.00000000000E+00 -0.00000000000E+00 -0.31088434312E+03  0.31088434312E+03  0.00000000000E+00 0. -1.
         23    2    1    2    0    0  0.50712486408E+02 -0.60143443527E+00 -0.57388547978E+02  0.11869710433E+03  0.90683180012E+02 0.  0.
         23    2    1    2    0    0 -0.27584628161E+02 -0.25357132994E+02 -0.14239627242E+03  0.17413867363E+03  0.92971411472E+02 0.  0.
        -13    1    3    3    0    0 -0.19008239701E+02  0.12603127332E+02  0.59615330118E+01  0.23573117548E+02  0.00000000000E+00 0.  1.
         13    1    3    3    0    0  0.69720726108E+02 -0.13204561768E+02 -0.63350080990E+02  0.95123986786E+02  0.00000000000E+00 0. -1.
        -13    1    4    4    0    0  0.15694889588E+02  0.24133375225E+02 -0.19527746018E+02  0.34786236121E+02  0.00000000000E+00 0.  1.
         13    1    4    4    0    0 -0.43279517749E+02 -0.49490508219E+02 -0.12286852640E+03  0.13935243751E+03  0.00000000000E+00 0. -1.
          3    1    1    2  501    0 -0.23127858247E+02  0.25958567429E+02 -0.59894357739E+02  0.69253730145E+02  0.00000000000E+00 0. -1.
<scales pt_clust_5="13000.00000" pt_clust_6="13000.00000" pt_clust_7="13000.00000" pt_clust_8="13000.00000" pt_clust_9="34.76701"></scales>
<clustering>
<clus scale="   34.767">  2  9  1 -1</clus>
<clus scale="   90.683">  5  6 -1 -1</clus>
<clus scale="   92.971">  7  8 -1 -1</clus>
<clus scale="  100.501">  1  5  2 -1</clus>
<clus scale="   34.767">  2  5  1 -1</clus>
</clustering>
</event>
<event>
 9    1  0.1426358E-005  0.9200665E+02  0.7546771E-02  0.1298178E+00
         21   -1    0    0  501  502  0.00000000000E+00  0.00000000000E+00  0.20528292800E+03  0.20528292800E+03  0.00000000000E+00 0.  1.
         -3   -1    0    0    0  501 -0.00000000000E+00 -0.00000000000E+00 -0.12961802541E+03  0.12961802541E+03  0.00000000000E+00 0.  1.
         23    2    1    2    0    0 -0.17806874366E+01  0.80494741462E+01 -0.77435182483E+02  0.11968778531E+03  0.90890008160E+02 0.  0.
         23    2    1    2    0    0  0.29359933704E+02 -0.21248300139E+02  0.54886066706E+02  0.11235006861E+03  0.91085463346E+02 0.  0.
        -11    1    4    4    0    0  0.53230727938E+02 -0.41481042985E+01  0.39270214057E+01  0.53536330311E+02  0.00000000000E+00 0. -1.
         11    1    4    4    0    0 -0.23870794233E+02 -0.17100195840E+02  0.50959045300E+02  0.58813738302E+02  0.00000000000E+00 0.  1.
        -11    1    3    3    0    0 -0.39005075367E+02  0.28927400749E+02 -0.42534929674E+02  0.64555485134E+02  0.00000000000E+00 0. -1.
         11    1    3    3    0    0  0.37224387931E+02 -0.20877926603E+02 -0.34900252809E+02  0.55132300172E+02  0.00000000000E+00 0.  1.
         -3    1    1    2    0  502 -0.27579246268E+02  0.13198825993E+02  0.98214018369E+02  0.10286309949E+03  0.00000000000E+00 0.  1.
<scales pt_clust_5="13000.00000" pt_clust_6="13000.00000" pt_clust_7="13000.00000" pt_clust_8="13000.00000" pt_clust_9="30.57489"></scales>
<clustering>
<clus scale="   30.575">  1  9  2 -1</clus>
<clus scale="   90.890">  7  8 -1 -1</clus>
<clus scale="   91.085">  5  6 -1 -1</clus>
<clus scale="   91.813">  2  7  1 -1</clus>
<clus scale="   30.575">  1  5  2 -1</clus>
</clustering>
</event>
<event>
 9    1  0.1426358E-005  0.1010324E+03  0.7546771E-02  0.1279450E+00
          1   -1    0    0  502    0 -0.00000000000E+00  0.00000000000E+00  0.11369234730E+04  0.11369234730E+04  0.00000000000E+00 0. -1.
         21   -1    0    0  501  502  0.00000000000E+00 -0.00000000000E+00 -0.26374775225E+02  0.26374775225E+02  0.00000000000E+00 0.  1.
         23    2    1    2    0    0 -0.96084289779E+01  0.49620114912E+02  0.55590862309E+03  0.56544230721E+03  0.90200486942E+02 0.  0.
         23    2    1    2    0    0  0.74690848775E+02  0.26882114261E+02  0.28395202292E+03  0.30913404403E+03  0.92917893303E+02 0.  0.
        -11    1    3    3    0    0  0.38615472153E+02  0.86807867881E+01  0.18608407638E+03  0.19024666680E+03  0.00000000000E+00 0.  1.
         11    1    3    3    0    0 -0.48223901131E+02  0.40939328124E+02  0.36982454672E+03  0.37519564041E+03  0.00000000000E+00 0. -1.
        -13    1    4    4    0    0 -0.20590826673E+02 -0.57894059216E+01  0.54449654531E+02  0.58500121731E+02  0.00000000000E+00 0. -1.
         13    1    4    4    0    0  0.95281675448E+02  0.32671520183E+02  0.22950236839E+03  0.25063392230E+03  0.00000000000E+00 0.  1.
          1    1    1    2  501    0 -0.65082419797E+02 -0.76502229173E+02  0.27068805175E+03  0.28872189698E+03  0.00000000000E+00 0. -1.
<scales pt_clust_5="13000.00000" pt_clust_6="13000.00000" pt_clust_7="13000.00000" pt_clust_8="13000.00000" pt_clust_9="100.44059"></scales>
<clustering>
<clus scale="   90.200">  5  6 -1 -1</clus>
<clus scale="   92.918">  7  8 -1 -1</clus>
<clus scale="  100.441">  2  9  1 -1</clus>
<clus scale="   98.539">  1  5  2 -1</clus>
<clus scale="  100.441">  2  5  1 -1</clus>
</clustering>
</event>
<event>
 9    1  0.1426358E-005  0.1645999E+03  0.7546771E-02  0.1209241E+00
          1   -1    0    0  502    0 -0.00000000000E+00  0.00000000000E+00  0.34918294534E+03  0.34918294534E+03  0.00000000000E+00 0. -1.
         21   -1    0    0  501  502  0.00000000000E+00 -0.00000000000E+00 -0.10776345462E+04  0.10776345462E+04  0.00000000000E+00 0. -1.
         23    2    1    2    0    0  0.10679019985E+01 -0.15692481175E+02  0.23377735591E+03  0.25196201528E+03  0.92658570160E+02 0.  0.
         23    2    1    2    0    0  0.13146746953E+03 -0.16945012011E+02  0.37526812822E+02  0.16582503593E+03  0.92297626648E+02 0.  0.
        -11    1    4    4    0    0  0.45405894021E+02  0.14328158043E+02 -0.26123235223E+02  0.54308514464E+02  0.00000000000E+00 0.  1.
         11    1    4    4    0    0  0.86061575511E+02 -0.31273170054E+02  0.63650048045E+02  0.11151652147E+03  0.00000000000E+00 0. -1.
        -13    1    3    3    0    0  0.83989753421E+01  0.37196666311E+02  0.70170455089E+02  0.79862554047E+02  0.00000000000E+00 0.  1.
         13    1    3    3    0    0 -0.73310733437E+01 -0.52889147486E+02  0.16360690082E+03  0.17209946123E+03  0.00000000000E+00 0. -1.
          1    1    1    2  501    0 -0.13253537153E+03  0.32637493186E+02 -0.99975576961E+03  0.10090304403E+04  0.00000000000E+00 0. -1.
<scales pt_clust_5="13000.00000" pt_clust_6="13000.00000" pt_clust_7="13000.00000" pt_clust_8="13000.00000" pt_clust_9="136.28747"></scales>
<clustering>
<clus scale="   92.298">  5  6 -1 -1</clus>
<clus scale="   92.659">  7  8 -1 -1</clus>
<clus scale="   93.984">  1  7  2 -1</clus>
<clus scale="  136.287">  2  9  1 -1</clus>
<clus scale="  136.287">  2  5  1 -1</clus>
</clustering>
</event>
<event>
 9    1  0.1426358E-005  0.9498540E+02  0.7546771E-02  0.1291559E+00
          3   -1    0    0  502    0 -0.00000000000E+00  0.00000000000E+00  0.10107717150E+03  0.10107717150E+03  0.00000000000E+00 0. -1.
         21   -1    0    0  501  502  0.00000000000E+00 -0.00000000000E+00 -0.17089982600E+03  0.17089982600E+03  0.00000000000E+00 0.  1.
         23    2    1    2    0    0  0.22178733761E+02 -0.58294282697E+00 -0.29314510419E+02  0.98184718123E+02  0.91042090805E+02 0.  0.
         23    2    1    2    0    0  0.11969837386E+02 -0.51741087438E+02 -0.32337969137E+02  0.11077894101E+03  0.91683217583E+02 0.  0.
        -11    1    3    3    0    0  0.52087772861E+02 -0.14847419334E+02 -0.33461608473E+00  0.54163584726E+02  0.00000000000E+00 0.  1.
         11    1    3    3    0    0 -0.29909039100E+02  0.14264476507E+02 -0.28979894335E+02  0.44021133397E+02  0.00000000000E+00 0. -1.
        -13    1    4    4    0    0  0.32885549532E+02  0.69117369188E+00  0.15892378139E+02  0.36530874230E+02  0.00000000000E+00 0.  1.
         13    1    4    4    0    0 -0.20915712146E+02 -0.52432261130E+02 -0.48230347276E+02  0.74248066777E+02  0.00000000000E+00 0. -1.
          3    1    1    2  501    0 -0.34148571147E+02  0.52324030265E+02 -0.81701749441E+01  0.63013338375E+02  0.00000000000E+00 0. -1.
<scales pt_clust_5="13000.00000" pt_clust_6="13000.00000" pt_clust_7="13000.00000" pt_clust_8="13000.00000" pt_clust_9="62.48146"></scales>
<clustering>
<clus scale="   62.481">  2  9  1 -1</clus>
<clus scale="   91.042">  5  6 -1 -1</clus>
<clus scale="   91.683">  7  8 -1 -1</clus>
<clus scale="   94.367">  1  5  2 -1</clus>
<clus scale="   62.481">  2  5  1 -1</clus>
</clustering>
</event>
<event>
 9    1  0.1426358E-005  0.1293732E+03  0.7546771E-02  0.1228779E+00
         21   -1    0    0  501  502  0.00000000000E+00  0.00000000000E+00  0.78895808322E+02  0.78895808322E+02  0.00000000000E+00 0.  1.
          2   -1    0    0  502    0 -0.00000000000E+00 -0.00000000000E+00 -0.84255500939E+03  0.84255500939E+03  0.00000000000E+00 0. -1.
         23    2    1    2    0    0  0.83051177909E+02  0.39734662494E+01 -0.40232825513E+03  0.42046375289E+03  0.89489977285E+02 0.  0.
         23    2    1    2    0    0 -0.10560960853E+03 -0.92772911228E+01 -0.41781068152E+03  0.43993811821E+03  0.87979115200E+02 0.  0.
        -11    1    4    4    0    0 -0.80378455956E+02  0.23834465636E+02 -0.35367862309E+03  0.36347949924E+03  0.00000000000E+00 0.  1.
         11    1    4    4    0    0 -0.25231152573E+02 -0.33111756759E+02 -0.64132058430E+02  0.76458618966E+02  0.00000000000E+00 0. -1.
        -13    1    3    3    0    0  0.33874990438E+02 -0.37722259576E+02 -0.11017185273E+03  0.12127786682E+03  0.00000000000E+00 0.  1.
         13    1    3    3    0    0  0.49176187472E+02  0.41695725826E+02 -0.29215640239E+03  0.29918588607E+03  0.00000000000E+00 0. -1.
          2    1    1    2  501    0  0.22558430620E+02  0.53038248735E+01  0.56479735587E+02  0.61048946611E+02  0.00000000000E+00 0. -1.
<scales pt_clust_5="13000.00000" pt_clust_6="13000.00000" pt_clust_7="13000.00000" pt_clust_8="13000.00000" pt_clust_9="23.17355"></scales>
<clustering>
<clus scale="   23.174">  1  9  2 -1</clus>
<clus scale="   87.979">  5  6 -1 -1</clus>
<clus scale="   89.490">  7  8 -1 -1</clus>
<clus scale="  128.333">  1  5  2 -1</clus>
<clus scale="   23.174">  1  5  2 -1</clus>
</clustering>
</event>
<event>
 9    1  0.1426358E-005  0.1016130E+03  0.7546771E-02  0.1279768E+00
         21   -1    0    0  501  502  0.00000000000E+00  0.00000000000E+00  0.15796653909E+02  0.15796653909E+02  0.00000000000E+00 0.  1.
          1   -1    0    0  502    0 -0.00000000000E+00 -0.00000000000E+00 -0.94013386171E+03  0.94013386171E+03  0.00000000000E+00 0. -1.
         23    2    1    2    0    0  0.49610518978E+02  0.11528188795E+02 -0.51636396092E+03  0.52672991970E+03  0.90656303922E+02 0.  0.
         23    2    1    2    0    0 -0.40247148568E+02  0.23831159451E+02 -0.30032097236E+03  0.31550376912E+03  0.84629691971E+02 0.  0.
        -13    1    3    3    0    0 -0.18128307873E+02  0.28135296698E+02 -0.13881357510E+03  0.14279159323E+03  0.00000000000E+00 0.  1.
         13    1    3    3    0    0  0.67738826851E+02 -0.16607107903E+02 -0.37755038582E+03  0.38393832647E+03  0.00000000000E+00 0. -1.
        -13    1    4    4    0    0 -0.63730150239E+02  0.19463475270E+02 -0.16256216017E+03  0.17568954106E+03  0.00000000000E+00 0.  1.
         13    1    4    4    0    0  0.23483001672E+02  0.43676841814E+01 -0.13775881219E+03  0.13981422806E+03  0.00000000000E+00 0. -1.
          1    1    1    2  501    0 -0.93633704103E+01 -0.35359348246E+02 -0.10765227452E+03  0.11369682679E+03  0.00000000000E+00 0. -1.
<scales pt_clust_5="13000.00000" pt_clust_6="13000.00000" pt_clust_7="13000.00000" pt_clust_8="13000.00000" pt_clust_9="36.57808"></scales>
<clustering>
<clus scale="   36.578">  1  9  2 -1</clus>
<clus scale="   84.630">  7  8 -1 -1</clus>
<clus scale="   90.656">  5  6 -1 -1</clus>
<clus scale="   96.275">  1  7  2 -1</clus>
<clus scale="   36.578">  1  5  2 -1</clus>
</clustering>
</event>
<event>
 9    1  0.1426358E-005  0.1138592E+03  0.7546771E-02  0.1254530E+00
         21   -1    0    0  501  502  0.00000000000E+00  0.00000000000E+00  0.16367771180E+03  0.16367771180E+03  0.00000000000E+00 0. -1.
          3   -1    0    0  502    0 -0.00000000000E+00 -0.00000000000E+00 -0.17257938572E+03  0.17257938572E+03  0.00000000000E+00 0. -1.
         23    2    1    2    0    0 -0.81280889916E+02 -0.77131677065E+01 -0.74707639830E+02  0.14468414877E+03  0.93199760915E+02 0.  0.
         23    2    1    2    0    0  0.37897663271E+02  0.31218010482E+02 -0.73696889745E+01  0.10331617305E+03  0.90604206519E+02 0.  0.
        -11    1    3    3    0    0 -0.41535111690E+02 -0.26621572005E+02  0.89640360472E+01  0.50142073565E+02  0.00000000000E+00 0.  1.
         11    1    3    3    0    0 -0.39745778225E+02  0.18908404298E+02 -0.83671675877E+02  0.94542075204E+02  0.00000000000E+00 0. -1.
        -11    1    4    4    0    0 -0.27632200203E+02 -0.29996954423E+01 -0.94616341832E+01  0.29360844372E+02  0.00000000000E+00 0. -1.
         11    1    4    4    0    0  0.65529863474E+02  0.34217705924E+02  0.20919452087E+01  0.73955328681E+02  0.00000000000E+00 0.  1.
          3    1    1    2  501    0  0.43383226645E+02 -0.23504842775E+02  0.73175654884E+02  0.88256775693E+02  0.00000000000E+00 0. -1.
<scales pt_clust_5="13000.00000" pt_clust_6="13000.00000" pt_clust_7="13000.00000" pt_clust_8="13000.00000" pt_clust_9="49.34148"></scales>
<clustering>
<clus scale="   49.341">  1  9  2 -1</clus>
<clus scale="   90.604">  7  8 -1 -1</clus>
<clus scale="   93.200">  5  6 -1 -1</clus>
<clus scale="  111.745">  1  7  2 -1</clus>
<clus scale="   49.341">  1  5  2 -1</clus>
</clustering>
</event>
<event>
 9    1  0.1426358E-005  0.9250323E+02  0.7546771E-02  0.1299925E+00
         21   -1    0    0  501  502  0.00000000000E+00  0.00000000000E+00  0.13413241731E+03  0.13413241731E+03  0.00000000000E+00 0.  1.
          2   -1    0    0  502    0 -0.00000000000E+00 -0.00000000000E+00 -0.14787816830E+03  0.14787816830E+03  0.00000000000E+00 0. -1.
         23    2    1    2    0    0  0.11648743862E+01  0.79516144885E+01 -0.86755377851E+02  0.12634352873E+03  0.91496483873E+02 0.  0.
         23    2    1    2    0    0  0.57981058669E+01 -0.28631452224E+02  0.13403439708E+02  0.92192366423E+02  0.86408345329E+02 0.  0.
        -11    1    3    3    0    0  0.15328868269E+02  0.41538447065E+02 -0.76647156082E+02  0.88516683865E+02  0.00000000000E+00 0. -1.
         11    1    3    3    0    0 -0.14163993883E+02 -0.33586832577E+02 -0.10108221769E+02  0.37826844867E+02  0.00000000000E+00 0.  1.
        -13    1    4    4    0    0  0.14265057043E+02 -0.58460140709E+02  0.99702443518E+01  0.60995784089E+02  0.00000000000E+00 0.  1.
         13    1    4    4    0    0 -0.84669511759E+01  0.29828688485E+02  0.34331953564E+01  0.31196582334E+02  0.00000000000E+00 0. -1.
          2    1    1    2  501    0 -0.69629802531E+01  0.20679837735E+02  0.59606187148E+02  0.63474690461E+02  0.00000000000E+00 0. -1.
<scales pt_clust_5="13000.00000" pt_clust_6="13000.00000" pt_clust_7="13000.00000" pt_clust_8="13000.00000" pt_clust_9="21.82060"></scales>
<clustering>
<clus scale="   21.821">  1  9  2 -1</clus>
<clus scale="   86.408">  7  8 -1 -1</clus>
<clus scale="   87.474">  1  7  2 -1</clus>
<clus scale="   91.496">  5  6 -1 -1</clus>
<clus scale="   21.821">  1  5  2 -1</clus>
</clustering>
</event>
<event>
 9    1  0.1426358E-005  0.1637661E+03  0.7546771E-02  0.1208763E+00
         -3   -1    0    0    0  501 -0.00000000000E+00  0.00000000000E+00  0.14855254877E+03  0.14855254877E+03  0.00000000000E+00 0.  1.
         21   -1    0    0  501  502  0.00000000000E+00 -0.00000000000E+00 -0.27234953733E+03  0.27234953733E+03  0.00000000000E+00 0.  1.
         23    2    1    2    0    0 -0.27770517360E+02 -0.18256075595E+02 -0.38751391393E+02  0.10390416617E+03  0.90498173910E+02 0.  0.
         23    2    1    2    0    0 -0.54094951797E+02 -0.10474229965E+03 -0.49348060643E+01  0.14892563131E+03  0.90869566985E+02 0.  0.
        -13    1    4    4    0    0  0.22351274753E+02 -0.62067279132E+01  0.52958902231E+01  0.23793894337E+02  0.00000000000E+00 0. -1.
         13    1    4    4    0    0 -0.76446226550E+02 -0.98535571736E+02 -0.10230696287E+02  0.12513173697E+03  0.00000000000E+00 0.  1.
        -13    1    3    3    0    0 -0.30710892001E+02 -0.51846178659E+02 -0.35717385061E+02  0.70049387754E+02  0.00000000000E+00 0.  1.
         13    1    3    3    0    0  0.29403746406E+01  0.33590103065E+02 -0.30340063328E+01  0.33854778412E+02  0.00000000000E+00 0. -1.
         -3    1    1    2    0  502  0.81865469157E+02  0.12299837524E+03 -0.80110791105E+02  0.16807228863E+03  0.00000000000E+00 0.  1.
<scales pt_clust_5="13000.00000" pt_clust_6="13000.00000" pt_clust_7="13000.00000" pt_clust_8="13000.00000" pt_clust_9="136.24260"></scales>
<clustering>
<clus scale="   90.498">  7  8 -1 -1</clus>
<clus scale="   90.870">  5  6 -1 -1</clus>
<clus scale="   96.408">  1  7  2 -1</clus>
<clus scale="  136.243">  2  9  1 -1</clus>
<clus scale="  136.243">  2  5  1 -1</clus>
</clustering>
</event>
<event>
 9    1  0.1426358E-005  0.9596878E+02  0.7546771E-02  0.1289016E+00
         21   -1    0    0  501  502  0.00000000000E+00  0.00000000000E+00  0.13694222764E+03  0.13694222764E+03  0.00000000000E+00 0.  1.
          1   -1    0    0  502    0 -0.00000000000E+00 -0.00000000000E+00 -0.12631790224E+03  0.12631790224E+03  0.00000000000E+00 0. -1.
         23    2    1    2    0    0 -0.37220122744E+01  0.29239359156E+02 -0.39713161342E+02  0.10375327424E+03  0.91207528373E+02 0.  0.
         23    2    1    2    0    0 -0.43285307145E+02 -0.24208942333E+02  0.30325515861E+02  0.10817000580E+03  0.91221831487E+02 0.  0.
        -11    1    4    4    0    0 -0.36996357658E+02 -0.52587066634E+02 -0.24736134167E+01  0.64344765292E+02  0.00000000000E+00 0. -1.
         11    1    4    4    0    0 -0.62889494866E+01  0.28378124301E+02  0.32799129278E+02  0.43825240511E+02  0.00000000000E+00 0.  1.
        -13    1    3    3    0    0 -0.41909750511E+02  0.80633480224E+01 -0.42196575409E+02  0.60016628909E+02  0.00000000000E+00 0. -1.
         13    1    3    3    0    0  0.38187738237E+02  0.21176011134E+02  0.24834140672E+01  0.43736645329E+02  0.00000000000E+00 0.  1.
          1    1    1    2  501    0  0.47007319419E+02 -0.50304168232E+01  0.20011970882E+02  0.51336849835E+02  0.00000000000E+00 0. -1.
<scales pt_clust_5="13000.00000" pt_clust_6="13000.00000" pt_clust_7="13000.00000" pt_clust_8="13000.00000" pt_clust_9="47.27571"></scales>
<clustering>
<clus scale="   47.276">  1  9  2 -1</clus>
<clus scale="   91.208">  7  8 -1 -1</clus>
<clus scale="   91.222">  5  6 -1 -1</clus>
<clus scale="   95.955">  2  7  1 -1</clus>
<clus scale="   47.276">  1  5  2 -1</clus>
</clustering>
</event>
<event>
 9    1  0.1426358E-005  0.1043706E+03  0.7546771E-02  0.1271832E+00
         21   -1    0    0  501  502  0.00000000000E+00  0.00000000000E+00  0.55083147729E+02  0.55083147729E+02  0.00000000000E+00 0. -1.
          2   -1    0    0  502    0 -0.00000000000E+00 -0.00000000000E+00 -0.33314399027E+03  0.33314399027E+03  0.00000000000E+00 0. -1.
         23    2    1    2    0    0  0.25643682421E+02  0.54517784348E+02 -0.17928044045E+03  0.20990628530E+03  0.91046059884E+02 0.  0.
         23    2    1    2    0    0  0.77982751417E+01 -0.43372395387E+02 -0.10194197766E+03  0.14292904883E+03  0.89969819465E+02 0.  0.
        -11    1    4    4    0    0  0.18142036793E+02  0.24810308289E+02 -0.38101056306E+02  0.48952787337E+02  0.00000000000E+00 0. -1.
         11    1    4    4    0    0 -0.10343761652E+02 -0.68182703676E+02 -0.63840921350E+02  0.93976261495E+02  0.00000000000E+00 0.  1.
        -13    1    3    3    0    0  0.21451124269E+02 -0.11365747948E+02 -0.67804408196E+01  0.25205264064E+02  0.00000000000E+00 0.  1.
         13    1    3    3    0    0  0.41925581524E+01  0.65883532295E+02 -0.17249999963E+03  0.18470102124E+03  0.00000000000E+00 0. -1.
          2    1    1    2  501    0 -0.33441957563E+02 -0.11145388960E+02  0.31615755724E+01  0.35391803865E+02  0.00000000000E+00 0. -1.
<scales pt_clust_5="13000.00000" pt_clust_6="13000.00000" pt_clust_7="13000.00000" pt_clust_8="13000.00000" pt_clust_9="35.25031"></scales>
<clustering>
<clus scale="   35.250">  1  9  2 -1</clus>
<clus scale="   89.970">  5  6 -1 -1</clus>
<clus scale="   91.046">  7  8 -1 -1</clus>
<clus scale="  103.433">  1  5  2 -1</clus>
<clus scale="   35.250">  1  5  2 -1</clus>
</clustering>
</event>
<event>
 9    1  0.1426358E-005  0.2277420E+03  0.7546771E-02  0.1128291E+00
          1   -1    0    0  502    0 -0.00000000000E+00  0.00000000000E+00  0.69695789157E+03  0.69695789157E+03  0.00000000000E+00 0. -1.
         21   -1    0    0  501  502  0.00000000000E+00 -0.00000000000E+00 -0.10102867541E+03  0.10102867541E+03  0.00000000000E+00 0.  1.
         23    2    1    2    0    0  0.10347452931E+03 -0.15930788257E+03  0.25159603274E+03  0.32784487453E+03  0.89976210189E+02 0.  0.
         23    2    1    2    0    0 -0.16412823026E+03  0.16516067814E+03  0.31621201167E+03  0.40303038971E+03  0.90704647796E+02 0.  0.
        -11    1    4    4    0    0 -0.92657359454E+02  0.15022051469E+03  0.21346368675E+03  0.27698074817E+03  0.00000000000E+00 0.  1.
         11    1    4    4    0    0 -0.71470870811E+02  0.14940163443E+02  0.10274832492E+03  0.12604964154E+03  0.00000000000E+00 0. -1.
        -13    1    3    3    0    0  0.14551740301E+01 -0.80697721796E+02  0.84186957323E+02  0.11662625613E+03  0.00000000000E+00 0.  1.
         13    1    3    3    0    0  0.10201935528E+03 -0.78610160776E+02  0.16740907542E+03  0.21121861841E+03  0.00000000000E+00 0. -1.
          1    1    1    2  501    0  0.60653700953E+02 -0.58527955653E+01  0.28121171745E+02  0.67111302741E+02  0.00000000000E+00 0. -1.
<scales pt_clust_5="13000.00000" pt_clust_6="13000.00000" pt_clust_7="13000.00000" pt_clust_8="13000.00000" pt_clust_9="60.93543"></scales>
<clustering>
<clus scale="   60.935">  2  9  1 -1</clus>
<clus scale="   89.976">  7  8 -1 -1</clus>
<clus scale="   90.705">  5  6 -1 -1</clus>
<clus scale="  227.453">  1  7  2 -1</clus>
<clus scale="   60.935">  2  5  1 -1</clus>
</clustering>
</event>
<event>
 9    1  0.1426358E-005  0.1062557E+03  0.7546771E-02  0.1268049E+00
          1   -1    0    0  502    0 -0.00000000000E+00  0.00000000000E+00  0.11454116587E+03  0.11454116587E+03  0.00000000000E+00 0. -1.
         21   -1    0    0  501  502  0.00000000000E+00 -0.00000000000E+00 -0.13116106873E+03  0.13116106873E+03  0.00000000000E+00 0. -1.
         23    2    1    2    0    0  0.14456738458E+01  0.55927465282E+02  0.19619249857E+02  0.10666938045E+03  0.88676211104E+02 0.  0.
         23    2    1    2    0    0  0.22464462606E+02 -0.61331547789E+02 -0.25721923462E+02  0.11235869354E+03  0.87730541044E+02 0.  0.
        -11    1    3    3    0    0 -0.42199341051E+02  0.39379209348E+02  0.15766003876E+02  0.59833714511E+02  0.00000000000E+00 0.  1.
         11    1    3    3    0    0  0.43645014896E+02  0.16548255934E+02  0.38532459804E+01  0.46835665943E+02  0.00000000000E+00 0. -1.
        -13    1    4    4    0    0  0.25342658419E+02  0.84377763397E+01  0.15882208698E+02  0.31075568513E+02  0.00000000000E+00 0.  1.
         13    1    4    4    0    0 -0.28781958129E+01 -0.69769324129E+02 -0.41604132160E+02  0.81283125022E+02  0.00000000000E+00 0. -1.
          1    1    1    2  501    0 -0.23910136451E+02  0.54040825073E+01 -0.10517229252E+02  0.26674160606E+02  0.00000000000E+00 0. -1.
<scales pt_clust_5="13000.00000" pt_clust_6="13000.00000" pt_clust_7="13000.00000" pt_clust_8="13000.00000" pt_clust_9="24.51324"></scales>
<clustering>
<clus scale="   24.513">  2  9  1 -1</clus>
<clus scale="   87.731">  7  8 -1 -1</clus>
<clus scale="   88.676">  5  6 -1 -1</clus>
<clus scale="  105.468">  2  7  1 -1</clus>
<clus scale="   24.513">  2  5  1 -1</clus>
</clustering>
</event>
<event>
 9    1  0.1426358E-005  0.1619769E+03  0.7546771E-02  0.1206980E+00
         21   -1    0    0  501  502  0.00000000000E+00  0.00000000000E+00  0.21741314701E+03  0.21741314701E+03  0.00000000000E+00 0.  1.
          2   -1    0    0  502    0 -0.00000000000E+00 -0.00000000000E+00 -0.19806669306E+03  0.19806669306E+03  0.00000000000E+00 0. -1.
         23    2    1    2    0    0 -0.43806467131E+02  0.50980394157E+01 -0.34417039296E+02  0.10908894926E+03  0.93652921412E+02 0.  0.
         23    2    1    2    0    0  0.15083991181E+03 -0.39937434249E+02  0.68756721995E+02  0.19283588819E+03  0.90058399415E+02 0.  0.
        -13    1    4    4    0    0  0.48756633782E+02 -0.36542985175E+02 -0.12641771120E+02  0.62228719095E+02  0.00000000000E+00 0. -1.
         13    1    4    4    0    0  0.10208327803E+03 -0.33944490746E+01  0.81398493115E+02  0.13060716910E+03  0.00000000000E+00 0.  1.
        -13    1    3    3    0    0 -0.89982488379E+01  0.47655604038E+02 -0.14615001884E+02  0.50651982769E+02  0.00000000000E+00 0. -1.
         13    1    3    3    0    0 -0.34808218293E+02 -0.42557564622E+02 -0.19802037412E+02  0.58436966494E+02  0.00000000000E+00 0.  1.
          2    1    1    2  501    0 -0.10703344468E+03  0.34839394834E+02 -0.14993228748E+02  0.11355500262E+03  0.00000000000E+00 0. -1.
<scales pt_clust_5="13000.00000" pt_clust_6="13000.00000" pt_clust_7="13000.00000" pt_clust_8="13000.00000" pt_clust_9="134.63292"></scales>
<clustering>
<clus scale="   90.058">  5  6 -1 -1</clus>
<clus scale="   93.653">  7  8 -1 -1</clus>
<clus scale="  103.517">  2  7  1 -1</clus>
<clus scale="  134.633">  1  9  2 -1</clus>
<clus scale="  134.633">  1  5  2 -1</clus>
</clustering>
</event>
<event>
 9    1  0.1426358E-005  0.4590141E+03  0.7546771E-02  0.1045536E+00
          2   -1    0    0  502    0 -0.00000000000E+00  0.00000000000E+00  0.82318572601E+03  0.82318572601E+03  0.00000000000E+00 0. -1.
         21   -1    0    0  501  502  0.00000000000E+00 -0.00000000000E+00 -0.10766137661E+04  0.10766137661E+04  0.00000000000E+00 0. -1.
         23    2    1    2    0    0 -0.23070083982E+03 -0.41827782404E+02 -0.38575173498E+03  0.46057132475E+03  0.91373427571E+02 0.  0.
         23    2    1    2    0    0 -0.24334309163E+03  0.77566448860E+02  0.66907147879E+03  0.72222531888E+03  0.93382831757E+02 0.  0.
        -11    1    3    3    0    0 -0.21762740462E+02  0.17908407107E+02 -0.18090668264E+02  0.33490300025E+02  0.00000000000E+00 0.  1.
         11    1    3    3    0    0 -0.20893809936E+03 -0.59736189511E+02 -0.36766106671E+03  0.42708102472E+03  0.00000000000E+00 0. -1.
        -13    1    4    4    0    0 -0.18634238737E+03  0.93068359221E+02  0.57018512985E+03  0.60703895024E+03  0.00000000000E+00 0. -1.
         13    1    4    4    0    0 -0.57000704268E+02 -0.15501910360E+02  0.98886348942E+02  0.11518636863E+03  0.00000000000E+00 0.  1.
          2    1    1    2  501    0  0.47404393146E+03 -0.35738666456E+02 -0.53674778391E+03  0.71700284850E+03  0.00000000000E+00 0. -1.
<scales pt_clust_5="13000.00000" pt_clust_6="13000.00000" pt_clust_7="13000.00000" pt_clust_8="13000.00000" pt_clust_9="449.41471"></scales>
<clustering>
<clus scale="   91.373">  5  6 -1 -1</clus>
<clus scale="   93.383">  7  8 -1 -1</clus>
<clus scale="  251.638">  1  5  2 -1</clus>
<clus scale="  449.415">  2  9  1 -1</clus>
<clus scale="  449.415">  2  5  1 -1</clus>
</clustering>
</event>
<event>
 9    1  0.1426358E-005  0.1257031E+03  0.7546771E-02  0.1236230E+00
          1   -1    0    0  502    0 -0.00000000000E+00  0.00000000000E+00  0.41912374654E+02  0.41912374654E+02  0.00000000000E+00 0. -1.
         21   -1    0    0  501  502  0.00000000000E+00 -0.00000000000E+00 -0.78565560371E+03  0.78565560371E+03  0.00000000000E+00 0.  1.
         23    2    1    2    0    0  0.45070823787E+02 -0.75914083083E+02 -0.83485992832E+02  0.14809079245E+03  0.84656037250E+02 0.  0.
         23    2    1    2    0    0 -0.65354123878E+02  0.42042557772E+02 -0.51029584841E+03  0.52440587869E+03  0.92525318286E+02 0.  0.
        -11    1    3    3    0    0 -0.13571831977E+02 -0.51528820969E+02 -0.60323811832E+02  0.80488361194E+02  0.00000000000E+00 0.  1.
         11    1    3    3    0    0  0.58642655764E+02 -0.24385262113E+02 -0.23162181000E+02  0.67602431258E+02  0.00000000000E+00 0. -1.
        -13    1    4    4    0    0  0.23152457088E+02  0.14401796273E+01 -0.11232182534E+03  0.11469220913E+03  0.00000000000E+00 0. -1.
         13    1    4    4    0    0 -0.88506580966E+02  0.40602378145E+02 -0.39797402307E+03  0.40971366956E+03  0.00000000000E+00 0.  1.
          1    1    1    2  501    0  0.20283300091E+02  0.33871525311E+02 -0.14996138782E+03  0.15507130723E+03  0.00000000000E+00 0. -1.
<scales pt_clust_5="13000.00000" pt_clust_6="13000.00000" pt_clust_7="13000.00000" pt_clust_8="13000.00000" pt_clust_9="39.48028"></scales>
<clustering>
<clus scale="   39.480">  2  9  1 -1</clus>
<clus scale="   84.656">  5  6 -1 -1</clus>
<clus scale="   92.525">  7  8 -1 -1</clus>
<clus scale="  120.029">  1  5  2 -1</clus>
<clus scale="   39.480">  2  5  1 -1</clus>
</clustering>
</event>
<event>
 9    1  0.1426358E-005  0.1709485E+03  0.7546771E-02  0.1177127E+00
          2   -1    0    0  502    0 -0.00000000000E+00  0.00000000000E+00  0.25212541066E+03  0.25212541066E+03  0.00000000000E+00 0. -1.
         21   -1    0    0  501  502  0.00000000000E+00 -0.00000000000E+00 -0.21533160163E+03  0.21533160163E+03  0.00000000000E+00 0. -1.
         23    2    1    2    0    0  0.87292786932E+02  0.12949992797E+03  0.12940675129E+03  0.22315682577E+03  0.93073087491E+02 0.  0.
         23    2    1    2    0    0 -0.80359600894E+02 -0.91773310247E+02 -0.93016197456E+01  0.15258244989E+03  0.91185952620E+02 0.  0.
        -11    1    4    4    0    0 -0.98302163358E+02 -0.78438512222E+02 -0.20757580839E+02  0.12746290709E+03  0.00000000000E+00 0. -1.
         11    1    4    4    0    0  0.17942562464E+02 -0.13334798025E+02  0.11455961094E+02  0.25119542805E+02  0.00000000000E+00 0.  1.
        -13    1    3    3    0    0 -0.17331142439E+02  0.36996674435E+02  0.40957680038E+02  0.57850272010E+02  0.00000000000E+00 0.  1.
         13    1    3    3    0    0  0.10462392937E+03  0.92503253537E+02  0.88449071247E+02  0.16530655376E+03  0.00000000000E+00 0. -1.
          2    1    1    2  501    0 -0.69331860381E+01 -0.37726617726E+02 -0.83311322513E+02  0.91717736630E+02  0.00000000000E+00 0. -1.
<scales pt_clust_5="13000.00000" pt_clust_6="13000.00000" pt_clust_7="13000.00000" pt_clust_8="13000.00000" pt_clust_9="38.35840"></scales>
<clustering>
<clus scale="   38.358">  2  9  1 -1</clus>
<clus scale="   91.186">  5  6 -1 -1</clus>
<clus scale="   93.073">  7  8 -1 -1</clus>
<clus scale="  169.928">  2  5  1 -1</clus>
<clus scale="   38.358">  2  5  1 -1</clus>
</clustering>
</event>
<event>
 9    1  0.1426358E-005  0.1016951E+03  0.7546771E-02  0.1278339E+00
         21   -1    0    0  501  502  0.00000000000E+00  0.00000000000E+00  0.11857474831E+03  0.11857474831E+03  0.00000000000E+00 0. -1.
         -1   -1    0    0    0  501 -0.00000000000E+00 -0.00000000000E+00 -0.18205594737E+03  0.18205594737E+03  0.00000000000E+00 0.  1.
         23    2    1    2    0    0 -0.63109377609E+01 -0.39945891112E+02 -0.12064883164E+03  0.15665392887E+03  0.91371826631E+02 0.  0.
         23    2    1    2    0    0 -0.11379693738E+02  0.28076257522E+02  0.20291332595E+02  0.10138911432E+03  0.94605711552E+02 0.  0.
        -11    1    4    4    0    0  0.76391118315E+00  0.62630114677E+02  0.14732043495E+02  0.64343981306E+02  0.00000000000E+00 0. -1.
         11    1    4    4    0    0 -0.12143604921E+02 -0.34553857155E+02  0.55592890991E+01  0.37045133015E+02  0.00000000000E+00 0.  1.
        -13    1    3    3    0    0  0.22845915998E+02  0.72610770232E+01 -0.90265457057E+02  0.93394388777E+02  0.00000000000E+00 0. -1.
         13    1    3    3    0    0 -0.29156853759E+02 -0.47206968136E+02 -0.30383374585E+02  0.63259540094E+02  0.00000000000E+00 0.  1.
         -1    1    1    2    0  502  0.17690631499E+02  0.11869633590E+02  0.36876299985E+02  0.42587652494E+02  0.00000000000E+00 0.  1.
<scales pt_clust_5="13000.00000" pt_clust_6="13000.00000" pt_clust_7="13000.00000" pt_clust_8="13000.00000" pt_clust_9="21.30368"></scales>
<clustering>
<clus scale="   21.304">  1  9  2 -1</clus>
<clus scale="   91.372">  7  8 -1 -1</clus>
<clus scale="   94.606">  5  6 -1 -1</clus>
<clus scale="   98.694">  2  7  1 -1</clus>
<clus scale="   21.304">  1  5  2 -1</clus>
</clustering>
</event>
<event>
 9    1  0.1426358E-005  0.1035781E+03  0.7546771E-02  0.1274020E+00
          3   -1    0    0  502    0 -0.00000000000E+00  0.00000000000E+00  0.62826713760E+02  0.62826713760E+02  0.00000000000E+00 0. -1.
         21   -1    0    0  501  502  0.00000000000E+00 -0.00000000000E+00 -0.33979552535E+03  0.33979552535E+03  0.00000000000E+00 0. -1.
         23    2    1    2    0    0  0.28312374158E+02 -0.35916234067E+02 -0.23006664716E+02  0.10644414352E+03  0.93324609120E+02 0.  0.
         23    2    1    2    0    0 -0.44477357755E+02  0.17320586486E+02 -0.11154520564E+03  0.15164543509E+03  0.90971242773E+02 0.  0.
        -13    1    3    3    0    0 -0.27731598390E+02  0.62610279732E+01  0.83240590679E+01  0.29623166271E+02  0.00000000000E+00 0. -1.
         13    1    3    3    0    0  0.56043972548E+02 -0.42177262040E+02 -0.31330723784E+02  0.76820977245E+02  0.00000000000E+00 0.  1.
        -13    1    4    4    0    0 -0.61806880112E+02 -0.15642066295E+02 -0.83336773454E+02  0.10492751058E+03  0.00000000000E+00 0. -1.
         13    1    4    4    0    0  0.17329522357E+02  0.32962652781E+02 -0.28208432187E+02  0.46717924504E+02  0.00000000000E+00 0.  1.
          3    1    1    2  501    0  0.16164983597E+02  0.18595647581E+02 -0.14241694123E+03  0.14453266051E+03  0.00000000000E+00 0. -1.
<scales pt_clust_5="13000.00000" pt_clust_6="13000.00000" pt_clust_7="13000.00000" pt_clust_8="13000.00000" pt_clust_9="24.63950"></scales>
<clustering>
<clus scale="   24.639">  2  9  1 -1</clus>
<clus scale="   90.971">  7  8 -1 -1</clus>
<clus scale="   93.325">  5  6 -1 -1</clus>
<clus scale="  101.463">  2  7  1 -1</clus>
<clus scale="   24.639">  2  5  1 -1</clus>
</clustering>
</event>
<event>
 9    1  0.1426358E-005  0.1107380E+03  0.7546771E-02  0.1259483E+00
         -1   -1    0    0    0  501 -0.00000000000E+00  0.00000000000E+00  0.33360823538E+03  0.33360823538E+03  0.00000000000E+00 0.  1.
         21   -1    0    0  501  502  0.00000000000E+00 -0.00000000000E+00 -0.30885093127E+03  0.30885093127E+03  0.00000000000E+00 0.  1.
         23    2    1    2    0    0 -0.54444072107E+02 -0.11600637358E+02  0.22842782129E+03  0.25227860941E+03  0.91468548983E+02 0.  0.
         23    2    1    2    0    0  0.88047468220E+02  0.21763057750E+01  0.48622234587E+02  0.13548536913E+03  0.90747289679E+02 0.  0.
        -13    1    4    4    0    0  0.28153407227E+02 -0.25247998679E+02  0.57700636900E+02  0.68988689468E+02  0.00000000000E+00 0.  1.
         13    1    4    4    0    0  0.59894060993E+02  0.27424304454E+02 -0.90784023132E+01  0.66496679658E+02  0.00000000000E+00 0. -1.
        -13    1    3    3    0    0 -0.31054500565E+02 -0.39816282209E+02  0.19891294164E+03  0.20522201804E+03  0.00000000000E+00 0.  1.
         13    1    3    3    0    0 -0.23389571542E+02  0.28215644851E+02  0.29514879648E+02  0.47056591376E+02  0.00000000000E+00 0. -1.
         -1    1    1    2    0  502 -0.33603396113E+02  0.94243315830E+01 -0.25229275176E+03  0.25469518811E+03  0.00000000000E+00 0.  1.
<scales pt_clust_5="13000.00000" pt_clust_6="13000.00000" pt_clust_7="13000.00000" pt_clust_8="13000.00000" pt_clust_9="34.89995"></scales>
<clustering>
<clus scale="   34.900">  2  9  1 -1</clus>
<clus scale="   90.747">  5  6 -1 -1</clus>
<clus scale="   91.469">  7  8 -1 -1</clus>
<clus scale="  110.143">  2  5  1 -1</clus>
<clus scale="   34.900">  2  5  1 -1</clus>
</clustering>
</event>
<event>
 9    1  0.1426358E-005  0.9935171E+02  0.7546771E-02  0.1282038E+00
         21   -1    0    0  501  502  0.00000000000E+00  0.00000000000E+00  0.48898906496E+03  0.48898906496E+03  0.00000000000E+00 0.  1.
         -2   -1    0    0    0  501 -0.00000000000E+00 -0.00000000000E+00 -0.46639111858E+02  0.46639111858E+02  0.00000000000E+00 0.  1.
         23    2    1    2    0    0 -0.42260253412E+02  0.13690779853E+02  0.46931624725E+02  0.11058886317E+03  0.89743817534E+02 0.  0.
         23    2    1    2    0    0  0.37411763042E+02  0.20918016415E+02  0.17304221736E+03  0.19993397967E+03  0.90513997875E+02 0.  0.
        -11    1    4    4    0    0 -0.38699627960E+01 -0.30455290365E+02  0.81864324011E+02  0.87431509589E+02  0.00000000000E+00 0. -1.
         11    1    4    4    0    0  0.41281725838E+02  0.51373306780E+02  0.91177893349E+02  0.11250247008E+03  0.00000000000E+00 0.  1.
        -11    1    3    3    0    0  0.60960415063E+01  0.42647074775E+02  0.26810689753E+02  0.50741972704E+02  0.00000000000E+00 0. -1.
         11    1    3    3    0    0 -0.48356294918E+02 -0.28956294922E+02  0.20120934972E+02  0.59846890462E+02  0.00000000000E+00 0.  1.
         -2    1    1    2    0  502  0.48484903696E+01 -0.34608796268E+02  0.22237611102E+03  0.22510533399E+03  0.00000000000E+00 0.  1.
<scales pt_clust_5="13000.00000" pt_clust_6="13000.00000" pt_clust_7="13000.00000" pt_clust_8="13000.00000" pt_clust_9="34.94677"></scales>
<clustering>
<clus scale="   34.947">  1  9  2 -1</clus>
<clus scale="   89.744">  7  8 -1 -1</clus>
<clus scale="   90.514">  5  6 -1 -1</clus>
<clus scale="   98.651">  2  7  1 -1</clus>
<clus scale="   34.947">  1  5  2 -1</clus>
</clustering>
</event>
<event>
 9    1  0.1426358E-005  0.9553081E+02  0.7546771E-02  0.1291057E+00
         -2   -1    0    0    0  501 -0.00000000000E+00  0.00000000000E+00  0.27801917972E+03  0.27801917972E+03  0.00000000000E+00 0.  1.
         21   -1    0    0  501  502  0.00000000000E+00 -0.00000000000E+00 -0.13332245985E+03  0.13332245985E+03  0.00000000000E+00 0.  1.
         23    2    1    2    0    0 -0.29692148283E+02  0.43692275828E-01  0.17842479173E+03  0.20278256723E+03  0.91671902400E+02 0.  0.
         23    2    1    2    0    0 -0.13463984941E+02  0.27868776132E+02  0.49821875070E+02  0.11046650708E+03  0.93609200277E+02 0.  0.
        -11    1    4    4    0    0  0.32987862796E+02  0.23027993813E+02 -0.25301988635E+01  0.40309918099E+02  0.00000000000E+00 0.  1.
         11    1    4    4    0    0 -0.46451847737E+02  0.48407823189E+01  0.52352073934E+02  0.70156588976E+02  0.00000000000E+00 0. -1.
        -11    1    3    3    0    0 -0.26084042269E+02 -0.38408802464E+02  0.14309766178E+03  0.15044119840E+03  0.00000000000E+00 0.  1.
         11    1    3    3    0    0 -0.36081060145E+01  0.38452494740E+02  0.35327129945E+02  0.52341368829E+02  0.00000000000E+00 0. -1.
         -2    1    1    2    0  502  0.43156133224E+02 -0.27912468408E+02 -0.83549946937E+02  0.98092565267E+02  0.00000000000E+00 0.  1.
<scales pt_clust_5="13000.00000" pt_clust_6="13000.00000" pt_clust_7="13000.00000" pt_clust_8="13000.00000" pt_clust_9="51.39609"></scales>
<clustering>
<clus scale="   51.396">  2  9  1 -1</clus>
<clus scale="   91.672">  7  8 -1 -1</clus>
<clus scale="   93.609">  5  6 -1 -1</clus>
<clus scale="   93.633">  1  7  2 -1</clus>
<clus scale="   51.396">  2  5  1 -1</clus>
</clustering>
</event>
<event>
 9    1  0.1426358E-005  0.1060200E+03  0.7546771E-02  0.1268345E+00
         21   -1    0    0  501  502  0.00000000000E+00  0.00000000000E+00  0.24682156169E+03  0.24682156169E+03  0.00000000000E+00 0.  1.
         -1   -1    0    0    0  501 -0.00000000000E+00 -0.00000000000E+00 -0.10149291109E+03  0.10149291109E+03  0.00000000000E+00 0.  1.
         23    2    1    2    0    0  0.59139445740E+02  0.22260588815E+02 -0.32341762522E+02  0.11569412386E+03  0.91357171786E+02 0.  0.
         23    2    1    2    0    0 -0.22161492688E+02 -0.22034054577E+02  0.72510630839E+02  0.12114837872E+03  0.91883114679E+02 0.  0.
        -13    1    4    4    0    0  0.31750193781E+02 -0.12541768430E+02  0.54299499942E+01  0.34566676401E+02  0.00000000000E+00 0.  1.
         13    1    4    4    0    0 -0.53911686469E+02 -0.94922861463E+01  0.67080680845E+02  0.86581702321E+02  0.00000000000E+00 0. -1.
        -13    1    3    3    0    0 -0.36839713826E+00 -0.24463503527E+02 -0.31685380714E+02  0.40032013093E+02  0.00000000000E+00 0. -1.
         13    1    3    3    0    0  0.59507842878E+02  0.46724092342E+02 -0.65638180799E+00  0.75662110771E+02  0.00000000000E+00 0.  1.
         -1    1    1    2    0  502 -0.36977953052E+02 -0.22653423861E+00  0.10515978229E+03  0.11147197020E+03  0.00000000000E+00 0.  1.
<scales pt_clust_5="13000.00000" pt_clust_6="13000.00000" pt_clust_7="13000.00000" pt_clust_8="13000.00000" pt_clust_9="36.97865"></scales>
<clustering>
<clus scale="   36.979">  1  9  2 -1</clus>
<clus scale="   91.357">  7  8 -1 -1</clus>
<clus scale="   91.883">  5  6 -1 -1</clus>
<clus scale="  105.565">  2  7  1 -1</clus>
<clus scale="   36.979">  1  5  2 -1</clus>
</clustering>
</event>
<event>
 9    1  0.1426358E-005  0.1439146E+03  0.7546771E-02  0.1211206E+00
          2   -1    0    0  502    0 -0.00000000000E+00  0.00000000000E+00  0.92787175647E+03  0.92787175647E+03  0.00000000000E+00 0. -1.
         21   -1    0    0  501  502  0.00000000000E+00 -0.00000000000E+00 -0.31041592850E+02  0.31041592850E+02  0.00000000000E+00 0.  1.
         23    2    1    2    0    0  0.81491582852E+02  0.63763289004E+02  0.49917558384E+03  0.51807807067E+03  0.92314618060E+02 0.  0.
         23    2    1    2    0    0 -0.10421911722E+03 -0.60134816260E+02  0.39177368316E+03  0.41708045644E+03  0.77405864184E+02 0.  0.
        -13    1    4    4    0    0 -0.23298011768E+02 -0.50703868160E+02  0.10433446063E+03  0.11831888807E+03  0.00000000000E+00 0.  1.
         13    1    4    4    0    0 -0.80921105455E+02 -0.94309481002E+01  0.28743922253E+03  0.29876156838E+03  0.00000000000E+00 0. -1.
        -13    1    3    3    0    0  0.67032186343E+02  0.37983294871E+01  0.16292682794E+03  0.17621830942E+03  0.00000000000E+00 0.  1.
         13    1    3    3    0    0  0.14459396510E+02  0.59964959516E+02  0.33624875589E+03  0.34185976124E+03  0.00000000000E+00 0. -1.
          2    1    1    2  501    0  0.22727534371E+02 -0.36284727432E+01  0.58808966237E+01  0.23754822208E+02  0.00000000000E+00 0. -1.
<scales pt_clust_5="13000.00000" pt_clust_6="13000.00000" pt_clust_7="13000.00000" pt_clust_8="13000.00000" pt_clust_9="23.01536"></scales>
<clustering>
<clus scale="   23.015">  2  9  1 -1</clus>
<clus scale="   77.406">  5  6 -1 -1</clus>
<clus scale="   92.315">  7  8 -1 -1</clus>
<clus scale="  134.837">  2  5  1 -1</clus>
<clus scale="   23.015">  2  5  1 -1</clus>
</clustering>
</event>
<event>
 9    1  0.1426358E-005  0.2563971E+03  0.7546771E-02  0.1109402E+00
         21   -1    0    0  501  502  0.00000000000E+00  0.00000000000E+00  0.20559725586E+03  0.20559725586E+03  0.00000000000E+00 0. -1.
          1   -1    0    0  502    0 -0.00000000000E+00 -0.00000000000E+00 -0.59722653651E+03  0.59722653651E+03  0.00000000000E+00 0. -1.
         23    2    1    2    0    0 -0.17386534128E+03 -0.15840215729E+03 -0.27600921642E+03  0.37266395146E+03  0.85889072849E+02 0.  0.
         23    2    1    2    0    0  0.14354272824E+03  0.21017717367E+03 -0.19434550682E+03  0.33117596095E+03  0.84429745517E+02 0.  0.
        -11    1    3    3    0    0 -0.11658159003E+03 -0.74061213100E+02 -0.20950724438E+03  0.25093747402E+03  0.00000000000E+00 0. -1.
         11    1    3    3    0    0 -0.57283751256E+02 -0.84340944192E+02 -0.66501972039E+02  0.12172647744E+03  0.00000000000E+00 0.  1.
        -13    1    4    4    0    0  0.82960619774E+02  0.57683220390E+02 -0.98690324669E+02  0.14124304773E+03  0.00000000000E+00 0.  1.
         13    1    4    4    0    0  0.60582108467E+02  0.15249395328E+03 -0.95655182148E+02  0.18993291323E+03  0.00000000000E+00 0. -1.
          1    1    1    2  501    0  0.30322613043E+02 -0.51775016382E+02  0.78725442584E+02  0.98983879966E+02  0.00000000000E+00 0. -1.
<scales pt_clust_5="13000.00000" pt_clust_6="13000.00000" pt_clust_7="13000.00000" pt_clust_8="13000.00000" pt_clust_9="60.00094"></scales>
<clustering>
<clus scale="   60.001">  1  9  2 -1</clus>
<clus scale="   84.430">  7  8 -1 -1</clus>
<clus scale="   85.889">  5  6 -1 -1</clus>
<clus scale="  255.912">  1  7  2 -1</clus>
<clus scale="   60.001">  1  5  2 -1</clus>
</clustering>
</event>
<event>
 9    1  0.1426358E-005  0.1827880E+03  0.7546771E-02  0.1165516E+00
         21   -1    0    0  501  502  0.00000000000E+00  0.00000000000E+00  0.16663766793E+03  0.16663766793E+03  0.00000000000E+00 0. -1.
          3   -1    0    0  502    0 -0.00000000000E+00 -0.00000000000E+00 -0.41073626458E+03  0.41073626458E+03  0.00000000000E+00 0. -1.
         23    2    1    2    0    0 -0.16556707834E+03 -0.19147107110E+02 -0.30191957955E+03  0.35691082660E+03  0.91928431325E+02 0.  0.
         23    2    1    2    0    0  0.11215218777E+03  0.44474506723E+02  0.43354239661E+02  0.15960331323E+03  0.95065937791E+02 0.  0.
        -11    1    3    3    0    0 -0.11411312167E+03 -0.37148080684E+02 -0.13170130100E+03  0.17817692645E+03  0.00000000000E+00 0.  1.
         11    1    3    3    0    0 -0.51453956664E+02  0.18000973574E+02 -0.17021827856E+03  0.17873390015E+03  0.00000000000E+00 0. -1.
        -11    1    4    4    0    0  0.70326915501E+02  0.62962098134E+02 -0.30646491845E+01  0.94443067083E+02  0.00000000000E+00 0. -1.
         11    1    4    4    0    0  0.41825272268E+02 -0.18487591411E+02  0.46418888846E+02  0.65160246149E+02  0.00000000000E+00 0.  1.
          3    1    1    2  501    0  0.53414890567E+02 -0.25327399613E+02  0.14466743239E+02  0.60859792683E+02  0.00000000000E+00 0. -1.
<scales pt_clust_5="13000.00000" pt_clust_6="13000.00000" pt_clust_7="13000.00000" pt_clust_8="13000.00000" pt_clust_9="59.11538"></scales>
<clustering>
<clus scale="   59.115">  1  9  2 -1</clus>
<clus scale="   91.928">  5  6 -1 -1</clus>
<clus scale="   95.066">  7  8 -1 -1</clus>
<clus scale="  181.176">  2  5  1 -1</clus>
<clus scale="   59.115">  1  5  2 -1</clus>
</clustering>
</event>
<event>
 9    1  0.1426358E-005  0.9924904E+02  0.7546771E-02  0.1287450E+00
          2   -1    0    0  502    0 -0.00000000000E+00  0.00000000000E+00  0.85805626459E+03  0.85805626459E+03  0.00000000000E+00 0. -1.
         21   -1    0    0  501  502  0.00000000000E+00 -0.00000000000E+00 -0.20635480146E+02  0.20635480146E+02  0.00000000000E+00 0. -1.
         23    2    1    2    0    0 -0.12372478018E+02 -0.21412517747E+02  0.40666080698E+03  0.41531296583E+03  0.80624273745E+02 0.  0.
         23    2    1    2    0    0  0.19660673978E+02  0.60663238785E+02  0.39268396759E+03  0.40821067735E+03  0.91480533765E+02 0.  0.
        -13    1    4    4    0    0  0.20819050810E+01 -0.24468070818E+02  0.90461103868E+02  0.93734903485E+02  0.00000000000E+00 0.  1.
         13    1    4    4    0    0  0.17578768897E+02  0.85131309603E+02  0.30222286373E+03  0.31447577387E+03  0.00000000000E+00 0. -1.
        -13    1    3    3    0    0 -0.39034635993E+02 -0.34975521409E+02  0.29967975837E+03  0.30422844620E+03  0.00000000000E+00 0. -1.
         13    1    3    3    0    0  0.26662157974E+02  0.13563003662E+02  0.10698104862E+03  0.11108451962E+03  0.00000000000E+00 0.  1.
          2    1    1    2  501    0 -0.72881959599E+01 -0.39250721038E+02  0.38076009870E+02  0.55168101562E+02  0.00000000000E+00 0. -1.
<scales pt_clust_5="13000.00000" pt_clust_6="13000.00000" pt_clust_7="13000.00000" pt_clust_8="13000.00000" pt_clust_9="39.92163"></scales>
<clustering>
<clus scale="   39.922">  2  9  1 -1</clus>
<clus scale="   80.624">  7  8 -1 -1</clus>
<clus scale="   89.342">  1  7  2 -1</clus>
<clus scale="   91.481">  5  6 -1 -1</clus>
<clus scale="   39.922">  2  5  1 -1</clus>
</clustering>
</event>
<event>
 9    1  0.1426358E-005  0.9292098E+02  0.7546771E-02  0.1295989E+00
          1   -1    0    0  502    0 -0.00000000000E+00  0.00000000000E+00  0.15735801103E+03  0.15735801103E+03  0.00000000000E+00 0. -1.
         21   -1    0    0  501  502  0.00000000000E+00 -0.00000000000E+00 -0.18179392150E+03  0.18179392150E+03  0.00000000000E+00 0.  1.
         23    2    1    2    0    0  0.51436637187E+01 -0.15579401550E+02  0.68259890039E+02  0.11421937887E+03  0.90097052629E+02 0.  0.
         23    2    1    2    0    0  0.94076499078E+01  0.33895637750E+02  0.29102519012E+02  0.10090813722E+03  0.89989318306E+02 0.  0.
        -13    1    3    3    0    0 -0.33603621824E+02 -0.95400444577E+01 -0.64428761575E+00  0.34937529313E+02  0.00000000000E+00 0.  1.
         13    1    3    3    0    0  0.38747285543E+02 -0.60393570928E+01  0.68904177654E+02  0.79281849558E+02  0.00000000000E+00 0. -1.
        -13    1    4    4    0    0 -0.38541922216E+02  0.52260543099E+01  0.23482485173E+01  0.38965442161E+02  0.00000000000E+00 0.  1.
         13    1    4    4    0    0  0.47949572123E+02  0.28669583440E+02  0.26754270495E+02  0.61942695059E+02  0.00000000000E+00 0. -1.
          1    1    1    2  501    0 -0.14551313626E+02 -0.18316236200E+02 -0.12179831952E+03  0.12402441645E+03  0.00000000000E+00 0. -1.
<scales pt_clust_5="13000.00000" pt_clust_6="13000.00000" pt_clust_7="13000.00000" pt_clust_8="13000.00000" pt_clust_9="23.39285"></scales>
<clustering>
<clus scale="   23.393">  2  9  1 -1</clus>
<clus scale="   89.989">  7  8 -1 -1</clus>
<clus scale="   90.097">  5  6 -1 -1</clus>
<clus scale="   92.817">  2  7  1 -1</clus>
<clus scale="   23.393">  2  5  1 -1</clus>
</clustering>
</event>
<event>
 9    1  0.1426358E-005  0.1296748E+03  0.7546771E-02  0.1228163E+00
          1   -1    0    0  502    0 -0.00000000000E+00  0.00000000000E+00  0.42127213342E+03  0.42127213342E+03  0.00000000000E+00 0. -1.
         21   -1    0    0  501  502  0.00000000000E+00 -0.00000000000E+00 -0.66962883825E+02  0.66962883825E+02  0.00000000000E+00 0.  1.
         23    2    1    2    0    0 -0.72399009848E+02  0.61714835877E+02  0.30571999949E+03  0.33277123664E+03  0.90673260960E+02 0.  0.
         23    2    1    2    0    0  0.49516595840E+02 -0.66776887711E+02  0.45835800565E+02  0.13186694345E+03  0.91525538322E+02 0.  0.
        -11    1    3    3    0    0  0.16191505887E+02  0.16525957397E+02  0.21233047414E+02  0.31402459032E+02  0.00000000000E+00 0.  1.
         11    1    3    3    0    0 -0.88590515735E+02  0.45188878481E+02  0.28448695207E+03  0.30136877761E+03  0.00000000000E+00 0. -1.
        -13    1    4    4    0    0  0.14919987483E+01 -0.74833935880E+02  0.25170886487E+02  0.78967826019E+02  0.00000000000E+00 0.  1.
         13    1    4    4    0    0  0.48024597092E+02  0.80570481690E+01  0.20664914079E+02  0.52899117431E+02  0.00000000000E+00 0. -1.
          1    1    1    2  501    0  0.22882414008E+02  0.50620518338E+01  0.27534495462E+01  0.23596837161E+02  0.00000000000E+00 0. -1.
<scales pt_clust_5="13000.00000" pt_clust_6="13000.00000" pt_clust_7="13000.00000" pt_clust_8="13000.00000" pt_clust_9="23.43564"></scales>
<clustering>
<clus scale="   23.436">  2  9  1 -1</clus>
<clus scale="   90.673">  5  6 -1 -1</clus>
<clus scale="   91.526">  7  8 -1 -1</clus>
<clus scale="  129.075">  1  5  2 -1</clus>
<clus scale="   23.436">  2  5  1 -1</clus>
</clustering>
</event>
<event>
 9    1  0.1426358E-005  0.1995378E+03  0.7546771E-02  0.1150789E+00
         21   -1    0    0  501  502  0.00000000000E+00  0.00000000000E+00  0.42729479784E+02  0.42729479784E+02  0.00000000000E+00 0.  1.
          2   -1    0    0  502    0 -0.00000000000E+00 -0.00000000000E+00 -0.15683952481E+04  0.15683952481E+04  0.00000000000E+00 0. -1.
         23    2    1    2    0    0 -0.90944412937E+01 -0.17567619334E+03 -0.10924084606E+04  0.11103936919E+04  0.93129332964E+02 0.  0.
         23    2    1    2    0    0  0.29323059541E+02  0.17618689402E+03 -0.43721626387E+03  0.48011232733E+03  0.86302502930E+02 0.  0.
        -13    1    3    3    0    0  0.41722714550E+02 -0.77849261819E+02 -0.44794663017E+03  0.45657143576E+03  0.00000000000E+00 0. -1.
         13    1    3    3    0    0 -0.50817155844E+02 -0.97826931520E+02 -0.64446183038E+03  0.65382225618E+03  0.00000000000E+00 0.  1.
        -13    1    4    4    0    0  0.52420430226E+02  0.61651283449E+02 -0.19752475252E+03  0.21345915327E+03  0.00000000000E+00 0. -1.
         13    1    4    4    0    0 -0.23097370685E+02  0.11453561057E+03 -0.23969151135E+03  0.26665317406E+03  0.00000000000E+00 0.  1.
          2    1    1    2  501    0 -0.20228618247E+02 -0.51070067989E+00  0.39589561077E+01  0.20618708612E+02  0.00000000000E+00 0. -1.
<scales pt_clust_5="13000.00000" pt_clust_6="13000.00000" pt_clust_7="13000.00000" pt_clust_8="13000.00000" pt_clust_9="20.23506"></scales>
<clustering>
<clus scale="   20.235">  1  9  2 -1</clus>
<clus scale="   86.303">  7  8 -1 -1</clus>
<clus scale="   93.129">  5  6 -1 -1</clus>
<clus scale="  196.444">  1  7  2 -1</clus>
<clus scale="   20.235">  1  5  2 -1</clus>
</clustering>
</event>
<event>
 9    1  0.1426358E-005  0.9390247E+02  0.7546771E-02  0.1295610E+00
         21   -1    0    0  501  502  0.00000000000E+00  0.00000000000E+00  0.44913391190E+02  0.44913391190E+02  0.00000000000E+00 0. -1.
          1   -1    0    0  502    0 -0.00000000000E+00 -0.00000000000E+00 -0.37725900599E+03  0.37725900599E+03  0.00000000000E+00 0. -1.
         23    2    1    2    0    0  0.76070472266E+01 -0.50204191113E+01 -0.28205345597E+03  0.29629672480E+03  0.90302410415E+02 0.  0.
         23    2    1    2    0    0 -0.36232436949E+01 -0.15052436247E+02 -0.42105776901E+02  0.10383464105E+03  0.93643112413E+02 0.  0.
        -13    1    4    4    0    0 -0.36912759042E+02  0.19628827937E+02 -0.30891891893E+01  0.41921185052E+02  0.00000000000E+00 0.  1.
         13    1    4    4    0    0  0.33289515347E+02 -0.34681264183E+02 -0.39016587711E+02  0.61913456001E+02  0.00000000000E+00 0. -1.
        -13    1    3    3    0    0  0.87847296600E+01  0.37206817970E+02 -0.67054149514E+02  0.77186642275E+02  0.00000000000E+00 0.  1.
         13    1    3    3    0    0 -0.11776824335E+01 -0.42227237081E+02 -0.21499930646E+03  0.21911008253E+03  0.00000000000E+00 0. -1.
          1    1    1    2  501    0 -0.39838035317E+01  0.20072855358E+02 -0.81863819253E+01  0.22041031324E+02  0.00000000000E+00 0. -1.
<scales pt_clust_5="13000.00000" pt_clust_6="13000.00000" pt_clust_7="13000.00000" pt_clust_8="13000.00000" pt_clust_9="20.46436"></scales>
<clustering>
<clus scale="   20.464">  1  9  2 -1</clus>
<clus scale="   90.302">  7  8 -1 -1</clus>
<clus scale="   90.571">  2  7  1 -1</clus>
<clus scale="   93.643">  5  6 -1 -1</clus>
<clus scale="   20.464">  1  5  2 -1</clus>
</clustering>
</event>
<event>
 9    1  0.1426358E-005  0.1135184E+03  0.7546771E-02  0.1254497E+00
          1   -1    0    0  502    0 -0.00000000000E+00  0.00000000000E+00  0.39218953953E+03  0.39218953953E+03  0.00000000000E+00 0. -1.
         21   -1    0    0  501  502  0.00000000000E+00 -0.00000000000E+00 -0.13577051994E+03  0.13577051994E+03  0.00000000000E+00 0. -1.
         23    2    1    2    0    0  0.42393548168E+02  0.63083383145E+02  0.29860289030E+03  0.32094312415E+03  0.89800204257E+02 0.  0.
         23    2    1    2    0    0 -0.65829316709E+02  0.94704426049E+01  0.12576914700E+02  0.11314448731E+03  0.90665914227E+02 0.  0.
        -11    1    4    4    0    0  0.12564087083E+02 -0.23615779801E+02  0.80485286928E+01  0.27934569156E+02  0.00000000000E+00 0.  1.
         11    1    4    4    0    0 -0.78393403792E+02  0.33086222405E+02  0.45283860068E+01  0.85209918149E+02  0.00000000000E+00 0. -1.
        -11    1    3    3    0    0  0.14506899531E+02  0.82416071034E+02  0.20906682637E+03  0.22519279915E+03  0.00000000000E+00 0. -1.
         11    1    3    3    0    0  0.27886648637E+02 -0.19332687889E+02  0.89536063930E+02  0.95750324998E+02  0.00000000000E+00 0.  1.
          1    1    1    2  501    0  0.23435768541E+02 -0.72553825750E+02 -0.54760785407E+02  0.93872448016E+02  0.00000000000E+00 0. -1.
<scales pt_clust_5="13000.00000" pt_clust_6="13000.00000" pt_clust_7="13000.00000" pt_clust_8="13000.00000" pt_clust_9="76.24495"></scales>
<clustering>
<clus scale="   76.245">  2  9  1 -1</clus>
<clus scale="   89.800">  7  8 -1 -1</clus>
<clus scale="   90.666">  5  6 -1 -1</clus>
<clus scale="  112.828">  1  7  2 -1</clus>
<clus scale="   76.245">  2  5  1 -1</clus>
</clustering>
</event>
<event>
 9    1  0.1426358E-005  0.1038627E+03  0.7546771E-02  0.1272531E+00
         -1   -1    0    0    0  501 -0.00000000000E+00  0.00000000000E+00  0.13840432228E+03  0.13840432228E+03  0.00000000000E+00 0.  1.
         21   -1    0    0  501  502  0.00000000000E+00 -0.00000000000E+00 -0.37552837167E+03  0.37552837167E+03  0.00000000000E+00 0.  1.
         23    2    1    2    0    0 -0.29391865065E+02 -0.35059642226E+01  0.30928393504E+02  0.10074371423E+03  0.91195158395E+02 0.  0.
         23    2    1    2    0    0  0.77674901857E+02  0.12143375344E+01  0.19469150469E+02  0.12163251890E+03  0.91545381316E+02 0.  0.
        -13    1    3    3    0    0 -0.52411575184E+02  0.63461805311E+01  0.47253181342E+02  0.70852737192E+02  0.00000000000E+00 0. -1.
         13    1    3    3    0    0  0.23019710119E+02 -0.98521447537E+01 -0.16324787838E+02  0.29890977037E+02  0.00000000000E+00 0.  1.
        -13    1    4    4    0    0 -0.80612471516E+01  0.20727164366E+02  0.25085990496E+02  0.33524706821E+02  0.00000000000E+00 0. -1.
         13    1    4    4    0    0  0.85736149009E+02 -0.19512826831E+02 -0.56168400277E+01  0.88107812081E+02  0.00000000000E+00 0.  1.
         -1    1    1    2    0  502 -0.48283036792E+02  0.22916266882E+01 -0.28752159336E+03  0.29155646082E+03  0.00000000000E+00 0.  1.
<scales pt_clust_5="13000.00000" pt_clust_6="13000.00000" pt_clust_7="13000.00000" pt_clust_8="13000.00000" pt_clust_9="48.33739"></scales>
<clustering>
<clus scale="   48.337">  2  9  1 -1</clus>
<clus scale="   91.195">  5  6 -1 -1</clus>
<clus scale="   91.545">  7  8 -1 -1</clus>
<clus scale="  103.554">  1  5  2 -1</clus>
<clus scale="   48.337">  2  5  1 -1</clus>
</clustering>
</event>
<event>
 9    1  0.1426358E-005  0.9401074E+02  0.7546771E-02  0.1294672E+00
         21   -1    0    0  501  502  0.00000000000E+00  0.00000000000E+00  0.11203532455E+03  0.11203532455E+03  0.00000000000E+00 0.  1.
         -2   -1    0    0    0  501 -0.00000000000E+00 -0.00000000000E+00 -0.13785258340E+03  0.13785258340E+03  0.00000000000E+00 0.  1.
         23    2    1    2    0    0  0.79178243629E+01 -0.15732048294E+02 -0.73767576421E+02  0.11787761437E+03  0.90240164853E+02 0.  0.
         23    2    1    2    0    0  0.14626281150E+02  0.20461764220E+02  0.23966348716E+02  0.98756155964E+02  0.92443391190E+02 0.  0.
        -13    1    3    3    0    0 -0.23644765969E+02  0.90465829026E+01  0.82031713907E+01  0.26612170915E+02  0.00000000000E+00 0. -1.
         13    1    3    3    0    0  0.31562590332E+02 -0.24778631197E+02 -0.81970747812E+02  0.91265443456E+02  0.00000000000E+00 0.  1.
        -13    1    4    4    0    0 -0.24111834212E+02 -0.23951841301E+02 -0.26521634316E+01  0.34089664440E+02  0.00000000000E+00 0. -1.
         13    1    4    4    0    0  0.38738115362E+02  0.44413605521E+02  0.26618512147E+02  0.64666491524E+02  0.00000000000E+00 0.  1.
         -2    1    1    2    0  502 -0.22544105513E+02 -0.47297159252E+01  0.23983968861E+02  0.33254137614E+02  0.00000000000E+00 0.  1.
<scales pt_clust_5="13000.00000" pt_clust_6="13000.00000" pt_clust_7="13000.00000" pt_clust_8="13000.00000" pt_clust_9="23.03491"></scales>
<clustering>
<clus scale="   23.035">  1  9  2 -1</clus>
<clus scale="   90.240">  5  6 -1 -1</clus>
<clus scale="   91.845">  2  5  1 -1</clus>
<clus scale="   92.443">  7  8 -1 -1</clus>
<clus scale="   23.035">  1  5  2 -1</clus>
</clustering>
</event>
<event>
 9    1  0.1426358E-005  0.1153781E+03  0.7546771E-02  0.1251372E+00
         -4   -1    0    0    0  501 -0.00000000000E+00  0.00000000000E+00  0.33883122361E+03  0.33883122361E+03  0.00000000000E+00 0.  1.
         21   -1    0    0  501  502  0.00000000000E+00 -0.00000000000E+00 -0.17411846075E+03  0.17411846075E+03  0.00000000000E+00 0. -1.
         23    2    1    2    0    0 -0.64078767854E+02 -0.21107496542E+02  0.27185325490E+03  0.29409828312E+03  0.89654855061E+02 0.  0.
         23    2    1    2    0    0  0.88862047504E+02  0.56776532213E+02 -0.51991948769E+02  0.14865273400E+03  0.90963918636E+02 0.  0.
        -11    1    3    3    0    0 -0.81615300797E+02  0.38201837622E+01  0.19546643017E+03  0.21185555563E+03  0.00000000000E+00 0.  1.
         11    1    3    3    0    0  0.17536532943E+02 -0.24927680304E+02  0.76386824729E+02  0.82242727491E+02  0.00000000000E+00 0. -1.
        -13    1    4    4    0    0  0.58085206467E+02  0.79634797490E+02 -0.49332344894E+02  0.11022373807E+03  0.00000000000E+00 0.  1.
         13    1    4    4    0    0  0.30776841037E+02 -0.22858265277E+02 -0.26596038752E+01  0.38428995934E+02  0.00000000000E+00 0. -1.
         -4    1    1    2    0  502 -0.24783279650E+02 -0.35669035670E+02 -0.55148543278E+02  0.70198667235E+02  0.00000000000E+00 0.  1.
<scales pt_clust_5="13000.00000" pt_clust_6="13000.00000" pt_clust_7="13000.00000" pt_clust_8="13000.00000" pt_clust_9="43.43375"></scales>
<clustering>
<clus scale="   43.434">  2  9  1 -1</clus>
<clus scale="   89.655">  5  6 -1 -1</clus>
<clus scale="   90.964">  7  8 -1 -1</clus>
<clus scale="  114.349">  1  5  2 -1</clus>
<clus scale="   43.434">  2  5  1 -1</clus>
</clustering>
</event>
<event>
 9    1  0.1426358E-005  0.1759047E+03  0.7546771E-02  0.1171869E+00
         21   -1    0    0  501  502  0.00000000000E+00  0.00000000000E+00  0.16383567558E+03  0.16383567558E+03  0.00000000000E+00 0.  1.
          2   -1    0    0  502    0 -0.00000000000E+00 -0.00000000000E+00 -0.40147866960E+03  0.40147866960E+03  0.00000000000E+00 0. -1.
         23    2    1    2    0    0  0.19035611184E+02  0.14400757135E+03 -0.21301729690E+03  0.27291125274E+03  0.89463109712E+02 0.  0.
         23    2    1    2    0    0 -0.55141862924E+01 -0.16267442164E+03 -0.10174131184E+03  0.21191645837E+03  0.89799315635E+02 0.  0.
        -11    1    4    4    0    0  0.35641310192E+02 -0.35525465526E+02 -0.41918577176E+02  0.65494494467E+02  0.00000000000E+00 0. -1.
         11    1    4    4    0    0 -0.41155496484E+02 -0.12714895611E+03 -0.59822734665E+02  0.14642196391E+03  0.00000000000E+00 0.  1.
        -11    1    3    3    0    0  0.27431725765E+02  0.40255466225E+02 -0.13293380430E+03  0.14157824150E+03  0.00000000000E+00 0. -1.
         11    1    3    3    0    0 -0.83961145808E+01  0.10375210512E+03 -0.80083492596E+02  0.13133301125E+03  0.00000000000E+00 0.  1.
          2    1    1    2  501    0 -0.13521424892E+02  0.18666850292E+02  0.77115614714E+02  0.80486634069E+02  0.00000000000E+00 0. -1.
<scales pt_clust_5="13000.00000" pt_clust_6="13000.00000" pt_clust_7="13000.00000" pt_clust_8="13000.00000" pt_clust_9="23.04952"></scales>
<clustering>
<clus scale="   23.050">  1  9  2 -1</clus>
<clus scale="   89.463">  7  8 -1 -1</clus>
<clus scale="   89.799">  5  6 -1 -1</clus>
<clus scale="  175.733">  2  7  1 -1</clus>
<clus scale="   23.050">  1  5  2 -1</clus>
</clustering>
</event>
<event>
 9    1  0.1426358E-005  0.1222587E+03  0.7546771E-02  0.1239742E+00
          4   -1    0    0  502    0 -0.00000000000E+00  0.00000000000E+00  0.91274453014E+02  0.91274453014E+02  0.00000000000E+00 0. -1.
         21   -1    0    0  501  502  0.00000000000E+00 -0.00000000000E+00 -0.28831406698E+03  0.28831406698E+03  0.00000000000E+00 0. -1.
         23    2    1    2    0    0  0.58887017956E+02 -0.86988107817E+02 -0.49106059052E+02  0.14788498614E+03  0.91782091423E+02 0.  0.
         23    2    1    2    0    0 -0.59228647888E+02  0.21734596804E+02 -0.73433567734E+02  0.13266624037E+03  0.90705110297E+02 0.  0.
        -11    1    3    3    0    0  0.59061914605E+00 -0.39791927054E+02 -0.60095537674E+02  0.72077874122E+02  0.00000000000E+00 0.  1.
         11    1    3    3    0    0  0.58296398810E+02 -0.47196180763E+02  0.10989478622E+02  0.75807112023E+02  0.00000000000E+00 0. -1.
        -13    1    4    4    0    0  0.19726713715E+02 -0.12813027204E+02 -0.95467117794E+01  0.25386149883E+02  0.00000000000E+00 0.  1.
         13    1    4    4    0    0 -0.78955361602E+02  0.34547624007E+02 -0.63886855954E+02  0.10728009048E+03  0.00000000000E+00 0. -1.
          4    1    1    2  501    0  0.34162993179E+00  0.65253511013E+02 -0.74499987175E+02  0.99037293479E+02  0.00000000000E+00 0. -1.
<scales pt_clust_5="13000.00000" pt_clust_6="13000.00000" pt_clust_7="13000.00000" pt_clust_8="13000.00000" pt_clust_9="65.25441"></scales>
<clustering>
<clus scale="   65.254">  2  9  1 -1</clus>
<clus scale="   90.705">  7  8 -1 -1</clus>
<clus scale="   91.782">  5  6 -1 -1</clus>
<clus scale="  121.452">  2  7  1 -1</clus>
<clus scale="   65.254">  2  5  1 -1</clus>
</clustering>
</event>
<event>
 9    1  0.1426358E-005  0.9282834E+02  0.7546771E-02  0.1296862E+00
          2   -1    0    0  502    0 -0.00000000000E+00  0.00000000000E+00  0.27821113029E+03  0.27821113029E+03  0.00000000000E+00 0. -1.
         21   -1    0    0  501  502  0.00000000000E+00 -0.00000000000E+00 -0.64185313418E+02  0.64185313418E+02  0.00000000000E+00 0. -1.
         23    2    1    2    0    0 -0.10920964430E+02 -0.17854087970E+02  0.16148673707E+03  0.18695326469E+03  0.91845092439E+02 0.  0.
         23    2    1    2    0    0 -0.16144869573E+02  0.57995817167E+01  0.74512077878E+02  0.11855574029E+03  0.90604204346E+02 0.  0.
        -11    1    3    3    0    0 -0.43250532474E+02  0.16614684265E+02  0.90573149134E+02  0.10173569500E+03  0.00000000000E+00 0.  1.
         11    1    3    3    0    0  0.32329568044E+02 -0.34468772235E+02  0.70913587938E+02  0.85217569688E+02  0.00000000000E+00 0. -1.
        -11    1    4    4    0    0 -0.51480761122E+02  0.21197035149E+01  0.62616800632E+02  0.81090231410E+02  0.00000000000E+00 0. -1.
         11    1    4    4    0    0  0.35335891549E+02  0.36798782018E+01  0.11895277246E+02  0.37465508883E+02  0.00000000000E+00 0.  1.
          2    1    1    2  501    0  0.27065834003E+02  0.12054506253E+02 -0.21972998079E+02  0.36887438728E+02  0.00000000000E+00 0. -1.
<scales pt_clust_5="13000.00000" pt_clust_6="13000.00000" pt_clust_7="13000.00000" pt_clust_8="13000.00000" pt_clust_9="29.62888"></scales>
<clustering>
<clus scale="   29.629">  2  9  1 -1</clus>
<clus scale="   90.604">  7  8 -1 -1</clus>
<clus scale="   91.601">  2  7  1 -1</clus>
<clus scale="   91.845">  5  6 -1 -1</clus>
<clus scale="   29.629">  2  5  1 -1</clus>
</clustering>
</event>
<event>
 9    1  0.1426358E-005  0.9242541E+02  0.7546771E-02  0.1298224E+00
         21   -1    0    0  501  502  0.00000000000E+00  0.00000000000E+00  0.25071959253E+03  0.25071959253E+03  0.00000000000E+00 0.  1.
          3   -1    0    0  502    0 -0.00000000000E+00 -0.00000000000E+00 -0.44102564513E+02  0.44102564513E+02  0.00000000000E+00 0. -1.
         23    2    1    2    0    0  0.14634758074E+02 -0.11516034269E+02  0.76820096370E+02  0.12105647886E+03  0.91687232907E+02 0.  0.
         23    2    1    2    0    0 -0.83017535404E+01 -0.99670168849E+01  0.88044694330E+02  0.12638553726E+03  0.89739485682E+02 0.  0.
        -11    1    3    3    0    0 -0.28245351336E+02  0.23603373194E+02  0.20932023239E+02  0.42344641871E+02  0.00000000000E+00 0.  1.
         11    1    3    3    0    0  0.42880109411E+02 -0.35119407464E+02  0.55888073130E+02  0.78711836987E+02  0.00000000000E+00 0. -1.
        -13    1    4    4    0    0 -0.25361020779E+02  0.33293655452E+02  0.55997157381E+02  0.69909445021E+02  0.00000000000E+00 0.  1.
         13    1    4    4    0    0  0.17059267238E+02 -0.43260672337E+02  0.32047536949E+02  0.56476092236E+02  0.00000000000E+00 0. -1.
          3    1    1    2  501    0 -0.63330045340E+01  0.21483051154E+02  0.41752237319E+02  0.47380140929E+02  0.00000000000E+00 0. -1.
<scales pt_clust_5="13000.00000" pt_clust_6="13000.00000" pt_clust_7="13000.00000" pt_clust_8="13000.00000" pt_clust_9="22.39706"></scales>
<clustering>
<clus scale="   22.397">  1  9  2 -1</clus>
<clus scale="   89.739">  7  8 -1 -1</clus>
<clus scale="   90.494">  1  7  2 -1</clus>
<clus scale="   91.687">  5  6 -1 -1</clus>
<clus scale="   22.397">  1  5  2 -1</clus>
</clustering>
</event>
<event>
 9    1  0.1426358E-005  0.9847916E+02  0.7546771E-02  0.1284313E+00
          3   -1    0    0  502    0 -0.00000000000E+00  0.00000000000E+00  0.25831443800E+02  0.25831443800E+02  0.00000000000E+00 0. -1.
         21   -1    0    0  501  502  0.00000000000E+00 -0.00000000000E+00 -0.61055146622E+03  0.61055146622E+03  0.00000000000E+00 0.  1.
         23    2    1    2    0    0 -0.42160414954E+02 -0.12206383014E+02 -0.12785294756E+03  0.16224978822E+03  0.89733612441E+02 0.  0.
         23    2    1    2    0    0  0.13275701459E+02  0.23697300155E+02 -0.32658974094E+03  0.34019824366E+03  0.91302682414E+02 0.  0.
        -11    1    4    4    0    0  0.34188478778E+02 -0.19769964099E+02 -0.21548700362E+03  0.21907613355E+03  0.00000000000E+00 0.  1.
         11    1    4    4    0    0 -0.20912777319E+02  0.43467264254E+02 -0.11110273732E+03  0.12112211011E+03  0.00000000000E+00 0. -1.
        -13    1    3    3    0    0 -0.68223812493E+02 -0.14886204319E+02 -0.70667342087E+02  0.99347676912E+02  0.00000000000E+00 0. -1.
         13    1    3    3    0    0  0.26063397539E+02  0.26798213054E+01 -0.57185605471E+02  0.62902111305E+02  0.00000000000E+00 0.  1.
          3    1    1    2  501    0  0.28884713494E+02 -0.11490917142E+02 -0.13027733392E+03  0.13393487814E+03  0.00000000000E+00 0. -1.
<scales pt_clust_5="13000.00000" pt_clust_6="13000.00000" pt_clust_7="13000.00000" pt_clust_8="13000.00000" pt_clust_9="31.08646"></scales>
<clustering>
<clus scale="   31.086">  2  9  1 -1</clus>
<clus scale="   89.734">  7  8 -1 -1</clus>
<clus scale="   91.303">  5  6 -1 -1</clus>
<clus scale="   97.026">  1  7  2 -1</clus>
<clus scale="   31.086">  2  5  1 -1</clus>
</clustering>
</event>
<event>
 9    1  0.1426358E-005  0.1471885E+03  0.7546771E-02  0.1224654E+00
         21   -1    0    0  501  502  0.00000000000E+00  0.00000000000E+00  0.61040000506E+02  0.61040000506E+02  0.00000000000E+00 0.  1.
         -1   -1    0    0    0  501 -0.00000000000E+00 -0.00000000000E+00 -0.71649557299E+03  0.71649557299E+03  0.00000000000E+00 0.  1.
         23    2    1    2    0    0  0.14588535579E+01 -0.24407677363E+02 -0.26867034775E+03  0.28495081980E+03  0.91735222131E+02 0.  0.
         23    2    1    2    0    0 -0.30042033769E+02  0.13162814100E+03 -0.33005489534E+03  0.36795908905E+03  0.90714750612E+02 0.  0.
        -11    1    3    3    0    0  0.35230860982E+02 -0.40409976614E+02 -0.11626139500E+03  0.12802691804E+03  0.00000000000E+00 0.  1.
         11    1    3    3    0    0 -0.33772007424E+02  0.16002299251E+02 -0.15240895275E+03  0.15692390176E+03  0.00000000000E+00 0. -1.
        -13    1    4    4    0    0  0.20839914943E+02  0.16041128201E+02 -0.19597016974E+02  0.32797300545E+02  0.00000000000E+00 0. -1.
         13    1    4    4    0    0 -0.50881948711E+02  0.11558701280E+03 -0.31045787837E+03  0.33516178851E+03  0.00000000000E+00 0.  1.
         -1    1    1    2    0  502  0.28583180211E+02 -0.10722046364E+03 -0.56730329392E+02  0.12462566464E+03  0.00000000000E+00 0.  1.
<scales pt_clust_5="13000.00000" pt_clust_6="13000.00000" pt_clust_7="13000.00000" pt_clust_8="13000.00000" pt_clust_9="115.91067"></scales>
<clustering>
<clus scale="   90.715">  7  8 -1 -1</clus>
<clus scale="   91.735">  5  6 -1 -1</clus>
<clus scale="   94.938">  2  5  1 -1</clus>
<clus scale="  115.911">  1  9  2 -1</clus>
<clus scale="  115.911">  1  5  2 -1</clus>
</clustering>
</event>
<event>
 9    1  0.1426358E-005  0.1065364E+03  0.7546771E-02  0.1272804E+00
          3   -1    0    0  502    0 -0.00000000000E+00  0.00000000000E+00  0.18451561006E+03  0.18451561006E+03  0.00000000000E+00 0. -1.
         21   -1    0    0  501  502  0.00000000000E+00 -0.00000000000E+00 -0.13531164077E+03  0.13531164077E+03  0.00000000000E+00 0. -1.
         23    2    1    2    0    0 -0.60736481617E+01 -0.30583190993E+02  0.11168217589E+03  0.15451479475E+03  0.10212586652E+03 0.  0.
         23    2    1    2    0    0  0.48069076967E+02  0.10051429283E+02 -0.26491275290E+02  0.10631899453E+03  0.90500130054E+02 0.  0.
        -11    1    4    4    0    0  0.24001147992E+02  0.47490833101E+02  0.23842066628E+01  0.53264610907E+02  0.00000000000E+00 0.  1.
         11    1    4    4    0    0  0.24067928975E+02 -0.37439403818E+02 -0.28875481953E+02  0.53054383621E+02  0.00000000000E+00 0. -1.
        -13    1    3    3    0    0 -0.49268948773E+02 -0.36423234357E+02  0.79308480426E+02  0.10021934136E+03  0.00000000000E+00 0. -1.
         13    1    3    3    0    0  0.43195300611E+02  0.58400433639E+01  0.32373695465E+02  0.54295453396E+02  0.00000000000E+00 0.  1.
          3    1    1    2  501    0 -0.41995428806E+02  0.20531761710E+02 -0.35986931311E+02  0.58993461542E+02  0.00000000000E+00 0. -1.
<scales pt_clust_5="13000.00000" pt_clust_6="13000.00000" pt_clust_7="13000.00000" pt_clust_8="13000.00000" pt_clust_9="46.74579"></scales>
<clustering>
<clus scale="   46.746">  2  9  1 -1</clus>
<clus scale="   90.500">  5  6 -1 -1</clus>
<clus scale="   95.449">  2  5  1 -1</clus>
<clus scale="  102.126">  7  8 -1 -1</clus>
<clus scale="   46.746">  2  5  1 -1</clus>
</clustering>
</event>
<event>
 9    1  0.1426358E-005  0.1750773E+03  0.7546771E-02  0.1198627E+00
         21   -1    0    0  501  502  0.00000000000E+00  0.00000000000E+00  0.19901666274E+03  0.19901666274E+03  0.00000000000E+00 0. -1.
          2   -1    0    0  502    0 -0.00000000000E+00 -0.00000000000E+00 -0.27992448510E+03  0.27992448510E+03  0.00000000000E+00 0. -1.
         23    2    1    2    0    0 -0.42047021557E+02  0.16520231534E+01 -0.11233166656E+03  0.14920243637E+03  0.88725884081E+02 0.  0.
         23    2    1    2    0    0  0.71959217098E+02 -0.14091979202E+03  0.39391430662E+02  0.18707220061E+03  0.91694093175E+02 0.  0.
        -11    1    3    3    0    0 -0.14761058985E+02 -0.43214014455E+02 -0.50700596788E+02  0.68234085488E+02  0.00000000000E+00 0.  1.
         11    1    3    3    0    0 -0.27285962572E+02  0.44866037609E+02 -0.61631069769E+02  0.80968350885E+02  0.00000000000E+00 0. -1.
        -13    1    4    4    0    0  0.78557580473E+02 -0.75239530217E+02  0.50848649676E+02  0.12007441664E+03  0.00000000000E+00 0. -1.
         13    1    4    4    0    0 -0.65983633747E+01 -0.65680261800E+02 -0.11457219014E+02  0.66997783970E+02  0.00000000000E+00 0.  1.
          2    1    1    2  501    0 -0.29912195541E+02  0.13926776886E+03 -0.79675864605E+01  0.14266651086E+03  0.00000000000E+00 0. -1.
<scales pt_clust_5="13000.00000" pt_clust_6="13000.00000" pt_clust_7="13000.00000" pt_clust_8="13000.00000" pt_clust_9="149.14514"></scales>
<clustering>
<clus scale="   88.726">  5  6 -1 -1</clus>
<clus scale="   91.694">  7  8 -1 -1</clus>
<clus scale="   98.199">  2  5  1 -1</clus>
<clus scale="  149.145">  1  9  2 -1</clus>
<clus scale="  149.145">  1  5  2 -1</clus>
</clustering>
</event>
<event>
 9    1  0.1426358E-005  0.9133681E+02  0.7546771E-02  0.1300675E+00
         21   -1    0    0  501  502  0.00000000000E+00  0.00000000000E+00  0.53081767191E+02  0.53081767191E+02  0.00000000000E+00 0. -1.
          2   -1    0    0  502    0 -0.00000000000E+00 -0.00000000000E+00 -0.42083965484E+03  0.42083965484E+03  0.00000000000E+00 0. -1.
         23    2    1    2    0    0  0.13625571746E+02  0.24759478393E+02 -0.22743540159E+03  0.24572617700E+03  0.88632974631E+02 0.  0.
         23    2    1    2    0    0  0.21591228310E+01  0.55519397919E+01 -0.16349721525E+03  0.18690351790E+03  0.90366474771E+02 0.  0.
        -11    1    4    4    0    0 -0.43545645545E+02  0.82530698233E+01 -0.89811859612E+02  0.10015241652E+03  0.00000000000E+00 0.  1.
         11    1    4    4    0    0  0.45704768376E+02 -0.27011300314E+01 -0.73685355639E+02  0.86751101385E+02  0.00000000000E+00 0. -1.
        -13    1    3    3    0    0  0.43175154714E+02  0.30177275847E+02 -0.83786032914E+02  0.98968991475E+02  0.00000000000E+00 0. -1.
         13    1    3    3    0    0 -0.29549582968E+02 -0.54177974544E+01 -0.14364936868E+03  0.14675718553E+03  0.00000000000E+00 0.  1.
          2    1    1    2  501    0 -0.15784694577E+02 -0.30311418184E+02  0.23174729197E+02  0.41291727121E+02  0.00000000000E+00 0. -1.
<scales pt_clust_5="13000.00000" pt_clust_6="13000.00000" pt_clust_7="13000.00000" pt_clust_8="13000.00000" pt_clust_9="34.17512"></scales>
<clustering>
<clus scale="   34.175">  1  9  2 -1</clus>
<clus scale="   88.633">  7  8 -1 -1</clus>
<clus scale="   89.622">  2  7  1 -1</clus>
<clus scale="   90.366">  5  6 -1 -1</clus>
<clus scale="   34.175">  1  5  2 -1</clus>
</clustering>
</event>
<event>
 9    1  0.1426358E-005  0.1001727E+03  0.7546771E-02  0.1280508E+00
         21   -1    0    0  501  502  0.00000000000E+00  0.00000000000E+00  0.19305694038E+03  0.19305694038E+03  0.00000000000E+00 0.  1.
         -1   -1    0    0    0  501 -0.00000000000E+00 -0.00000000000E+00 -0.13053559577E+03  0.13053559577E+03  0.00000000000E+00 0.  1.
         23    2    1    2    0    0  0.31438649413E+02  0.13879521034E+02 -0.39780390218E+02  0.10441263354E+03  0.90213573346E+02 0.  0.
         23    2    1    2    0    0 -0.40102728567E+02 -0.32637465349E+02 -0.95352113952E+01  0.10545027023E+03  0.91407911320E+02 0.  0.
        -13    1    4    4    0    0 -0.34167945888E+01 -0.52051118343E+02  0.18518521698E+02  0.55352769144E+02  0.00000000000E+00 0. -1.
         13    1    4    4    0    0 -0.36685933978E+02  0.19413652994E+02 -0.28053733093E+02  0.50097501084E+02  0.00000000000E+00 0.  1.
        -13    1    3    3    0    0  0.50622507300E+02  0.28555214543E+02 -0.29037313582E+00  0.58121621102E+02  0.00000000000E+00 0.  1.
         13    1    3    3    0    0 -0.19183857887E+02 -0.14675693509E+02 -0.39490017082E+02  0.46291012438E+02  0.00000000000E+00 0. -1.
         -1    1    1    2    0  502  0.86640791544E+01  0.18757944316E+02  0.11183694622E+03  0.11372963239E+03  0.00000000000E+00 0.  1.
<scales pt_clust_5="13000.00000" pt_clust_6="13000.00000" pt_clust_7="13000.00000" pt_clust_8="13000.00000" pt_clust_9="20.66221"></scales>
<clustering>
<clus scale="   20.662">  1  9  2 -1</clus>
<clus scale="   90.214">  7  8 -1 -1</clus>
<clus scale="   91.408">  5  6 -1 -1</clus>
<clus scale="   99.084">  2  7  1 -1</clus>
<clus scale="   20.662">  1  5  2 -1</clus>
</clustering>
</event>
<event>
 9    1  0.1426358E-005  0.1108353E+03  0.7546771E-02  0.1259150E+00
         21   -1    0    0  501  502  0.00000000000E+00  0.00000000000E+00  0.22633384371E+03  0.22633384371E+03  0.00000000000E+00 0. -1.
          1   -1    0    0  502    0 -0.00000000000E+00 -0.00000000000E+00 -0.11374443890E+03  0.11374443890E+03  0.00000000000E+00 0. -1.
         23    2    1    2    0    0  0.31596846397E+02 -0.10875214460E+01  0.24465019647E+02  0.10024025812E+03  0.91924037971E+02 0.  0.
         23    2    1    2    0    0 -0.92301222038E+02  0.19114650591E+02  0.15146108686E+00  0.13144414101E+03  0.91611428366E+02 0.  0.
        -11    1    4    4    0    0 -0.71070546456E+02  0.44242295202E+02 -0.27867866282E+02  0.88232767322E+02  0.00000000000E+00 0. -1.
         11    1    4    4    0    0 -0.21230675582E+02 -0.25127644611E+02  0.28019327369E+02  0.43211373683E+02  0.00000000000E+00 0.  1.
        -11    1    3    3    0    0 -0.12226471653E+02  0.26728110704E+02  0.36594245821E+02  0.46936311510E+02  0.00000000000E+00 0.  1.
         11    1    3    3    0    0  0.43823318050E+02 -0.27815632150E+02 -0.12129226174E+02  0.53303946612E+02  0.00000000000E+00 0. -1.
          1    1    1    2  501    0  0.60704375641E+02 -0.18027129145E+02  0.87972924075E+02  0.10839388349E+03  0.00000000000E+00 0. -1.
<scales pt_clust_5="13000.00000" pt_clust_6="13000.00000" pt_clust_7="13000.00000" pt_clust_8="13000.00000" pt_clust_9="63.32455"></scales>
<clustering>
<clus scale="   63.325">  1  9  2 -1</clus>
<clus scale="   91.611">  5  6 -1 -1</clus>
<clus scale="   91.924">  7  8 -1 -1</clus>
<clus scale="  110.576">  1  5  2 -1</clus>
<clus scale="   63.325">  1  5  2 -1</clus>
</clustering>
</event>
<event>
 9    1  0.1557939E-005  0.1023644E+03  0.7546771E-02  0.1277166E+00
          4   -1    0    0  502    0 -0.00000000000E+00  0.00000000000E+00  0.58590554503E+03  0.58590554503E+03  0.00000000000E+00 0. -1.
         21   -1    0    0  501  502  0.00000000000E+00 -0.00000000000E+00 -0.54173749711E+02  0.54173749711E+02  0.00000000000E+00 0.  1.
         23    2    1    2    0    0 -0.34477164305E+02 -0.15097208380E+02  0.48539538362E+03  0.49517685113E+03  0.90414793557E+02 0.  0.
         23    2    1    2    0    0  0.58013142865E+02  0.16813910960E+02  0.46955719855E+02  0.12129581537E+03  0.94125463353E+02 0.  0.
        -11    1    4    4    0    0  0.77158580813E+02  0.29555943548E+02  0.52165538688E+02  0.97715115610E+02  0.00000000000E+00 0.  1.
         11    1    4    4    0    0 -0.19145437949E+02 -0.12742032587E+02 -0.52098188326E+01  0.23580699756E+02  0.00000000000E+00 0. -1.
        -11    1    3    3    0    0 -0.64701411445E+02 -0.13220602943E+01  0.31824577639E+03  0.32475897937E+03  0.00000000000E+00 0. -1.
         11    1    3    3    0    0  0.30224247140E+02 -0.13775148086E+02  0.16714960723E+03  0.17041787176E+03  0.00000000000E+00 0.  1.
          4    1    1    2  501    0 -0.23535978560E+02 -0.17167025803E+01 -0.61930815945E+00  0.23606628245E+02  0.00000000000E+00 0. -1.
<scales pt_clust_5="13000.00000" pt_clust_6="13000.00000" pt_clust_7="13000.00000" pt_clust_8="13000.00000" pt_clust_9="23.59850"></scales>
<clustering>
<clus scale="   23.599">  2  9  1 -1</clus>
<clus scale="   90.415">  7  8 -1 -1</clus>
<clus scale="   94.125">  5  6 -1 -1</clus>
<clus scale="   98.963">  1  7  2 -1</clus>
<clus scale="   23.599">  2  5  1 -1</clus>
</clustering>
</event>
<event>
 9    1  0.1426358E-005  0.9117697E+02  0.7546771E-02  0.1300626E+00
         21   -1    0    0  501  502  0.00000000000E+00  0.00000000000E+00  0.58832200724E+02  0.58832200724E+02  0.00000000000E+00 0. -1.
          1   -1    0    0  502    0 -0.00000000000E+00 -0.00000000000E+00 -0.33226861794E+03  0.33226861794E+03  0.00000000000E+00 0. -1.
         23    2    1    2    0    0 -0.27877107557E+01 -0.44000719749E+01 -0.24843405139E+03  0.26465895543E+03  0.91092002029E+02 0.  0.
         23    2    1    2    0    0 -0.25763874465E+02 -0.28178350597E+01 -0.24890518796E+02  0.96991842682E+02  0.90089745249E+02 0.  0.
        -11    1    4    4    0    0  0.29414841227E+02 -0.31658730607E+01 -0.29297261757E+02  0.41636344497E+02  0.00000000000E+00 0.  1.
         11    1    4    4    0    0 -0.55178715691E+02  0.34803800100E+00  0.44067429609E+01  0.55355498185E+02  0.00000000000E+00 0. -1.
        -13    1    3    3    0    0  0.39255965030E+02 -0.21708260988E+02 -0.14209440764E+03  0.14900704704E+03  0.00000000000E+00 0.  1.
         13    1    3    3    0    0 -0.42043675786E+02  0.17308189013E+02 -0.10633964375E+03  0.11565190839E+03  0.00000000000E+00 0. -1.
          1    1    1    2  501    0  0.28551585221E+02  0.72179070347E+01 -0.11184702550E+00  0.29450020549E+02  0.00000000000E+00 0. -1.
<scales pt_clust_5="13000.00000" pt_clust_6="13000.00000" pt_clust_7="13000.00000" pt_clust_8="13000.00000" pt_clust_9="29.44981"></scales>
<clustering>
<clus scale="   29.450">  1  9  2 -1</clus>
<clus scale="   90.090">  5  6 -1 -1</clus>
<clus scale="   90.176">  1  5  2 -1</clus>
<clus scale="   91.092">  7  8 -1 -1</clus>
<clus scale="   29.450">  1  5  2 -1</clus>
</clustering>
</event>
<event>
 9    1  0.1426358E-005  0.1514025E+03  0.7546771E-02  0.1198890E+00
          1   -1    0    0  502    0 -0.00000000000E+00  0.00000000000E+00  0.82938660976E+03  0.82938660976E+03  0.00000000000E+00 0. -1.
         21   -1    0    0  501  502  0.00000000000E+00 -0.00000000000E+00 -0.40546385710E+02  0.40546385710E+02  0.00000000000E+00 0.  1.
         23    2    1    2    0    0 -0.98943219426E+02 -0.10238908321E+03  0.43700254931E+03  0.46840974287E+03  0.90350285469E+02 0.  0.
         23    2    1    2    0    0  0.51824578272E+02  0.78080531184E+02  0.18522245559E+03  0.22667559520E+03  0.91061029759E+02 0.  0.
        -11    1    3    3    0    0 -0.74238011143E+01 -0.39944457291E+02  0.23059319334E+03  0.23414502623E+03  0.00000000000E+00 0. -1.
         11    1    3    3    0    0 -0.91519418312E+02 -0.62444625915E+02  0.20640935596E+03  0.23426471664E+03  0.00000000000E+00 0.  1.
        -13    1    4    4    0    0  0.48604478835E+02  0.11712231383E+02  0.31201624555E+02  0.58933123977E+02  0.00000000000E+00 0.  1.
         13    1    4    4    0    0  0.32200994374E+01  0.66368299801E+02  0.15402083104E+03  0.16774247122E+03  0.00000000000E+00 0. -1.
          1    1    1    2  501    0  0.47118641154E+02  0.24308552022E+02  0.16661521916E+03  0.17484765740E+03  0.00000000000E+00 0. -1.
<scales pt_clust_5="13000.00000" pt_clust_6="13000.00000" pt_clust_7="13000.00000" pt_clust_8="13000.00000" pt_clust_9="53.01957"></scales>
<clustering>
<clus scale="   53.020">  2  9  1 -1</clus>
<clus scale="   90.350">  5  6 -1 -1</clus>
<clus scale="   91.061">  7  8 -1 -1</clus>
<clus scale="  150.976">  1  5  2 -1</clus>
<clus scale="   53.020">  2  5  1 -1</clus>
</clustering>
</event>
<event>
 9    1  0.1426358E-005  0.1115722E+03  0.7546771E-02  0.1258123E+00
         -1   -1    0    0    0  501 -0.00000000000E+00  0.00000000000E+00  0.17241793993E+03  0.17241793993E+03  0.00000000000E+00 0.  1.
         21   -1    0    0  501  502  0.00000000000E+00 -0.00000000000E+00 -0.21112037532E+03  0.21112037532E+03  0.00000000000E+00 0. -1.
         23    2    1    2    0    0  0.41856373138E+02 -0.44029632207E+02  0.12240888460E+03  0.16492638496E+03  0.92337494770E+02 0.  0.
         23    2    1    2    0    0 -0.68357973630E+02  0.38967224877E+02 -0.12556651622E+03  0.17398687150E+03  0.91176884598E+02 0.  0.
        -11    1    3    3    0    0  0.22400316815E+02 -0.17379796447E+02  0.12831135565E+03  0.13140637544E+03  0.00000000000E+00 0.  1.
         11    1    3    3    0    0  0.19456056323E+02 -0.26649835760E+02 -0.59024710430E+01  0.33520009518E+02  0.00000000000E+00 0. -1.
        -13    1    4    4    0    0  0.22032505043E+02  0.41240927491E+01 -0.14927421881E+02  0.26930788022E+02  0.00000000000E+00 0.  1.
         13    1    4    4    0    0 -0.90390478673E+02  0.34843132128E+02 -0.11063909434E+03  0.14705608348E+03  0.00000000000E+00 0. -1.
         -1    1    1    2    0  502  0.26501600491E+02  0.50624073303E+01 -0.35544803776E+02  0.44625058790E+02  0.00000000000E+00 0.  1.
<scales pt_clust_5="13000.00000" pt_clust_6="13000.00000" pt_clust_7="13000.00000" pt_clust_8="13000.00000" pt_clust_9="26.98079"></scales>
<clustering>
<clus scale="   26.981">  2  9  1 -1</clus>
<clus scale="   91.177">  7  8 -1 -1</clus>
<clus scale="   92.337">  5  6 -1 -1</clus>
<clus scale="  110.614">  2  7  1 -1</clus>
<clus scale="   26.981">  2  5  1 -1</clus>
</clustering>
</event>
<event>
 9    1  0.1426358E-005  0.3002257E+03  0.7546771E-02  0.1085222E+00
         21   -1    0    0  501  502  0.00000000000E+00  0.00000000000E+00  0.22191173185E+03  0.22191173185E+03  0.00000000000E+00 0.  1.
          1   -1    0    0  502    0 -0.00000000000E+00 -0.00000000000E+00 -0.10229114491E+04  0.10229114491E+04  0.00000000000E+00 0. -1.
         23    2    1    2    0    0 -0.13303841124E+03 -0.24831358228E+03 -0.82019547351E+03  0.87217916502E+03  0.92827943602E+02 0.  0.
         23    2    1    2    0    0  0.15017199417E+03  0.26805387298E+03 -0.25058308740E+02  0.32124692446E+03  0.90372346334E+02 0.  0.
        -13    1    4    4    0    0  0.53893529415E+02  0.32528240393E+02 -0.22316533010E+02  0.66787922422E+02  0.00000000000E+00 0. -1.
         13    1    4    4    0    0  0.96278464755E+02  0.23552563259E+03 -0.27417757303E+01  0.25445900203E+03  0.00000000000E+00 0.  1.
        -13    1    3    3    0    0 -0.14125846188E+03 -0.22675946141E+03 -0.79143539078E+03  0.83531059143E+03  0.00000000000E+00 0. -1.
         13    1    3    3    0    0  0.82200506406E+01 -0.21554120872E+02 -0.28760082735E+02  0.36868573583E+02  0.00000000000E+00 0.  1.
          1    1    1    2  501    0 -0.17133582927E+02 -0.19740290702E+02  0.44254065008E+02  0.51397091461E+02  0.00000000000E+00 0. -1.
<scales pt_clust_5="13000.00000" pt_clust_6="13000.00000" pt_clust_7="13000.00000" pt_clust_8="13000.00000" pt_clust_9="26.13884"></scales>
<clustering>
<clus scale="   26.139">  1  9  2 -1</clus>
<clus scale="   90.372">  5  6 -1 -1</clus>
<clus scale="   92.828">  7  8 -1 -1</clus>
<clus scale="  299.476">  1  5  2 -1</clus>
<clus scale="   26.139">  1  5  2 -1</clus>
</clustering>
</event>
<event>
 9    1  0.1426358E-005  0.1310382E+03  0.7546771E-02  0.1227773E+00
          2   -1    0    0  502    0 -0.00000000000E+00  0.00000000000E+00  0.25690539163E+03  0.25690539163E+03  0.00000000000E+00 0. -1.
         21   -1    0    0  501  502  0.00000000000E+00 -0.00000000000E+00 -0.86946300998E+02  0.86946300998E+02  0.00000000000E+00 0.  1.
         23    2    1    2    0    0 -0.70691354235E+02 -0.73198781498E+02  0.11280408586E+03  0.17738310826E+03  0.91567877195E+02 0.  0.
         23    2    1    2    0    0  0.54857907108E+02  0.41612780934E+02  0.51995443766E+02  0.13076151854E+03  0.98254949239E+02 0.  0.
        -11    1    4    4    0    0 -0.80089886148E+01 -0.23361532367E+02 -0.30952380883E+01  0.24889467491E+02  0.00000000000E+00 0.  1.
         11    1    4    4    0    0  0.62866895723E+02  0.64974313301E+02  0.55090681855E+02  0.10587205105E+03  0.00000000000E+00 0. -1.
        -11    1    3    3    0    0 -0.76016067316E+02 -0.40294300121E+02  0.11540895802E+03  0.14394895173E+03  0.00000000000E+00 0. -1.
         11    1    3    3    0    0  0.53247130817E+01 -0.32904481377E+02 -0.26048721613E+01  0.33434156533E+02  0.00000000000E+00 0.  1.
          2    1    1    2  501    0  0.15833447127E+02  0.31586000564E+02  0.51595610007E+01  0.35707065817E+02  0.00000000000E+00 0. -1.
<scales pt_clust_5="13000.00000" pt_clust_6="13000.00000" pt_clust_7="13000.00000" pt_clust_8="13000.00000" pt_clust_9="35.33233"></scales>
<clustering>
<clus scale="   35.332">  2  9  1 -1</clus>
<clus scale="   91.568">  7  8 -1 -1</clus>
<clus scale="   98.255">  5  6 -1 -1</clus>
<clus scale="  126.102">  1  7  2 -1</clus>
<clus scale="   35.332">  2  5  1 -1</clus>
</clustering>
</event>
<event>
 9    1  0.1426358E-005  0.9871248E+02  0.7546771E-02  0.1283039E+00
         -2   -1    0    0    0  501 -0.00000000000E+00  0.00000000000E+00  0.25135710235E+03  0.25135710235E+03  0.00000000000E+00 0.  1.
         21   -1    0    0  501  502  0.00000000000E+00 -0.00000000000E+00 -0.12998101892E+03  0.12998101892E+03  0.00000000000E+00 0.  1.
         23    2    1    2    0    0  0.42054758294E+02 -0.12629764852E+02  0.13355906200E+03  0.16764514332E+03  0.91316796812E+02 0.  0.
         23    2    1    2    0    0 -0.16760905690E+02  0.30769739641E+02  0.73631840526E+02  0.12240759664E+03  0.91292206341E+02 0.  0.
        -11    1    3    3    0    0  0.26043374529E+02 -0.52356950442E+02  0.78588337416E+02  0.97957309040E+02  0.00000000000E+00 0.  1.
         11    1    3    3    0    0  0.16011383765E+02  0.39727185590E+02  0.54970724587E+02  0.69687834279E+02  0.00000000000E+00 0. -1.
        -11    1    4    4    0    0 -0.20389573419E+02  0.57397494933E+02  0.23044159527E+02  0.65124806465E+02  0.00000000000E+00 0. -1.
         11    1    4    4    0    0  0.36286677291E+01 -0.26627755292E+02  0.50587680999E+02  0.57282790175E+02  0.00000000000E+00 0.  1.
         -2    1    1    2    0  502 -0.25293852604E+02 -0.18139974789E+02 -0.85814819098E+02  0.91285381315E+02  0.00000000000E+00 0.  1.
<scales pt_clust_5="13000.00000" pt_clust_6="13000.00000" pt_clust_7="13000.00000" pt_clust_8="13000.00000" pt_clust_9="31.12616"></scales>
<clustering>
<clus scale="   31.126">  2  9  1 -1</clus>
<clus scale="   91.292">  7  8 -1 -1</clus>
<clus scale="   91.317">  5  6 -1 -1</clus>
<clus scale="   98.690">  2  7  1 -1</clus>
<clus scale="   31.126">  2  5  1 -1</clus>
</clustering>
</event>
<event>
 9    1  0.1426358E-005  0.1428299E+03  0.7546771E-02  0.1210788E+00
          1   -1    0    0  502    0 -0.00000000000E+00  0.00000000000E+00  0.54475277129E+03  0.54475277129E+03  0.00000000000E+00 0. -1.
         21   -1    0    0  501  502  0.00000000000E+00 -0.00000000000E+00 -0.59949877893E+02  0.59949877893E+02  0.00000000000E+00 0.  1.
         23    2    1    2    0    0  0.59341501552E+02 -0.74597425005E+02  0.27619335674E+03  0.30756190234E+03  0.96048757617E+02 0.  0.
         23    2    1    2    0    0 -0.49642178296E+02  0.11529029939E+03  0.20250190567E+03  0.25486439348E+03  0.90513193849E+02 0.  0.
        -11    1    4    4    0    0  0.21676557905E+02  0.61601204365E+02  0.91689917263E+02  0.11256830135E+03  0.00000000000E+00 0.  1.
         11    1    4    4    0    0 -0.71318736201E+02  0.53689095028E+02  0.11081198841E+03  0.14229609212E+03  0.00000000000E+00 0. -1.
        -13    1    3    3    0    0 -0.22464455761E+02 -0.81524948223E+01  0.22394316742E+02  0.32750883451E+02  0.00000000000E+00 0.  1.
         13    1    3    3    0    0  0.81805957313E+02 -0.66444930183E+02  0.25379904000E+03  0.27481101889E+03  0.00000000000E+00 0. -1.
          1    1    1    2  501    0 -0.96993232563E+01 -0.40692874388E+02  0.61076309826E+01  0.42276353365E+02  0.00000000000E+00 0. -1.
<scales pt_clust_5="13000.00000" pt_clust_6="13000.00000" pt_clust_7="13000.00000" pt_clust_8="13000.00000" pt_clust_9="41.83284"></scales>
<clustering>
<clus scale="   41.833">  2  9  1 -1</clus>
<clus scale="   90.513">  5  6 -1 -1</clus>
<clus scale="   96.049">  7  8 -1 -1</clus>
<clus scale="  139.168">  2  5  1 -1</clus>
<clus scale="   41.833">  2  5  1 -1</clus>
</clustering>
</event>
<event>
 9    1  0.1648284E-005  0.1021602E+03  0.7546771E-02  0.1280308E+00
         21   -1    0    0  501  502  0.00000000000E+00  0.00000000000E+00  0.17106986978E+03  0.17106986978E+03  0.00000000000E+00 0.  1.
          2   -1    0    0  502    0 -0.00000000000E+00 -0.00000000000E+00 -0.51670968989E+03  0.51670968989E+03  0.00000000000E+00 0.  1.
         23    2    1    2    0    0 -0.52994213460E+02  0.20567779399E-01 -0.35349290609E+03  0.36662685058E+03  0.81545237943E+02 0.  0.
         23    2    1    2    0    0  0.24889158154E+02  0.37145242214E+02 -0.13615256004E+03  0.16979611804E+03  0.91071196792E+02 0.  0.
        -11    1    3    3    0    0 -0.22386069600E+02  0.39975172805E+02 -0.19615558079E+03  0.20143525617E+03  0.00000000000E+00 0.  1.
         11    1    3    3    0    0 -0.30608143860E+02 -0.39954605026E+02 -0.15733732530E+03  0.16519159442E+03  0.00000000000E+00 0. -1.
        -13    1    4    4    0    0 -0.86479474034E+01 -0.18920984080E+02 -0.24010245731E+01  0.20941717977E+02  0.00000000000E+00 0. -1.
         13    1    4    4    0    0  0.33537105557E+02  0.56066226294E+02 -0.13375153547E+03  0.14885440007E+03  0.00000000000E+00 0.  1.
          2    1    1    2  501    0  0.28105055306E+02 -0.37165809993E+02  0.14400564602E+03  0.15135659104E+03  0.00000000000E+00 0.  1.
<scales pt_clust_5="13000.00000" pt_clust_6="13000.00000" pt_clust_7="13000.00000" pt_clust_8="13000.00000" pt_clust_9="46.59605"></scales>
<clustering>
<clus scale="   46.596">  1  9  2 -1</clus>
<clus scale="   81.545">  5  6 -1 -1</clus>
<clus scale="   91.071">  7  8 -1 -1</clus>
<clus scale="   93.768">  2  5  1 -1</clus>
<clus scale="   46.596">  1  5  2 -1</clus>
</clustering>
</event>
<event>
 9    1  0.1426358E-005  0.1329388E+03  0.7546771E-02  0.1224856E+00
         -3   -1    0    0    0  501 -0.00000000000E+00  0.00000000000E+00  0.84391424907E+03  0.84391424907E+03  0.00000000000E+00 0.  1.
         21   -1    0    0  501  502  0.00000000000E+00 -0.00000000000E+00 -0.64789678624E+02  0.64789678624E+02  0.00000000000E+00 0.  1.
         23    2    1    2    0    0  0.99210126829E+02  0.20117380631E+02  0.71431963896E+03  0.72797536517E+03  0.97201992883E+02 0.  0.
         23    2    1    2    0    0 -0.29476732638E+02 -0.21069169025E+02  0.27002368047E+02  0.10140211064E+03  0.90777048374E+02 0.  0.
        -11    1    3    3    0    0  0.99962300988E+02  0.48769011675E+02  0.54291433199E+03  0.55419026516E+03  0.00000000000E+00 0.  1.
         11    1    3    3    0    0 -0.75217415933E+00 -0.28651631045E+02  0.17140530697E+03  0.17378510001E+03  0.00000000000E+00 0. -1.
        -13    1    4    4    0    0  0.29403017485E+02 -0.17080645324E+02 -0.48367033337E+01  0.34346463880E+02  0.00000000000E+00 0.  1.
         13    1    4    4    0    0 -0.58879750123E+02 -0.39885237003E+01  0.31839071380E+02  0.67055646759E+02  0.00000000000E+00 0. -1.
         -3    1    1    2    0  502 -0.69733394191E+02  0.95178839417E+00  0.37802563444E+02  0.79326451890E+02  0.00000000000E+00 0.  1.
<scales pt_clust_5="13000.00000" pt_clust_6="13000.00000" pt_clust_7="13000.00000" pt_clust_8="13000.00000" pt_clust_9="69.73989"></scales>
<clustering>
<clus scale="   69.740">  2  9  1 -1</clus>
<clus scale="   90.777">  7  8 -1 -1</clus>
<clus scale="   97.202">  5  6 -1 -1</clus>
<clus scale="  128.316">  2  7  1 -1</clus>
<clus scale="   69.740">  2  5  1 -1</clus>
</clustering>
</event>
<event>
 9    1  0.1426358E-005  0.1002718E+03  0.7546771E-02  0.1280362E+00
         21   -1    0    0  501  502  0.00000000000E+00  0.00000000000E+00  0.56388846276E+02  0.56388846276E+02  0.00000000000E+00 0. -1.
         -1   -1    0    0    0  501 -0.00000000000E+00 -0.00000000000E+00 -0.30934512061E+03  0.30934512061E+03  0.00000000000E+00 0.  1.
         23    2    1    2    0    0  0.28513162974E+02  0.23786873370E+02 -0.17293497077E+03  0.19891096172E+03  0.90995883265E+02 0.  0.
         23    2    1    2    0    0 -0.49084596590E+02 -0.19820533584E+01 -0.87021277848E+02  0.13603934559E+03  0.92308041867E+02 0.  0.
        -11    1    4    4    0    0  0.23286782823E+01  0.38843543728E+02 -0.32034476327E+02  0.50402889852E+02  0.00000000000E+00 0. -1.
         11    1    4    4    0    0 -0.51413274872E+02 -0.40825597086E+02 -0.54986801521E+02  0.85636455742E+02  0.00000000000E+00 0.  1.
        -13    1    3    3    0    0 -0.30667292845E+02  0.23095062255E+02 -0.56681681943E+02  0.68459315062E+02  0.00000000000E+00 0.  1.
         13    1    3    3    0    0  0.59180455819E+02  0.69181111546E+00 -0.11625328882E+03  0.13045164666E+03  0.00000000000E+00 0. -1.
         -1    1    1    2    0  502  0.20571433616E+02 -0.21804820012E+02  0.69999742801E+01  0.30783659573E+02  0.00000000000E+00 0.  1.
<scales pt_clust_5="13000.00000" pt_clust_6="13000.00000" pt_clust_7="13000.00000" pt_clust_8="13000.00000" pt_clust_9="29.97723"></scales>
<clustering>
<clus scale="   29.977">  1  9  2 -1</clus>
<clus scale="   90.996">  7  8 -1 -1</clus>
<clus scale="   92.308">  5  6 -1 -1</clus>
<clus scale="   99.065">  2  7  1 -1</clus>
<clus scale="   29.977">  1  5  2 -1</clus>
</clustering>
</event>
<event>
 9    1  0.1426358E-005  0.1207670E+03  0.7546771E-02  0.1241860E+00
         21   -1    0    0  501  502  0.00000000000E+00  0.00000000000E+00  0.52299719409E+03  0.52299719409E+03  0.00000000000E+00 0.  1.
          4   -1    0    0  502    0 -0.00000000000E+00 -0.00000000000E+00 -0.51686294087E+02  0.51686294087E+02  0.00000000000E+00 0. -1.
         23    2    1    2    0    0 -0.69104349250E+02 -0.64629078978E+02  0.14842262591E+03  0.20282688228E+03  0.10078263420E+03 0.  0.
         23    2    1    2    0    0  0.11924841660E+02  0.23644303201E+02  0.24866607653E+03  0.26959135010E+03  0.10071456453E+03 0.  0.
        -11    1    3    3    0    0 -0.20967515363E+02 -0.25083602190E+02 -0.86780642328E+01  0.33825029168E+02  0.00000000000E+00 0. -1.
         11    1    3    3    0    0 -0.48136833886E+02 -0.39545476787E+02  0.15710069014E+03  0.16900185311E+03  0.00000000000E+00 0.  1.
        -13    1    4    4    0    0  0.49636983383E+02 -0.12537569314E+02  0.10769318685E+03  0.11924279121E+03  0.00000000000E+00 0.  1.
         13    1    4    4    0    0 -0.37712141723E+02  0.36181872515E+02  0.14097288969E+03  0.15034855888E+03  0.00000000000E+00 0. -1.
          4    1    1    2  501    0  0.57179507590E+02  0.40984775777E+02  0.74222197563E+02  0.10226525580E+03  0.00000000000E+00 0. -1.
<scales pt_clust_5="13000.00000" pt_clust_6="13000.00000" pt_clust_7="13000.00000" pt_clust_8="13000.00000" pt_clust_9="70.35093"></scales>
<clustering>
<clus scale="   70.351">  1  9  2 -1</clus>
<clus scale="  100.715">  7  8 -1 -1</clus>
<clus scale="  100.783">  5  6 -1 -1</clus>
<clus scale="  120.710">  1  7  2 -1</clus>
<clus scale="   70.351">  1  5  2 -1</clus>
</clustering>
</event>
<event>
 9    1  0.1426358E-005  0.1010960E+03  0.7546771E-02  0.1278646E+00
         21   -1    0    0  501  502  0.00000000000E+00  0.00000000000E+00  0.66001190235E+02  0.66001190235E+02  0.00000000000E+00 0.  1.
         -1   -1    0    0    0  501 -0.00000000000E+00 -0.00000000000E+00 -0.24363713687E+03  0.24363713687E+03  0.00000000000E+00 0.  1.
         23    2    1    2    0    0  0.48808724897E+02 -0.10660287143E+02 -0.11450690978E+03  0.15540080680E+03  0.92421020433E+02 0.  0.
         23    2    1    2    0    0 -0.30853146828E+02 -0.19546858518E+02 -0.67091590903E+02  0.11887403253E+03  0.91081050134E+02 0.  0.
        -11    1    4    4    0    0  0.31738410247E+02  0.14990651257E+01 -0.17360945880E+02  0.36207407020E+02  0.00000000000E+00 0. -1.
         11    1    4    4    0    0 -0.62591557076E+02 -0.21045923644E+02 -0.49730645023E+02  0.82666625513E+02  0.00000000000E+00 0.  1.
        -13    1    3    3    0    0 -0.39453792131E+01 -0.42408883369E+02 -0.56964310684E+02  0.71126732650E+02  0.00000000000E+00 0. -1.
         13    1    3    3    0    0  0.52754104110E+02  0.31748596226E+02 -0.57542599100E+02  0.84274074151E+02  0.00000000000E+00 0.  1.
         -1    1    1    2    0  502 -0.17955578069E+02  0.30207145661E+02  0.39625540515E+01  0.35363487772E+02  0.00000000000E+00 0.  1.
<scales pt_clust_5="13000.00000" pt_clust_6="13000.00000" pt_clust_7="13000.00000" pt_clust_8="13000.00000" pt_clust_9="35.14078"></scales>
<clustering>
<clus scale="   35.141">  1  9  2 -1</clus>
<clus scale="   91.081">  5  6 -1 -1</clus>
<clus scale="   92.421">  7  8 -1 -1</clus>
<clus scale="   99.873">  1  5  2 -1</clus>
<clus scale="   35.141">  1  5  2 -1</clus>
</clustering>
</event>
<event>
 9    1  0.1426358E-005  0.9947472E+02  0.7546771E-02  0.1281960E+00
         -2   -1    0    0    0  501 -0.00000000000E+00  0.00000000000E+00  0.62775266957E+03  0.62775266957E+03  0.00000000000E+00 0.  1.
         21   -1    0    0  501  502  0.00000000000E+00 -0.00000000000E+00 -0.47236008497E+02  0.47236008497E+02  0.00000000000E+00 0.  1.
         23    2    1    2    0    0 -0.55260521470E+01  0.53228143294E+02  0.40590779950E+03  0.41989257038E+03  0.93192577373E+02 0.  0.
         23    2    1    2    0    0  0.33712507705E+02  0.24074577567E+02  0.11758594916E+03  0.15498716967E+03  0.92078492943E+02 0.  0.
        -13    1    3    3    0    0 -0.47854366923E+02  0.15981876337E+02  0.16916210201E+03  0.17652557198E+03  0.00000000000E+00 0. -1.
         13    1    3    3    0    0  0.42328314776E+02  0.37246266958E+02  0.23674569748E+03  0.24336699840E+03  0.00000000000E+00 0.  1.
        -13    1    4    4    0    0 -0.11319349788E+02 -0.24023774827E+02  0.66522937628E+02  0.71628001977E+02  0.00000000000E+00 0. -1.
         13    1    4    4    0    0  0.45031857493E+02  0.48098352394E+02  0.51063011531E+02  0.83359167696E+02  0.00000000000E+00 0.  1.
         -2    1    1    2    0  502 -0.28186455558E+02 -0.77302720861E+02  0.57022912414E+02  0.10010893801E+03  0.00000000000E+00 0.  1.
<scales pt_clust_5="13000.00000" pt_clust_6="13000.00000" pt_clust_7="13000.00000" pt_clust_8="13000.00000" pt_clust_9="82.28115"></scales>
<clustering>
<clus scale="   82.281">  2  9  1 -1</clus>
<clus scale="   92.078">  7  8 -1 -1</clus>
<clus scale="   93.193">  5  6 -1 -1</clus>
<clus scale="   98.432">  2  7  1 -1</clus>
<clus scale="   82.281">  2  5  1 -1</clus>
</clustering>
</event>
<event>
 9    1  0.1426358E-005  0.4152631E+03  0.7546771E-02  0.1038682E+00
         21   -1    0    0  501  502  0.00000000000E+00  0.00000000000E+00  0.43733802905E+03  0.43733802905E+03  0.00000000000E+00 0. -1.
          3   -1    0    0  502    0 -0.00000000000E+00 -0.00000000000E+00 -0.79733314189E+03  0.79733314189E+03  0.00000000000E+00 0. -1.
         23    2    1    2    0    0  0.21369671497E+03 -0.35477863002E+03 -0.58901054837E+03  0.72575587582E+03  0.90851543099E+02 0.  0.
         23    2    1    2    0    0 -0.19655843508E+03  0.31364796699E+03  0.13269153721E+03  0.40278450097E+03  0.87281410288E+02 0.  0.
        -13    1    3    3    0    0  0.12721949696E+03 -0.27398925769E+03 -0.46349074714E+03  0.55324369533E+03  0.00000000000E+00 0. -1.
         13    1    3    3    0    0  0.86477218008E+02 -0.80789372330E+02 -0.12551980123E+03  0.17251218049E+03  0.00000000000E+00 0.  1.
        -13    1    4    4    0    0 -0.10308793297E+03  0.93949556010E+02  0.69369680001E+02  0.15577481665E+03  0.00000000000E+00 0.  1.
         13    1    4    4    0    0 -0.93470502111E+02  0.21969841098E+03  0.63321857209E+02  0.24700968433E+03  0.00000000000E+00 0. -1.
          3    1    1    2  501    0 -0.17138279894E+02  0.41130663033E+02  0.96323898324E+02  0.10613079415E+03  0.00000000000E+00 0. -1.
<scales pt_clust_5="13000.00000" pt_clust_6="13000.00000" pt_clust_7="13000.00000" pt_clust_8="13000.00000" pt_clust_9="44.55841"></scales>
<clustering>
<clus scale="   44.558">  1  9  2 -1</clus>
<clus scale="   87.281">  7  8 -1 -1</clus>
<clus scale="   90.852">  5  6 -1 -1</clus>
<clus scale="  414.497">  1  7  2 -1</clus>
<clus scale="   44.558">  1  5  2 -1</clus>
</clustering>
</event>
<event>
 9    1  0.1426358E-005  0.1066004E+03  0.7546771E-02  0.1267351E+00
          1   -1    0    0  502    0 -0.00000000000E+00  0.00000000000E+00  0.47276471928E+03  0.47276471928E+03  0.00000000000E+00 0. -1.
         21   -1    0    0  501  502  0.00000000000E+00 -0.00000000000E+00 -0.42898405790E+02  0.42898405790E+02  0.00000000000E+00 0.  1.
         23    2    1    2    0    0 -0.19953644917E+02  0.50826354598E+02  0.25459828674E+03  0.27510485086E+03  0.88774574556E+02 0.  0.
         23    2    1    2    0    0 -0.14677506744E+02 -0.76971120038E+02  0.10392453034E+03  0.15705522094E+03  0.87897962972E+02 0.  0.
        -11    1    4    4    0    0 -0.11794357576E+02 -0.48521663675E+02  0.69606555357E+00  0.49939395508E+02  0.00000000000E+00 0.  1.
         11    1    4    4    0    0 -0.28831491677E+01 -0.28449456363E+02  0.10322846478E+03  0.10711582543E+03  0.00000000000E+00 0. -1.
        -13    1    3    3    0    0 -0.47460526948E+02  0.58530741143E+02  0.19364029512E+03  0.20778573862E+03  0.00000000000E+00 0. -1.
         13    1    3    3    0    0  0.27506882031E+02 -0.77043865451E+01  0.60957991616E+02  0.67319112241E+02  0.00000000000E+00 0.  1.
          1    1    1    2  501    0  0.34631151661E+02  0.26144765441E+02  0.71343496411E+02  0.83503053270E+02  0.00000000000E+00 0. -1.
<scales pt_clust_5="13000.00000" pt_clust_6="13000.00000" pt_clust_7="13000.00000" pt_clust_8="13000.00000" pt_clust_9="43.39202"></scales>
<clustering>
<clus scale="   43.392">  2  9  1 -1</clus>
<clus scale="   87.898">  5  6 -1 -1</clus>
<clus scale="   88.775">  7  8 -1 -1</clus>
<clus scale="  105.872">  2  5  1 -1</clus>
<clus scale="   43.392">  2  5  1 -1</clus>
</clustering>
</event>
<event>
 9    1  0.1426358E-005  0.1043208E+03  0.7546771E-02  0.1272184E+00
         21   -1    0    0  501  502  0.00000000000E+00  0.00000000000E+00  0.17332522816E+03  0.17332522816E+03  0.00000000000E+00 0. -1.
          1   -1    0    0  502    0 -0.00000000000E+00 -0.00000000000E+00 -0.40121578169E+03  0.40121578169E+03  0.00000000000E+00 0. -1.
         23    2    1    2    0    0 -0.40658225300E+02  0.23529249288E+02 -0.32475027686E+03  0.34085526473E+03  0.92265119712E+02 0.  0.
         23    2    1    2    0    0  0.14986776133E+02 -0.46035019832E+02 -0.23820875968E+02  0.10826907933E+03  0.93866569646E+02 0.  0.
        -13    1    4    4    0    0  0.21802883900E+02  0.10942367868E+02 -0.41573400044E+02  0.48202165430E+02  0.00000000000E+00 0. -1.
         13    1    4    4    0    0 -0.68161077665E+01 -0.56977387700E+02  0.17752524076E+02  0.60066913899E+02  0.00000000000E+00 0.  1.
        -13    1    3    3    0    0 -0.35884178471E+02 -0.21534658184E+02 -0.24971656374E+03  0.25319908763E+03  0.00000000000E+00 0.  1.
         13    1    3    3    0    0 -0.47740468293E+01  0.45063907472E+02 -0.75033713116E+02  0.87656177100E+02  0.00000000000E+00 0. -1.
          1    1    1    2  501    0  0.25671449167E+02  0.22505770545E+02  0.12068059930E+03  0.12541666579E+03  0.00000000000E+00 0. -1.
<scales pt_clust_5="13000.00000" pt_clust_6="13000.00000" pt_clust_7="13000.00000" pt_clust_8="13000.00000" pt_clust_9="34.13990"></scales>
<clustering>
<clus scale="   34.140">  1  9  2 -1</clus>
<clus scale="   92.265">  7  8 -1 -1</clus>
<clus scale="   93.867">  5  6 -1 -1</clus>
<clus scale="  102.882">  2  7  1 -1</clus>
<clus scale="   34.140">  1  5  2 -1</clus>
</clustering>
</event>
<event>
 9    1  0.1426358E-005  0.1025979E+03  0.7546771E-02  0.1276356E+00
         21   -1    0    0  501  502  0.00000000000E+00  0.00000000000E+00  0.42250706682E+03  0.42250706682E+03  0.00000000000E+00 0.  1.
          4   -1    0    0  502    0 -0.00000000000E+00 -0.00000000000E+00 -0.10184980755E+03  0.10184980755E+03  0.00000000000E+00 0. -1.
         23    2    1    2    0    0  0.17672135322E+00 -0.40171224838E+02 -0.41598442883E+02  0.10546140792E+03  0.88192514280E+02 0.  0.
         23    2    1    2    0    0 -0.35188705623E+02  0.10058744936E+03  0.24981597950E+03  0.28653742756E+03  0.91321376511E+02 0.  0.
        -11    1    3    3    0    0 -0.16773694059E+02 -0.28283214120E+02  0.21343011105E+02  0.39202310345E+02  0.00000000000E+00 0.  1.
         11    1    3    3    0    0  0.16950415412E+02 -0.11888010718E+02 -0.62941453988E+02  0.66259097576E+02  0.00000000000E+00 0. -1.
        -13    1    4    4    0    0 -0.12951486186E+02  0.11046762108E+03  0.17048379779E+03  0.20355726863E+03  0.00000000000E+00 0.  1.
         13    1    4    4    0    0 -0.22237219437E+02 -0.98801717263E+01  0.79332181711E+02  0.82980158933E+02  0.00000000000E+00 0. -1.
          4    1    1    2  501    0  0.35011984270E+02 -0.60416224520E+02  0.11243972265E+03  0.13235803889E+03  0.00000000000E+00 0. -1.
<scales pt_clust_5="13000.00000" pt_clust_6="13000.00000" pt_clust_7="13000.00000" pt_clust_8="13000.00000" pt_clust_9="69.82807"></scales>
<clustering>
<clus scale="   69.828">  1  9  2 -1</clus>
<clus scale="   88.193">  5  6 -1 -1</clus>
<clus scale="   91.321">  7  8 -1 -1</clus>
<clus scale="   99.823">  2  5  1 -1</clus>
<clus scale="   69.828">  1  5  2 -1</clus>
</clustering>
</event>
<event>
 9    1  0.1426358E-005  0.1563312E+03  0.7546771E-02  0.1193130E+00
         21   -1    0    0  501  502  0.00000000000E+00  0.00000000000E+00  0.12535430667E+03  0.12535430667E+03  0.00000000000E+00 0. -1.
          2   -1    0    0  502    0 -0.00000000000E+00 -0.00000000000E+00 -0.28298794692E+03  0.28298794692E+03  0.00000000000E+00 0. -1.
         23    2    1    2    0    0 -0.13589406571E+03  0.19621023447E+02 -0.93200098035E+02  0.18953418487E+03  0.91568375030E+02 0.  0.
         23    2    1    2    0    0  0.10087046234E+03 -0.64713993859E+02 -0.32880566301E+02  0.15357296267E+03  0.90226227057E+02 0.  0.
        -13    1    3    3    0    0 -0.71599484727E+02  0.40094011555E+02 -0.10392627751E+02  0.82716520038E+02  0.00000000000E+00 0.  1.
         13    1    3    3    0    0 -0.64294580979E+02 -0.20472988108E+02 -0.82807470284E+02  0.10681766483E+03  0.00000000000E+00 0. -1.
        -13    1    4    4    0    0  0.67681455584E+02  0.84033615877E+01 -0.42841374470E+01  0.68335567237E+02  0.00000000000E+00 0.  1.
         13    1    4    4    0    0  0.33189006756E+02 -0.73117355446E+02 -0.28596428854E+02  0.85237395432E+02  0.00000000000E+00 0. -1.
          2    1    1    2  501    0  0.35023603366E+02  0.45092970412E+02 -0.31552975915E+02  0.65235106058E+02  0.00000000000E+00 0. -1.
<scales pt_clust_5="13000.00000" pt_clust_6="13000.00000" pt_clust_7="13000.00000" pt_clust_8="13000.00000" pt_clust_9="57.09669"></scales>
<clustering>
<clus scale="   57.097">  1  9  2 -1</clus>
<clus scale="   90.226">  7  8 -1 -1</clus>
<clus scale="   91.568">  5  6 -1 -1</clus>
<clus scale="  155.549">  1  7  2 -1</clus>
<clus scale="   57.097">  1  5  2 -1</clus>
</clustering>
</event>
<event>
 9    1  0.1426358E-005  0.1285585E+03  0.7546771E-02  0.1230642E+00
          1   -1    0    0  502    0 -0.00000000000E+00  0.00000000000E+00  0.73083985139E+03  0.73083985139E+03  0.00000000000E+00 0. -1.
         21   -1    0    0  501  502  0.00000000000E+00 -0.00000000000E+00 -0.11556353732E+03  0.11556353732E+03  0.00000000000E+00 0. -1.
         23    2    1    2    0    0 -0.90630194694E+02 -0.62357425596E+02  0.56591974368E+03  0.58296461618E+03  0.86488766420E+02 0.  0.
         23    2    1    2    0    0  0.50922000358E+02  0.13815756008E+02  0.12639562767E+03  0.16410070967E+03  0.90383975275E+02 0.  0.
        -11    1    3    3    0    0 -0.17879246216E+02  0.14265021667E+02  0.36275946798E+02  0.42884759583E+02  0.00000000000E+00 0.  1.
         11    1    3    3    0    0 -0.72750948478E+02 -0.76622447263E+02  0.52964379688E+03  0.54007985660E+03  0.00000000000E+00 0. -1.
        -11    1    4    4    0    0 -0.19721038596E+02 -0.18048329890E+02  0.39147852723E+02  0.47404809334E+02  0.00000000000E+00 0.  1.
         11    1    4    4    0    0  0.70643038954E+02  0.31864085898E+02  0.87247774947E+02  0.11669590034E+03  0.00000000000E+00 0. -1.
          1    1    1    2  501    0  0.39708194336E+02  0.48541669588E+02 -0.77039057284E+02  0.99338062851E+02  0.00000000000E+00 0. -1.
<scales pt_clust_5="13000.00000" pt_clust_6="13000.00000" pt_clust_7="13000.00000" pt_clust_8="13000.00000" pt_clust_9="62.71391"></scales>
<clustering>
<clus scale="   62.714">  2  9  1 -1</clus>
<clus scale="   86.489">  5  6 -1 -1</clus>
<clus scale="   90.384">  7  8 -1 -1</clus>
<clus scale="  125.850">  1  5  2 -1</clus>
<clus scale="   62.714">  2  5  1 -1</clus>
</clustering>
</event>
<event>
 9    1  0.1426358E-005  0.1128310E+03  0.7546771E-02  0.1256512E+00
          2   -1    0    0  502    0 -0.00000000000E+00  0.00000000000E+00  0.28264796506E+03  0.28264796506E+03  0.00000000000E+00 0. -1.
         21   -1    0    0  501  502  0.00000000000E+00 -0.00000000000E+00 -0.10100074775E+03  0.10100074775E+03  0.00000000000E+00 0. -1.
         23    2    1    2    0    0  0.18764192560E+02  0.52628538657E+02  0.18129105464E+03  0.21223639407E+03  0.95162925922E+02 0.  0.
         23    2    1    2    0    0 -0.66940031740E+01 -0.75272687453E+02  0.38593827152E+02  0.12536271579E+03  0.92279682824E+02 0.  0.
        -11    1    3    3    0    0  0.48596431940E+02  0.61952130684E+02  0.13725185608E+03  0.15823321930E+03  0.00000000000E+00 0. -1.
         11    1    3    3    0    0 -0.29832239380E+02 -0.93235920271E+01  0.44039198560E+02  0.54003174763E+02  0.00000000000E+00 0.  1.
        -11    1    4    4    0    0  0.15970814799E+02 -0.58947731164E+02  0.63381721547E+02  0.88017865010E+02  0.00000000000E+00 0. -1.
         11    1    4    4    0    0 -0.22664817973E+02 -0.16324956289E+02 -0.24787894394E+02  0.37344850784E+02  0.00000000000E+00 0.  1.
          2    1    1    2  501    0 -0.12070189386E+02  0.22644148796E+02 -0.38237664483E+02  0.46049602948E+02  0.00000000000E+00 0. -1.
<scales pt_clust_5="13000.00000" pt_clust_6="13000.00000" pt_clust_7="13000.00000" pt_clust_8="13000.00000" pt_clust_9="25.66022"></scales>
<clustering>
<clus scale="   25.660">  2  9  1 -1</clus>
<clus scale="   92.280">  7  8 -1 -1</clus>
<clus scale="   95.163">  5  6 -1 -1</clus>
<clus scale="  110.410">  2  7  1 -1</clus>
<clus scale="   25.660">  2  5  1 -1</clus>
</clustering>
</event>
<event>
 9    1  0.1426358E-005  0.1071544E+03  0.7546771E-02  0.1266716E+00
          3   -1    0    0  502    0 -0.00000000000E+00  0.00000000000E+00  0.62701178456E+03  0.62701178456E+03  0.00000000000E+00 0. -1.
         21   -1    0    0  501  502  0.00000000000E+00 -0.00000000000E+00 -0.42723823399E+02  0.42723823399E+02  0.00000000000E+00 0. -1.
         23    2    1    2    0    0 -0.49755152292E+02  0.12887185182E+01  0.45224828591E+03  0.46425876236E+03  0.92360437132E+02 0.  0.
         23    2    1    2    0    0  0.71561675366E+02  0.24037896298E+02  0.12409379433E+03  0.17112427815E+03  0.90472951424E+02 0.  0.
        -11    1    3    3    0    0 -0.36680384675E+02  0.45405780043E+02  0.22941296700E+03  0.23672229491E+03  0.00000000000E+00 0. -1.
         11    1    3    3    0    0 -0.13074767617E+02 -0.44117061524E+02  0.22283531892E+03  0.22753646746E+03  0.00000000000E+00 0.  1.
        -13    1    4    4    0    0  0.21954331599E+02  0.39943583523E+01 -0.11681525738E+02  0.25187409914E+02  0.00000000000E+00 0.  1.
         13    1    4    4    0    0  0.49607343767E+02  0.20043537946E+02  0.13577532007E+03  0.14593686823E+03  0.00000000000E+00 0. -1.
          3    1    1    2  501    0 -0.21806523074E+02 -0.25326614816E+02  0.79458809124E+01  0.34352567445E+02  0.00000000000E+00 0. -1.
<scales pt_clust_5="13000.00000" pt_clust_6="13000.00000" pt_clust_7="13000.00000" pt_clust_8="13000.00000" pt_clust_9="33.42098"></scales>
<clustering>
<clus scale="   33.421">  2  9  1 -1</clus>
<clus scale="   90.473">  7  8 -1 -1</clus>
<clus scale="   92.360">  5  6 -1 -1</clus>
<clus scale="  105.532">  2  7  1 -1</clus>
<clus scale="   33.421">  2  5  1 -1</clus>
</clustering>
</event>
<event>
 9    1  0.1426358E-005  0.1170052E+03  0.7546771E-02  0.1252139E+00
          1   -1    0    0  502    0 -0.00000000000E+00  0.00000000000E+00  0.39814606717E+03  0.39814606717E+03  0.00000000000E+00 0. -1.
         21   -1    0    0  501  502  0.00000000000E+00 -0.00000000000E+00 -0.51663683110E+02  0.51663683110E+02  0.00000000000E+00 0. -1.
         23    2    1    2    0    0  0.41037963819E+01  0.70963796239E+02  0.27808267816E+03  0.30364083590E+03  0.99071084658E+02 0.  0.
         23    2    1    2    0    0 -0.39399281065E+01 -0.40164645404E+02  0.42484472286E+02  0.10591703394E+03  0.88231320517E+02 0.  0.
        -11    1    3    3    0    0  0.38602045788E+02  0.71303254808E+02  0.14469882731E+03  0.16586748539E+03  0.00000000000E+00 0. -1.
         11    1    3    3    0    0 -0.34498249407E+02 -0.33945856922E+00  0.13338385085E+03  0.13777335051E+03  0.00000000000E+00 0.  1.
        -13    1    4    4    0    0  0.22539590550E+02  0.14009194466E+02 -0.75182434417E+01  0.27582868890E+02  0.00000000000E+00 0.  1.
         13    1    4    4    0    0 -0.26479518656E+02 -0.54173839870E+02  0.50002715728E+02  0.78334165054E+02  0.00000000000E+00 0. -1.
          1    1    1    2  501    0 -0.16386827543E+00 -0.30799150835E+02  0.25915233619E+02  0.40251880435E+02  0.00000000000E+00 0. -1.
<scales pt_clust_5="13000.00000" pt_clust_6="13000.00000" pt_clust_7="13000.00000" pt_clust_8="13000.00000" pt_clust_9="30.79959"></scales>
<clustering>
<clus scale="   30.800">  2  9  1 -1</clus>
<clus scale="   88.231">  7  8 -1 -1</clus>
<clus scale="   99.071">  5  6 -1 -1</clus>
<clus scale="  107.981">  2  7  1 -1</clus>
<clus scale="   30.800">  2  5  1 -1</clus>
</clustering>
</event>
<event>
 9    1  0.1426358E-005  0.1389215E+03  0.7546771E-02  0.1214930E+00
          1   -1    0    0  502    0 -0.00000000000E+00  0.00000000000E+00  0.66476413444E+02  0.66476413444E+02  0.00000000000E+00 0. -1.
         21   -1    0    0  501  502  0.00000000000E+00 -0.00000000000E+00 -0.73524181936E+03  0.73524181936E+03  0.00000000000E+00 0. -1.
         23    2    1    2    0    0 -0.10724400991E+03 -0.28732644317E+02 -0.45747948189E+02  0.14941711804E+03  0.88914328929E+02 0.  0.
         23    2    1    2    0    0  0.70226089895E+02  0.68463998812E+02 -0.35959163160E+03  0.38333629773E+03  0.89563121898E+02 0.  0.
        -11    1    4    4    0    0  0.23304396042E+02  0.79699052603E+02 -0.19831768484E+03  0.21499985577E+03  0.00000000000E+00 0. -1.
         11    1    4    4    0    0  0.46921693853E+02 -0.11235053791E+02 -0.16127394676E+03  0.16833644196E+03  0.00000000000E+00 0.  1.
        -11    1    3    3    0    0 -0.69328346810E+02 -0.41732127131E+02 -0.66080198830E+02  0.10447288061E+03  0.00000000000E+00 0.  1.
         11    1    3    3    0    0 -0.37915663100E+02  0.12999482814E+02  0.20332250641E+02  0.44944237426E+02  0.00000000000E+00 0. -1.
          1    1    1    2  501    0  0.37017920014E+02 -0.39731354495E+02 -0.26342582612E+03  0.26896481703E+03  0.00000000000E+00 0. -1.
<scales pt_clust_5="13000.00000" pt_clust_6="13000.00000" pt_clust_7="13000.00000" pt_clust_8="13000.00000" pt_clust_9="54.30384"></scales>
<clustering>
<clus scale="   54.304">  2  9  1 -1</clus>
<clus scale="   88.914">  7  8 -1 -1</clus>
<clus scale="   89.563">  5  6 -1 -1</clus>
<clus scale="  138.504">  1  7  2 -1</clus>
<clus scale="   54.304">  2  5  1 -1</clus>
</clustering>
</event>
<event>
 9    1  0.1426358E-005  0.1009780E+03  0.7546771E-02  0.1281726E+00
         21   -1    0    0  501  502  0.00000000000E+00  0.00000000000E+00  0.13747224749E+03  0.13747224749E+03  0.00000000000E+00 0. -1.
         -2   -1    0    0    0  501 -0.00000000000E+00 -0.00000000000E+00 -0.14557630542E+03  0.14557630542E+03  0.00000000000E+00 0.  1.
         23    2    1    2    0    0  0.22607419216E+02 -0.24361962560E+02 -0.83825559231E+02  0.12715305257E+03  0.89646939575E+02 0.  0.
         23    2    1    2    0    0 -0.12058678406E+01  0.24765594888E+02  0.27747625969E+02  0.10336282446E+03  0.96432120820E+02 0.  0.
        -11    1    3    3    0    0  0.27771603058E+02 -0.17060755386E+01  0.10702100474E+02  0.29811198982E+02  0.00000000000E+00 0. -1.
         11    1    3    3    0    0 -0.51641838419E+01 -0.22655887021E+02 -0.94527659706E+02  0.97341853593E+02  0.00000000000E+00 0.  1.
        -11    1    4    4    0    0  0.14623046838E+02 -0.24253363474E+02 -0.18753626590E+02  0.33967008243E+02  0.00000000000E+00 0.  1.
         11    1    4    4    0    0 -0.15828914679E+02  0.49018958362E+02  0.46501252559E+02  0.69395816217E+02  0.00000000000E+00 0. -1.
         -2    1    1    2    0  502 -0.21401551376E+02 -0.40363232802E+00  0.47973875336E+02  0.52532675880E+02  0.00000000000E+00 0.  1.
<scales pt_clust_5="13000.00000" pt_clust_6="13000.00000" pt_clust_7="13000.00000" pt_clust_8="13000.00000" pt_clust_9="21.40536"></scales>
<clustering>
<clus scale="   21.405">  1  9  2 -1</clus>
<clus scale="   89.647">  5  6 -1 -1</clus>
<clus scale="   94.520">  2  5  1 -1</clus>
<clus scale="   96.432">  7  8 -1 -1</clus>
<clus scale="   21.405">  1  5  2 -1</clus>
</clustering>
</event>
<event>
 9    1  0.1426358E-005  0.1043671E+03  0.7546771E-02  0.1272213E+00
         21   -1    0    0  501  502  0.00000000000E+00  0.00000000000E+00  0.10069369051E+04  0.10069369051E+04  0.00000000000E+00 0.  1.
          2   -1    0    0  502    0 -0.00000000000E+00 -0.00000000000E+00 -0.18642705538E+02  0.18642705538E+02  0.00000000000E+00 0. -1.
         23    2    1    2    0    0 -0.33971942911E+02 -0.12955043339E+02  0.21476027858E+03  0.23703531420E+03  0.93497790727E+02 0.  0.
         23    2    1    2    0    0  0.61422850795E+02  0.35377853061E+02  0.53546956951E+03  0.54785576289E+03  0.91618327687E+02 0.  0.
        -11    1    3    3    0    0 -0.19866573949E+02 -0.32403227504E+02  0.20886844938E+03  0.21229856114E+03  0.00000000000E+00 0.  1.
         11    1    3    3    0    0 -0.14105368962E+02  0.19448184165E+02  0.58918291931E+01  0.24736753063E+02  0.00000000000E+00 0. -1.
        -13    1    4    4    0    0  0.37232038605E+02  0.66271293104E+02  0.37839341547E+03  0.38595295809E+03  0.00000000000E+00 0.  1.
         13    1    4    4    0    0  0.24190812190E+02 -0.30893440043E+02  0.15707615405E+03  0.16190280480E+03  0.00000000000E+00 0. -1.
          2    1    1    2  501    0 -0.27450907884E+02 -0.22422809722E+02  0.23806435143E+03  0.24068853350E+03  0.00000000000E+00 0. -1.
<scales pt_clust_5="13000.00000" pt_clust_6="13000.00000" pt_clust_7="13000.00000" pt_clust_8="13000.00000" pt_clust_9="35.44481"></scales>
<clustering>
<clus scale="   35.445">  1  9  2 -1</clus>
<clus scale="   91.618">  7  8 -1 -1</clus>
<clus scale="   93.498">  5  6 -1 -1</clus>
<clus scale="  102.687">  1  7  2 -1</clus>
<clus scale="   35.445">  1  5  2 -1</clus>
</clustering>
</event>
<event>
 9    1  0.1426358E-005  0.9588877E+02  0.7546771E-02  0.1292471E+00
         21   -1    0    0  501  502  0.00000000000E+00  0.00000000000E+00  0.18708070183E+03  0.18708070183E+03  0.00000000000E+00 0. -1.
          4   -1    0    0  502    0 -0.00000000000E+00 -0.00000000000E+00 -0.25961049688E+03  0.25961049688E+03  0.00000000000E+00 0. -1.
         23    2    1    2    0    0  0.31098107983E+02 -0.18338827486E+02 -0.19970502233E+03  0.22228481627E+03  0.90691999032E+02 0.  0.
         23    2    1    2    0    0 -0.11699214224E+02  0.80738055611E+01 -0.91734736052E+01  0.86302595423E+02  0.84628171486E+02 0.  0.
        -11    1    4    4    0    0 -0.32500564985E+02 -0.27366521641E+02  0.51168869944E+01  0.42794810008E+02  0.00000000000E+00 0.  1.
         11    1    4    4    0    0  0.20801350761E+02  0.35440327202E+02 -0.14290360600E+02  0.43507785415E+02  0.00000000000E+00 0. -1.
        -11    1    3    3    0    0 -0.15414264601E+02 -0.27678053106E+02 -0.15102285322E+03  0.15431000088E+03  0.00000000000E+00 0.  1.
         11    1    3    3    0    0  0.46512372583E+02  0.93392256204E+01 -0.48682169108E+02  0.67974815392E+02  0.00000000000E+00 0. -1.
          4    1    1    2  501    0 -0.19398893758E+02  0.10265021925E+02  0.13634870089E+03  0.13810378701E+03  0.00000000000E+00 0. -1.
<scales pt_clust_5="13000.00000" pt_clust_6="13000.00000" pt_clust_7="13000.00000" pt_clust_8="13000.00000" pt_clust_9="21.94739"></scales>
<clustering>
<clus scale="   21.947">  1  9  2 -1</clus>
<clus scale="   84.628">  5  6 -1 -1</clus>
<clus scale="   90.175">  1  5  2 -1</clus>
<clus scale="   90.692">  7  8 -1 -1</clus>
<clus scale="   21.947">  1  5  2 -1</clus>
</clustering>
</event>
<event>
 9    1  0.1426358E-005  0.1758305E+03  0.7546771E-02  0.1172002E+00
          2   -1    0    0  502    0 -0.00000000000E+00  0.00000000000E+00  0.63044305909E+03  0.63044305909E+03  0.00000000000E+00 0. -1.
         21   -1    0    0  501  502  0.00000000000E+00 -0.00000000000E+00 -0.14835086114E+03  0.14835086114E+03  0.00000000000E+00 0.  1.
         23    2    1    2    0    0  0.13268520064E+03  0.65370242771E+02  0.49476741250E+03  0.52429939265E+03  0.90644523003E+02 0.  0.
         23    2    1    2    0    0 -0.16275369489E+03 -0.42770860664E+02  0.34812556598E+02  0.19391454057E+03  0.89848891065E+02 0.  0.
        -11    1    3    3    0    0  0.23557371955E+02  0.36402277276E+02  0.53753000100E+02  0.69061281367E+02  0.00000000000E+00 0.  1.
         11    1    3    3    0    0  0.10912782869E+03  0.28967965495E+02  0.44101441240E+03  0.45523811128E+03  0.00000000000E+00 0. -1.
        -11    1    4    4    0    0 -0.13231714067E+03  0.60105957038E+01  0.15996080713E+02  0.13341599445E+03  0.00000000000E+00 0.  1.
         11    1    4    4    0    0 -0.30436554213E+02 -0.48781456368E+02  0.18816475886E+02  0.60498546119E+02  0.00000000000E+00 0. -1.
          2    1    1    2  501    0  0.30068494244E+02 -0.22599382107E+02 -0.47487771151E+02  0.60579987014E+02  0.00000000000E+00 0. -1.
<scales pt_clust_5="13000.00000" pt_clust_6="13000.00000" pt_clust_7="13000.00000" pt_clust_8="13000.00000" pt_clust_9="37.61444"></scales>
<clustering>
<clus scale="   37.614">  2  9  1 -1</clus>
<clus scale="   89.849">  7  8 -1 -1</clus>
<clus scale="   90.645">  5  6 -1 -1</clus>
<clus scale="  175.422">  2  7  1 -1</clus>
<clus scale="   37.614">  2  5  1 -1</clus>
</clustering>
</event>
<event>
 9    1  0.1426358E-005  0.1293418E+03  0.7546771E-02  0.1228509E+00
         -3   -1    0    0    0  501 -0.00000000000E+00  0.00000000000E+00  0.62889168016E+03  0.62889168016E+03  0.00000000000E+00 0.  1.
         21   -1    0    0  501  502  0.00000000000E+00 -0.00000000000E+00 -0.77321622310E+02  0.77321622310E+02  0.00000000000E+00 0.  1.
         23    2    1    2    0    0  0.75249794165E+02  0.36716246703E+02  0.29592342184E+03  0.32088508862E+03  0.91574855799E+02 0.  0.
         23    2    1    2    0    0 -0.74595297912E+02 -0.70864154451E+02  0.29959741218E+03  0.32966692842E+03  0.91298890749E+02 0.  0.
        -11    1    4    4    0    0 -0.22400023170E+02 -0.66763005443E+02  0.24104242412E+03  0.25111851816E+03  0.00000000000E+00 0.  1.
         11    1    4    4    0    0 -0.52195274742E+02 -0.41011490085E+01  0.58554988057E+02  0.78548410264E+02  0.00000000000E+00 0. -1.
        -11    1    3    3    0    0  0.94323465833E+02  0.17500228378E+02  0.24688805726E+03  0.26487145376E+03  0.00000000000E+00 0.  1.
         11    1    3    3    0    0 -0.19073671668E+02  0.19216018325E+02  0.49035364576E+02  0.56013634860E+02  0.00000000000E+00 0. -1.
         -3    1    1    2    0  502 -0.65449625292E+00  0.34147907748E+02 -0.43950776171E+02  0.55661285423E+02  0.00000000000E+00 0.  1.
<scales pt_clust_5="13000.00000" pt_clust_6="13000.00000" pt_clust_7="13000.00000" pt_clust_8="13000.00000" pt_clust_9="34.15418"></scales>
<clustering>
<clus scale="   34.154">  2  9  1 -1</clus>
<clus scale="   91.299">  5  6 -1 -1</clus>
<clus scale="   91.575">  7  8 -1 -1</clus>
<clus scale="  129.147">  2  5  1 -1</clus>
<clus scale="   34.154">  2  5  1 -1</clus>
</clustering>
</event>
<event>
 9    1  0.1426358E-005  0.1154589E+03  0.7546771E-02  0.1259058E+00
         21   -1    0    0  501  502  0.00000000000E+00  0.00000000000E+00  0.27748714880E+02  0.27748714880E+02  0.00000000000E+00 0. -1.
          1   -1    0    0  502    0 -0.00000000000E+00 -0.00000000000E+00 -0.77873018815E+03  0.77873018815E+03  0.00000000000E+00 0. -1.
         23    2    1    2    0    0  0.27228284212E+02 -0.10503343491E+02 -0.53642068978E+03  0.54862897087E+03  0.11133234739E+03 0.  0.
         23    2    1    2    0    0 -0.38177909646E+02 -0.24099409466E+02 -0.18063415016E+03  0.20816833337E+03  0.93096855424E+02 0.  0.
        -11    1    3    3    0    0  0.36696868545E+02  0.43908129668E+02 -0.21433729324E+03  0.22184467378E+03  0.00000000000E+00 0.  1.
         11    1    3    3    0    0 -0.94685843325E+01 -0.54411473159E+02 -0.32208339654E+03  0.32678429709E+03  0.00000000000E+00 0. -1.
        -11    1    4    4    0    0 -0.64488229273E+02  0.33947855116E+01 -0.10053090173E+03  0.11948522288E+03  0.00000000000E+00 0.  1.
         11    1    4    4    0    0  0.26310319628E+02 -0.27494194977E+02 -0.80103248435E+02  0.88683110490E+02  0.00000000000E+00 0. -1.
          1    1    1    2  501    0  0.10949625434E+02  0.34602752957E+02 -0.33926633331E+02  0.49681598792E+02  0.00000000000E+00 0. -1.
<scales pt_clust_5="13000.00000" pt_clust_6="13000.00000" pt_clust_7="13000.00000" pt_clust_8="13000.00000" pt_clust_9="36.29387"></scales>
<clustering>
<clus scale="   36.294">  1  9  2 -1</clus>
<clus scale="   93.097">  7  8 -1 -1</clus>
<clus scale="   97.994">  1  7  2 -1</clus>
<clus scale="  111.332">  5  6 -1 -1</clus>
<clus scale="   36.294">  1  5  2 -1</clus>
</clustering>
</event>
<event>
 9    1  0.1426358E-005  0.4137729E+03  0.7546771E-02  0.1039120E+00
         21   -1    0    0  501  502  0.00000000000E+00  0.00000000000E+00  0.10037325233E+04  0.10037325233E+04  0.00000000000E+00 0. -1.
          3   -1    0    0  502    0 -0.00000000000E+00 -0.00000000000E+00 -0.27279043484E+03  0.27279043484E+03  0.00000000000E+00 0. -1.
         23    2    1    2    0    0  0.89633360319E+02 -0.42712078595E+03  0.77645806384E+02  0.45281863286E+03  0.92463711497E+02 0.  0.
         23    2    1    2    0    0 -0.10854222241E+03  0.30603366740E+03  0.60340715885E+03  0.69138441006E+03  0.92055328450E+02 0.  0.
        -11    1    3    3    0    0  0.23007747394E+02 -0.12527988859E+02  0.42129367926E+01  0.26534049472E+02  0.00000000000E+00 0.  1.
         11    1    3    3    0    0  0.66625612926E+02 -0.41459279709E+03  0.73432869591E+02  0.42628458339E+03  0.00000000000E+00 0. -1.
        -11    1    4    4    0    0 -0.88226916795E+02  0.12467814900E+03  0.31526111012E+03  0.35031157166E+03  0.00000000000E+00 0. -1.
         11    1    4    4    0    0 -0.20315305614E+02  0.18135551840E+03  0.28814604873E+03  0.34107283840E+03  0.00000000000E+00 0.  1.
          3    1    1    2  501    0  0.18908862090E+02  0.12108711855E+03  0.49889123209E+02  0.13231991520E+03  0.00000000000E+00 0. -1.
<scales pt_clust_5="13000.00000" pt_clust_6="13000.00000" pt_clust_7="13000.00000" pt_clust_8="13000.00000" pt_clust_9="122.55468"></scales>
<clustering>
<clus scale="   92.055">  7  8 -1 -1</clus>
<clus scale="   92.464">  5  6 -1 -1</clus>
<clus scale="  122.555">  1  9  2 -1</clus>
<clus scale="  413.682">  1  7  2 -1</clus>
<clus scale="  122.555">  1  5  2 -1</clus>
</clustering>
</event>
<event>
 9    1  0.4131756E-005  0.9130037E+02  0.7546771E-02  0.1300174E+00
         21   -1    0    0  501  502  0.00000000000E+00  0.00000000000E+00  0.17319057012E+03  0.17319057012E+03  0.00000000000E+00 0. -1.
          2   -1    0    0  502    0 -0.00000000000E+00 -0.00000000000E+00 -0.38218708829E+03  0.38218708829E+03  0.00000000000E+00 0. -1.
         23    2    1    2    0    0 -0.21937539719E+00 -0.57099571449E+01 -0.33331814197E+03  0.34543610832E+03  0.90512261220E+02 0.  0.
         23    2    1    2    0    0  0.18680218148E+02 -0.32909001082E+02  0.25167223632E+02  0.10194237545E+03  0.91251881431E+02 0.  0.
        -11    1    3    3    0    0  0.22300536054E+02  0.35142207372E+02 -0.11806656485E+03  0.12518786835E+03  0.00000000000E+00 0.  1.
         11    1    3    3    0    0 -0.22519911451E+02 -0.40852164516E+02 -0.21525157712E+03  0.22024823997E+03  0.00000000000E+00 0. -1.
        -11    1    4    4    0    0 -0.30407185250E+02 -0.38506766267E+02  0.84638068994E+01  0.49789597211E+02  0.00000000000E+00 0.  1.
         11    1    4    4    0    0  0.49087403398E+02  0.55977651854E+01  0.16703416733E+02  0.52152778239E+02  0.00000000000E+00 0. -1.
          2    1    1    2  501    0 -0.18460842751E+02  0.38618958227E+02  0.99154400172E+02  0.10799917464E+03  0.00000000000E+00 0. -1.
<scales pt_clust_5="13000.00000" pt_clust_6="13000.00000" pt_clust_7="13000.00000" pt_clust_8="13000.00000" pt_clust_9="42.80452"></scales>
<clustering>
<clus scale="   42.805">  1  9  2 -1</clus>
<clus scale="   90.512">  5  6 -1 -1</clus>
<clus scale="   90.561">  2  5  1 -1</clus>
<clus scale="   91.252">  7  8 -1 -1</clus>
<clus scale="   42.805">  1  5  2 -1</clus>
</clustering>
</event>
<event>
 9    1  0.1426358E-005  0.1228917E+03  0.7546771E-02  0.1246429E+00
          2   -1    0    0  502    0 -0.00000000000E+00  0.00000000000E+00  0.27767738099E+03  0.27767738099E+03  0.00000000000E+00 0. -1.
         21   -1    0    0  501  502  0.00000000000E+00 -0.00000000000E+00 -0.10312602060E+03  0.10312602060E+03  0.00000000000E+00 0. -1.
         23    2    1    2    0    0 -0.52941819567E+02 -0.57235122510E+01  0.20487191858E+03  0.23102101278E+03  0.92534374554E+02 0.  0.
         23    2    1    2    0    0  0.21765307572E+02  0.89004941399E+01 -0.24245439030E+02  0.11786099806E+03  0.11291778487E+03 0.  0.
        -13    1    4    4    0    0  0.16354029062E+02 -0.51775903319E+02 -0.14173905278E+02  0.56116824767E+02  0.00000000000E+00 0.  1.
         13    1    4    4    0    0  0.54112785102E+01  0.60676397459E+02 -0.10071533752E+02  0.61744173294E+02  0.00000000000E+00 0. -1.
        -13    1    3    3    0    0  0.21812789347E+02  0.10567067381E+02  0.88440223605E+02  0.91701329562E+02  0.00000000000E+00 0.  1.
         13    1    3    3    0    0 -0.74754608914E+02 -0.16290579632E+02  0.11643169497E+03  0.13931968322E+03  0.00000000000E+00 0. -1.
          2    1    1    2  501    0  0.31176511994E+02 -0.31769818889E+01 -0.60751191585E+01  0.31921390741E+02  0.00000000000E+00 0. -1.
<scales pt_clust_5="13000.00000" pt_clust_6="13000.00000" pt_clust_7="13000.00000" pt_clust_8="13000.00000" pt_clust_9="31.33797"></scales>
<clustering>
<clus scale="   31.338">  2  9  1 -1</clus>
<clus scale="   92.534">  7  8 -1 -1</clus>
<clus scale="  104.473">  1  7  2 -1</clus>
<clus scale="  112.918">  5  6 -1 -1</clus>
<clus scale="   31.338">  2  5  1 -1</clus>
</clustering>
</event>
<event>
 9    1  0.1426358E-005  0.1123763E+03  0.7546771E-02  0.1257207E+00
         21   -1    0    0  501  502  0.00000000000E+00  0.00000000000E+00  0.13537335707E+03  0.13537335707E+03  0.00000000000E+00 0. -1.
         -1   -1    0    0    0  501 -0.00000000000E+00 -0.00000000000E+00 -0.47395019334E+03  0.47395019334E+03  0.00000000000E+00 0.  1.
         23    2    1    2    0    0 -0.33359192115E+02  0.50850781780E+02 -0.41104314959E+03  0.42581663720E+03  0.93084370224E+02 0.  0.
         23    2    1    2    0    0  0.50251581770E+02 -0.67180460622E+02  0.18660363093E+02  0.12479497644E+03  0.90482822870E+02 0.  0.
        -11    1    4    4    0    0  0.36146162331E+02 -0.84753136274E+02 -0.48020315922E+01  0.92264287061E+02  0.00000000000E+00 0. -1.
         11    1    4    4    0    0  0.14105419440E+02  0.17572675653E+02  0.23462394685E+02  0.32530689380E+02  0.00000000000E+00 0.  1.
        -13    1    3    3    0    0  0.22505576056E+02 -0.52662486709E+01 -0.38122448353E+02  0.44582007549E+02  0.00000000000E+00 0. -1.
         13    1    3    3    0    0 -0.55864768171E+02  0.56117030451E+02 -0.37292070124E+03  0.38123462965E+03  0.00000000000E+00 0.  1.
         -1    1    1    2    0  502 -0.16892389655E+02  0.16329678842E+02  0.53805950227E+02  0.58711936769E+02  0.00000000000E+00 0.  1.
<scales pt_clust_5="13000.00000" pt_clust_6="13000.00000" pt_clust_7="13000.00000" pt_clust_8="13000.00000" pt_clust_9="23.49492"></scales>
<clustering>
<clus scale="   23.495">  1  9  2 -1</clus>
<clus scale="   90.483">  5  6 -1 -1</clus>
<clus scale="   93.084">  7  8 -1 -1</clus>
<clus scale="  110.231">  1  5  2 -1</clus>
<clus scale="   23.495">  1  5  2 -1</clus>
</clustering>
</event>
<event>
 9    1  0.1426358E-005  0.4815744E+03  0.7546771E-02  0.1018709E+00
          2   -1    0    0  502    0 -0.00000000000E+00  0.00000000000E+00  0.18795944668E+04  0.18795944668E+04  0.00000000000E+00 0. -1.
         21   -1    0    0  501  502  0.00000000000E+00 -0.00000000000E+00 -0.21276635605E+03  0.21276635605E+03  0.00000000000E+00 0. -1.
         23    2    1    2    0    0 -0.31682309814E+03  0.44326482347E+03  0.12243397523E+04  0.13432572265E+04  0.92041121785E+02 0.  0.
         23    2    1    2    0    0  0.18211100330E+03 -0.33457765129E+03  0.42031091879E+03  0.57459832787E+03  0.91626129829E+02 0.  0.
        -13    1    4    4    0    0  0.21505882155E+02 -0.30825840688E+01  0.37561424107E+02  0.43392002405E+02  0.00000000000E+00 0. -1.
         13    1    4    4    0    0  0.16060512115E+03 -0.33149506723E+03  0.38274949468E+03  0.53120632547E+03  0.00000000000E+00 0.  1.
        -13    1    3    3    0    0 -0.26464961886E+03  0.36579661706E+03  0.10883402530E+04  0.11782746251E+04  0.00000000000E+00 0. -1.
         13    1    3    3    0    0 -0.52173479285E+02  0.77468206404E+02  0.13599949935E+03  0.16498260141E+03  0.00000000000E+00 0.  1.
          2    1    1    2  501    0  0.13471209484E+03 -0.10868717217E+03  0.22177439583E+02  0.17450526845E+03  0.00000000000E+00 0. -1.
<scales pt_clust_5="13000.00000" pt_clust_6="13000.00000" pt_clust_7="13000.00000" pt_clust_8="13000.00000" pt_clust_9="173.09029"></scales>
<clustering>
<clus scale="   91.626">  5  6 -1 -1</clus>
<clus scale="   92.041">  7  8 -1 -1</clus>
<clus scale="  173.090">  2  9  1 -1</clus>
<clus scale="  481.495">  2  5  1 -1</clus>
<clus scale="  173.090">  2  5  1 -1</clus>
</clustering>
</event>
<event>
 9    1  0.1426358E-005  0.1190809E+03  0.7546771E-02  0.1245212E+00
         21   -1    0    0  501  502  0.00000000000E+00  0.00000000000E+00  0.10721271325E+03  0.10721271325E+03  0.00000000000E+00 0.  1.
         -1   -1    0    0    0  501 -0.00000000000E+00 -0.00000000000E+00 -0.19828625229E+03  0.19828625229E+03  0.00000000000E+00 0.  1.
         23    2    1    2    0    0 -0.52465362462E+02  0.60304886376E+02 -0.10411945493E+03  0.15998059513E+03  0.91452918736E+02 0.  0.
         23    2    1    2    0    0  0.45899118013E+02 -0.37426111320E+02  0.32084271352E+02  0.11503865761E+03  0.93257972489E+02 0.  0.
        -11    1    3    3    0    0 -0.67676352303E+02  0.21361333142E+02 -0.92499438802E+02  0.11658705500E+03  0.00000000000E+00 0.  1.
         11    1    3    3    0    0  0.15210989842E+02  0.38943553234E+02 -0.11620016124E+02  0.43393540132E+02  0.00000000000E+00 0. -1.
        -11    1    4    4    0    0  0.65541761744E+02 -0.43662794188E+02  0.22596209462E+01  0.78786217168E+02  0.00000000000E+00 0. -1.
         11    1    4    4    0    0 -0.19642643731E+02  0.62366828679E+01  0.29824650406E+02  0.36252440439E+02  0.00000000000E+00 0.  1.
         -1    1    1    2    0  502  0.65662444484E+01 -0.22878775056E+02 -0.19038355463E+02  0.30479712810E+02  0.00000000000E+00 0.  1.
<scales pt_clust_5="13000.00000" pt_clust_6="13000.00000" pt_clust_7="13000.00000" pt_clust_8="13000.00000" pt_clust_9="23.80240"></scales>
<clustering>
<clus scale="   23.802">  1  9  2 -1</clus>
<clus scale="   91.453">  5  6 -1 -1</clus>
<clus scale="   93.258">  7  8 -1 -1</clus>
<clus scale="  117.673">  2  5  1 -1</clus>
<clus scale="   23.802">  1  5  2 -1</clus>
</clustering>
</event>
<event>
 9    1  0.1426358E-005  0.3461406E+03  0.7546771E-02  0.1076124E+00
         21   -1    0    0  501  502  0.00000000000E+00  0.00000000000E+00  0.42541541890E+03  0.42541541890E+03  0.00000000000E+00 0. -1.
          1   -1    0    0  502    0 -0.00000000000E+00 -0.00000000000E+00 -0.10579973866E+04  0.10579973866E+04  0.00000000000E+00 0. -1.
         23    2    1    2    0    0  0.12510182332E+03 -0.19593645279E+03 -0.70957822714E+03  0.75219690717E+03  0.90870055505E+02 0.  0.
         23    2    1    2    0    0  0.10386622629E+03  0.39831202125E+03  0.38516006901E+02  0.42321757323E+03  0.90492940423E+02 0.  0.
        -11    1    4    4    0    0  0.11302432956E+03  0.29494033179E+03  0.11884645969E+02  0.31607838142E+03  0.00000000000E+00 0. -1.
         11    1    4    4    0    0 -0.91581032685E+01  0.10337168946E+03  0.26631360932E+02  0.10713919181E+03  0.00000000000E+00 0.  1.
        -11    1    3    3    0    0  0.37693174757E+02 -0.46502070392E+02 -0.84272586187E+02  0.10336869331E+03  0.00000000000E+00 0.  1.
         11    1    3    3    0    0  0.87408648564E+02 -0.14943438240E+03 -0.62530564095E+03  0.64882821386E+03  0.00000000000E+00 0. -1.
          1    1    1    2  501    0 -0.22896804961E+03 -0.20237556846E+03  0.38480252514E+02  0.30799832514E+03  0.00000000000E+00 0. -1.
<scales pt_clust_5="13000.00000" pt_clust_6="13000.00000" pt_clust_7="13000.00000" pt_clust_8="13000.00000" pt_clust_9="334.10229"></scales>
<clustering>
<clus scale="   90.493">  5  6 -1 -1</clus>
<clus scale="   90.870">  7  8 -1 -1</clus>
<clus scale="  249.598">  2  7  1 -1</clus>
<clus scale="  334.102">  1  9  2 -1</clus>
<clus scale="  334.102">  1  5  2 -1</clus>
</clustering>
</event>
<event>
 9    1  0.1426358E-005  0.9879236E+02  0.7546771E-02  0.1282986E+00
         -1   -1    0    0    0  501 -0.00000000000E+00  0.00000000000E+00  0.31930440107E+03  0.31930440107E+03  0.00000000000E+00 0.  1.
         21   -1    0    0  501  502  0.00000000000E+00 -0.00000000000E+00 -0.11691167175E+03  0.11691167175E+03  0.00000000000E+00 0.  1.
         23    2    1    2    0    0  0.25865248657E+02  0.38494698982E+02  0.24035116679E+03  0.26110300113E+03  0.90858356162E+02 0.  0.
         23    2    1    2    0    0 -0.22678659622E+02  0.49665481611E+01  0.26145685722E+02  0.97599376377E+02  0.91121090778E+02 0.  0.
        -11    1    3    3    0    0  0.48835872563E+02  0.25802112798E+02  0.22276805294E+03  0.22951317366E+03  0.00000000000E+00 0.  1.
         11    1    3    3    0    0 -0.22970623906E+02  0.12692586184E+02  0.17583113843E+02  0.31589827462E+02  0.00000000000E+00 0. -1.
        -11    1    4    4    0    0 -0.18854408544E+02  0.47548459362E+02  0.16779955986E+02  0.53832254570E+02  0.00000000000E+00 0.  1.
         11    1    4    4    0    0 -0.38242510776E+01 -0.42581911201E+02  0.93657297359E+01  0.43767121807E+02  0.00000000000E+00 0. -1.
         -1    1    1    2    0  502 -0.31865890351E+01 -0.43461247143E+02 -0.64104123179E+02  0.77513695315E+02  0.00000000000E+00 0.  1.
<scales pt_clust_5="13000.00000" pt_clust_6="13000.00000" pt_clust_7="13000.00000" pt_clust_8="13000.00000" pt_clust_9="43.57791"></scales>
<clustering>
<clus scale="   43.578">  2  9  1 -1</clus>
<clus scale="   90.858">  5  6 -1 -1</clus>
<clus scale="   91.121">  7  8 -1 -1</clus>
<clus scale="   98.550">  1  5  2 -1</clus>
<clus scale="   43.578">  2  5  1 -1</clus>
</clustering>
</event>
<event>
 9    1  0.1426358E-005  0.9524169E+02  0.7546771E-02  0.1292929E+00
         -1   -1    0    0    0  501 -0.00000000000E+00  0.00000000000E+00  0.88910797237E+02  0.88910797237E+02  0.00000000000E+00 0.  1.
         21   -1    0    0  501  502  0.00000000000E+00 -0.00000000000E+00 -0.35040368939E+03  0.35040368939E+03  0.00000000000E+00 0. -1.
         23    2    1    2    0    0 -0.10901495937E+01 -0.69963610211E+01  0.39913092170E+01  0.94372658609E+02  0.94021968975E+02 0.  0.
         23    2    1    2    0    0 -0.32982215280E+02  0.66189010720E+01 -0.21292994121E+02  0.98384706397E+02  0.89969564176E+02 0.  0.
        -11    1    4    4    0    0  0.13296989486E+02  0.36949646304E+02 -0.49563871811E+00  0.39272534285E+02  0.00000000000E+00 0.  1.
         11    1    4    4    0    0 -0.46279204766E+02 -0.30330745232E+02 -0.20797355403E+02  0.59112172112E+02  0.00000000000E+00 0. -1.
        -13    1    3    3    0    0  0.18476152871E+02 -0.39407601526E+02  0.25884157314E+02  0.50639084538E+02  0.00000000000E+00 0.  1.
         13    1    3    3    0    0 -0.19566302465E+02  0.32411240505E+02 -0.21892848098E+02  0.43733574071E+02  0.00000000000E+00 0. -1.
         -1    1    1    2    0  502  0.34072364874E+02  0.37745994909E+00 -0.24419120725E+03  0.24655712162E+03  0.00000000000E+00 0.  1.
<scales pt_clust_5="13000.00000" pt_clust_6="13000.00000" pt_clust_7="13000.00000" pt_clust_8="13000.00000" pt_clust_9="34.07446"></scales>
<clustering>
<clus scale="   34.074">  2  9  1 -1</clus>
<clus scale="   89.970">  5  6 -1 -1</clus>
<clus scale="   91.243">  2  5  1 -1</clus>
<clus scale="   94.022">  7  8 -1 -1</clus>
<clus scale="   34.074">  2  5  1 -1</clus>
</clustering>
</event>
<event>
 9    1  0.1426358E-005  0.1082531E+03  0.7546771E-02  0.1264197E+00
          1   -1    0    0  502    0 -0.00000000000E+00  0.00000000000E+00  0.93066036284E+02  0.93066036284E+02  0.00000000000E+00 0. -1.
         21   -1    0    0  501  502  0.00000000000E+00 -0.00000000000E+00 -0.25362803792E+03  0.25362803792E+03  0.00000000000E+00 0. -1.
         23    2    1    2    0    0 -0.30203735404E+02 -0.30766918485E+02 -0.20724913072E+02  0.10362726627E+03  0.91925074861E+02 0.  0.
         23    2    1    2    0    0  0.67369772596E+01  0.88159085034E+02 -0.55800145266E+02  0.13863138598E+03  0.91036222627E+02 0.  0.
        -11    1    4    4    0    0  0.22464938860E+02  0.43351460930E+02 -0.73256179190E+02  0.88036869733E+02  0.00000000000E+00 0.  1.
         11    1    4    4    0    0 -0.15727961600E+02  0.44807624104E+02  0.17456033924E+02  0.50594516247E+02  0.00000000000E+00 0. -1.
        -13    1    3    3    0    0  0.25747998463E+01  0.29208285109E+02  0.65394259297E+01  0.30041930776E+02  0.00000000000E+00 0.  1.
         13    1    3    3    0    0 -0.32778535250E+02 -0.59975203594E+02 -0.27264339002E+02  0.73585335499E+02  0.00000000000E+00 0. -1.
          1    1    1    2  501    0  0.23466758144E+02 -0.57392166550E+02 -0.84036943302E+02  0.10443542195E+03  0.00000000000E+00 0. -1.
<scales pt_clust_5="13000.00000" pt_clust_6="13000.00000" pt_clust_7="13000.00000" pt_clust_8="13000.00000" pt_clust_9="62.00443"></scales>
<clustering>
<clus scale="   62.004">  2  9  1 -1</clus>
<clus scale="   91.036">  5  6 -1 -1</clus>
<clus scale="   91.925">  7  8 -1 -1</clus>
<clus scale="  107.499">  2  5  1 -1</clus>
<clus scale="   62.004">  2  5  1 -1</clus>
</clustering>
</event>
<event>
 9    1  0.1426358E-005  0.2105237E+03  0.7546771E-02  0.1160850E+00
         21   -1    0    0  501  502  0.00000000000E+00  0.00000000000E+00  0.10085001093E+03  0.10085001093E+03  0.00000000000E+00 0. -1.
          3   -1    0    0  502    0 -0.00000000000E+00 -0.00000000000E+00 -0.93947201670E+03  0.93947201670E+03  0.00000000000E+00 0. -1.
         23    2    1    2    0    0  0.84823214588E+02  0.32127415300E+02 -0.95801216538E+02  0.16319284518E+03  0.96056665980E+02 0.  0.
         23    2    1    2    0    0 -0.22194321555E+03 -0.12448805693E+03 -0.59728575622E+03  0.65687290304E+03  0.99878270532E+02 0.  0.
        -11    1    4    4    0    0 -0.13242163146E+02  0.15674779156E+02 -0.29657889475E+02  0.36064442246E+02  0.00000000000E+00 0.  1.
         11    1    4    4    0    0 -0.20870105241E+03 -0.14016283609E+03 -0.56762786674E+03  0.62080846080E+03  0.00000000000E+00 0. -1.
        -13    1    3    3    0    0  0.90684111852E+02 -0.17650833471E+01 -0.43494886225E+02  0.10059089814E+03  0.00000000000E+00 0. -1.
         13    1    3    3    0    0 -0.58608972644E+01  0.33892498647E+02 -0.52306330313E+02  0.62601947031E+02  0.00000000000E+00 0.  1.
          3    1    1    2  501    0  0.13712000096E+03  0.92360641629E+02 -0.14553503301E+03  0.22025627941E+03  0.00000000000E+00 0. -1.
<scales pt_clust_5="13000.00000" pt_clust_6="13000.00000" pt_clust_7="13000.00000" pt_clust_8="13000.00000" pt_clust_9="185.32286"></scales>
<clustering>
<clus scale="   96.057">  7  8 -1 -1</clus>
<clus scale="   99.878">  5  6 -1 -1</clus>
<clus scale="  132.114">  2  7  1 -1</clus>
<clus scale="  185.323">  1  9  2 -1</clus>
<clus scale="  185.323">  1  5  2 -1</clus>
</clustering>
</event>
<event>
 9    1  0.1836588E-005  0.1219389E+03  0.7546771E-02  0.1240007E+00
         21   -1    0    0  501  502  0.00000000000E+00  0.00000000000E+00  0.13994407401E+03  0.13994407401E+03  0.00000000000E+00 0. -1.
          1   -1    0    0  502    0 -0.00000000000E+00 -0.00000000000E+00 -0.56960287826E+03  0.56960287826E+03  0.00000000000E+00 0. -1.
         23    2    1    2    0    0 -0.36455759264E+02 -0.10713663021E+03 -0.38419087228E+03  0.41084385846E+03  0.91557467055E+02 0.  0.
         23    2    1    2    0    0  0.13321941534E+02  0.39873804001E+02 -0.14495728052E+03  0.17640186002E+03  0.91310506902E+02 0.  0.
        -11    1    4    4    0    0 -0.19351808610E+02  0.50363677386E+02 -0.12630022227E+03  0.13734168574E+03  0.00000000000E+00 0.  1.
         11    1    4    4    0    0  0.32673750144E+02 -0.10489873385E+02 -0.18657058247E+02  0.39060174277E+02  0.00000000000E+00 0. -1.
        -11    1    3    3    0    0 -0.47238839081E+02 -0.41324086214E+02 -0.93574860654E+02  0.11267405454E+03  0.00000000000E+00 0. -1.
         11    1    3    3    0    0  0.10783079818E+02 -0.65812543992E+02 -0.29061601163E+03  0.29816980392E+03  0.00000000000E+00 0.  1.
          1    1    1    2  501    0  0.23133817730E+02  0.67262826205E+02  0.99489348554E+02  0.12230123379E+03  0.00000000000E+00 0. -1.
<scales pt_clust_5="13000.00000" pt_clust_6="13000.00000" pt_clust_7="13000.00000" pt_clust_8="13000.00000" pt_clust_9="71.12989"></scales>
<clustering>
<clus scale="   71.130">  1  9  2 -1</clus>
<clus scale="   91.311">  5  6 -1 -1</clus>
<clus scale="   91.557">  7  8 -1 -1</clus>
<clus scale="  121.754">  1  5  2 -1</clus>
<clus scale="   71.130">  1  5  2 -1</clus>
</clustering>
</event>
<event>
 9    1  0.1426358E-005  0.1206443E+03  0.7546771E-02  0.1242435E+00
          2   -1    0    0  502    0 -0.00000000000E+00  0.00000000000E+00  0.16160095039E+03  0.16160095039E+03  0.00000000000E+00 0. -1.
         21   -1    0    0  501  502  0.00000000000E+00 -0.00000000000E+00 -0.16594161406E+03  0.16594161406E+03  0.00000000000E+00 0. -1.
         23    2    1    2    0    0  0.91537486607E+02 -0.18327304801E+02  0.36899563515E+02  0.13462137012E+03  0.89701359795E+02 0.  0.
         23    2    1    2    0    0 -0.65478029159E+02 -0.43367994384E+02 -0.89952856923E+01  0.11858989865E+03  0.88399624767E+02 0.  0.
        -11    1    4    4    0    0 -0.53997013217E+00  0.23028081149E+02  0.75796923396E+01  0.24249449996E+02  0.00000000000E+00 0.  1.
         11    1    4    4    0    0 -0.64938059026E+02 -0.66396075533E+02 -0.16574978032E+02  0.94340448659E+02  0.00000000000E+00 0. -1.
        -11    1    3    3    0    0  0.91364045464E+02  0.76706011742E+01  0.51134674595E+02  0.10498086431E+03  0.00000000000E+00 0. -1.
         11    1    3    3    0    0  0.17344114307E+00 -0.25997905975E+02 -0.14235111080E+02  0.29640505805E+02  0.00000000000E+00 0.  1.
          2    1    1    2  501    0 -0.26059457448E+02  0.61695299184E+02 -0.32244941492E+02  0.74331295669E+02  0.00000000000E+00 0. -1.
<scales pt_clust_5="13000.00000" pt_clust_6="13000.00000" pt_clust_7="13000.00000" pt_clust_8="13000.00000" pt_clust_9="66.97317"></scales>
<clustering>
<clus scale="   66.973">  2  9  1 -1</clus>
<clus scale="   88.400">  5  6 -1 -1</clus>
<clus scale="   89.701">  7  8 -1 -1</clus>
<clus scale="  119.680">  2  5  1 -1</clus>
<clus scale="   66.973">  2  5  1 -1</clus>
</clustering>
</event>
<event>
 9    1  0.1426358E-005  0.1670520E+03  0.7546771E-02  0.1181019E+00
         -1   -1    0    0    0  501 -0.00000000000E+00  0.00000000000E+00  0.70619453132E+02  0.70619453132E+02  0.00000000000E+00 0.  1.
         21   -1    0    0  501  502  0.00000000000E+00 -0.00000000000E+00 -0.79734757514E+03  0.79734757514E+03  0.00000000000E+00 0.  1.
         23    2    1    2    0    0 -0.37481255353E+02 -0.13151968060E+03 -0.15713584690E+03  0.22773020884E+03  0.92016861216E+02 0.  0.
         23    2    1    2    0    0  0.13338284214E+03  0.97995501303E+02 -0.34271822544E+03  0.39165520435E+03  0.92433306728E+02 0.  0.
        -13    1    4    4    0    0 -0.12203743965E+02  0.18979135479E+02 -0.58322487884E+02  0.62535202432E+02  0.00000000000E+00 0. -1.
         13    1    4    4    0    0  0.14558658611E+03  0.79016365824E+02 -0.28439573755E+03  0.32912000191E+03  0.00000000000E+00 0.  1.
        -13    1    3    3    0    0  0.24209802368E+02 -0.82668775062E+02 -0.82161089064E+02  0.11904068824E+03  0.00000000000E+00 0.  1.
         13    1    3    3    0    0 -0.61691057721E+02 -0.48850905535E+02 -0.74974757838E+02  0.10868952059E+03  0.00000000000E+00 0. -1.
         -1    1    1    2    0  502 -0.95901586791E+02  0.33524179294E+02 -0.22687404967E+03  0.24858161509E+03  0.00000000000E+00 0.  1.
<scales pt_clust_5="13000.00000" pt_clust_6="13000.00000" pt_clust_7="13000.00000" pt_clust_8="13000.00000" pt_clust_9="101.59225"></scales>
<clustering>
<clus scale="   92.017">  7  8 -1 -1</clus>
<clus scale="   92.433">  5  6 -1 -1</clus>
<clus scale="  101.592">  2  9  1 -1</clus>
<clus scale="  166.822">  1  7  2 -1</clus>
<clus scale="  101.592">  2  5  1 -1</clus>
</clustering>
</event>
<event>
 9    1  0.1426358E-005  0.1659035E+03  0.7546771E-02  0.1182599E+00
         21   -1    0    0  501  502  0.00000000000E+00  0.00000000000E+00  0.12150333659E+03  0.12150333659E+03  0.00000000000E+00 0.  1.
         -2   -1    0    0    0  501 -0.00000000000E+00 -0.00000000000E+00 -0.58736955090E+03  0.58736955090E+03  0.00000000000E+00 0.  1.
         23    2    1    2    0    0 -0.20497503172E+02 -0.12925391664E+03 -0.38203909778E+03  0.41415242283E+03  0.91878367970E+02 0.  0.
         23    2    1    2    0    0  0.92084927072E+02  0.15909145270E+03 -0.51315212828E+02  0.21062491365E+03  0.89105999050E+02 0.  0.
        -11    1    4    4    0    0  0.35214727830E+02  0.26253412745E+02 -0.49412221814E+02  0.66112679582E+02  0.00000000000E+00 0. -1.
         11    1    4    4    0    0  0.56870199242E+02  0.13283803995E+03 -0.19029910139E+01  0.14451223407E+03  0.00000000000E+00 0.  1.
        -13    1    3    3    0    0  0.24266659569E+02 -0.95167301414E+01 -0.11737162954E+03  0.12023118706E+03  0.00000000000E+00 0.  1.
         13    1    3    3    0    0 -0.44764162741E+02 -0.11973718650E+03 -0.26466746824E+03  0.29392123578E+03  0.00000000000E+00 0. -1.
         -2    1    1    2    0  502 -0.71587423900E+02 -0.29837536057E+02 -0.32511903698E+02  0.84095551016E+02  0.00000000000E+00 0.  1.
<scales pt_clust_5="13000.00000" pt_clust_6="13000.00000" pt_clust_7="13000.00000" pt_clust_8="13000.00000" pt_clust_9="77.55667"></scales>
<clustering>
<clus scale="   77.557">  1  9  2 -1</clus>
<clus scale="   89.106">  5  6 -1 -1</clus>
<clus scale="   91.878">  7  8 -1 -1</clus>
<clus scale="  164.384">  1  5  2 -1</clus>
<clus scale="   77.557">  1  5  2 -1</clus>
</clustering>
</event>
<event>
 9    1  0.1426358E-005  0.9981225E+02  0.7546771E-02  0.1282103E+00
         21   -1    0    0  501  502  0.00000000000E+00  0.00000000000E+00  0.27116696016E+03  0.27116696016E+03  0.00000000000E+00 0.  1.
          1   -1    0    0  502    0 -0.00000000000E+00 -0.00000000000E+00 -0.47671937504E+02  0.47671937504E+02  0.00000000000E+00 0. -1.
         23    2    1    2    0    0 -0.21387965594E+02 -0.25034145122E+02  0.71813142394E+02  0.12252527745E+03  0.93654485736E+02 0.  0.
         23    2    1    2    0    0  0.40133931623E+02  0.97176615283E+01  0.12947871334E+03  0.16346568979E+03  0.90835725999E+02 0.  0.
        -11    1    4    4    0    0  0.95930206967E+01  0.34599859956E+02  0.94358863585E+01  0.37124281898E+02  0.00000000000E+00 0. -1.
         11    1    4    4    0    0  0.30540910926E+02 -0.24882198428E+02  0.12004282698E+03  0.12634140789E+03  0.00000000000E+00 0.  1.
        -13    1    3    3    0    0  0.22662595199E+02 -0.35615495147E+02  0.63825520798E+02  0.76522897363E+02  0.00000000000E+00 0.  1.
         13    1    3    3    0    0 -0.44050560793E+02  0.10581350025E+02  0.79876215964E+01  0.46002380083E+02  0.00000000000E+00 0. -1.
          1    1    1    2  501    0 -0.18745966028E+02  0.15316483594E+02  0.22203166923E+02  0.32847930428E+02  0.00000000000E+00 0. -1.
<scales pt_clust_5="13000.00000" pt_clust_6="13000.00000" pt_clust_7="13000.00000" pt_clust_8="13000.00000" pt_clust_9="24.20757"></scales>
<clustering>
<clus scale="   24.208">  1  9  2 -1</clus>
<clus scale="   90.836">  5  6 -1 -1</clus>
<clus scale="   93.654">  7  8 -1 -1</clus>
<clus scale="   97.172">  1  5  2 -1</clus>
<clus scale="   24.208">  1  5  2 -1</clus>
</clustering>
</event>
<event>
 9    1  0.1426358E-005  0.1068215E+03  0.7546771E-02  0.1266669E+00
          2   -1    0    0  502    0 -0.00000000000E+00  0.00000000000E+00  0.30523578955E+03  0.30523578955E+03  0.00000000000E+00 0. -1.
         21   -1    0    0  501  502  0.00000000000E+00 -0.00000000000E+00 -0.68312588515E+02  0.68312588515E+02  0.00000000000E+00 0.  1.
         23    2    1    2    0    0 -0.63006295118E+02 -0.38817425962E+02  0.16493812263E+03  0.20216244857E+03  0.90490251050E+02 0.  0.
         23    2    1    2    0    0  0.13571365044E+02  0.16061607535E+02  0.18244178111E+02  0.94902441413E+02  0.90727427856E+02 0.  0.
        -11    1    3    3    0    0  0.13234624382E+02 -0.34313322144E+02  0.31544201638E+02  0.48451997029E+02  0.00000000000E+00 0.  1.
         11    1    3    3    0    0 -0.76240919501E+02 -0.45041038178E+01  0.13339392099E+03  0.15371045154E+03  0.00000000000E+00 0. -1.
        -13    1    4    4    0    0 -0.57095211203E+01  0.39005083685E+02  0.41297796914E+02  0.57092059121E+02  0.00000000000E+00 0. -1.
         13    1    4    4    0    0  0.19280886164E+02 -0.22943476150E+02 -0.23053618803E+02  0.37810382292E+02  0.00000000000E+00 0.  1.
          2    1    1    2  501    0  0.49434930075E+02  0.22755818427E+02  0.53740900297E+02  0.76483488077E+02  0.00000000000E+00 0. -1.
<scales pt_clust_5="13000.00000" pt_clust_6="13000.00000" pt_clust_7="13000.00000" pt_clust_8="13000.00000" pt_clust_9="54.42098"></scales>
<clustering>
<clus scale="   54.421">  2  9  1 -1</clus>
<clus scale="   90.490">  5  6 -1 -1</clus>
<clus scale="   90.727">  7  8 -1 -1</clus>
<clus scale="  106.620">  1  5  2 -1</clus>
<clus scale="   54.421">  2  5  1 -1</clus>
</clustering>
</event>
<event>
 9    1  0.1426358E-005  0.1185964E+03  0.7546771E-02  0.1248067E+00
          1   -1    0    0  502    0 -0.00000000000E+00  0.00000000000E+00  0.84386670573E+03  0.84386670573E+03  0.00000000000E+00 0. -1.
         21   -1    0    0  501  502  0.00000000000E+00 -0.00000000000E+00 -0.42524298034E+02  0.42524298034E+02  0.00000000000E+00 0. -1.
         23    2    1    2    0    0 -0.52768009670E+02 -0.45297522161E+02  0.53581471243E+03  0.54911802865E+03  0.97963641076E+02 0.  0.
         23    2    1    2    0    0  0.15797774751E+02  0.69357193342E+02  0.26944303600E+03  0.29298984129E+03  0.90462740941E+02 0.  0.
        -11    1    3    3    0    0  0.77311266496E+01 -0.54174705357E+02  0.32651836166E+03  0.33107236297E+03  0.00000000000E+00 0.  1.
         11    1    3    3    0    0 -0.60499136320E+02  0.88771831961E+01  0.20929635077E+03  0.21804566568E+03  0.00000000000E+00 0. -1.
        -13    1    4    4    0    0  0.33147456416E+02 -0.52688039210E+01  0.12569062226E+03  0.13009476041E+03  0.00000000000E+00 0.  1.
         13    1    4    4    0    0 -0.17349681665E+02  0.74625997263E+02  0.14375241374E+03  0.16289508088E+03  0.00000000000E+00 0. -1.
          1    1    1    2  501    0  0.36970234919E+02 -0.24059671180E+02 -0.39153407381E+01  0.44283133814E+02  0.00000000000E+00 0. -1.
<scales pt_clust_5="13000.00000" pt_clust_6="13000.00000" pt_clust_7="13000.00000" pt_clust_8="13000.00000" pt_clust_9="44.10970"></scales>
<clustering>
<clus scale="   44.110">  2  9  1 -1</clus>
<clus scale="   90.463">  7  8 -1 -1</clus>
<clus scale="   97.964">  5  6 -1 -1</clus>
<clus scale="  112.480">  2  7  1 -1</clus>
<clus scale="   44.110">  2  5  1 -1</clus>
</clustering>
</event>
<event>
 9    1  0.1426358E-005  0.1475439E+03  0.7546771E-02  0.1204540E+00
          1   -1    0    0  502    0 -0.00000000000E+00  0.00000000000E+00  0.41955444539E+03  0.41955444539E+03  0.00000000000E+00 0. -1.
         21   -1    0    0  501  502  0.00000000000E+00 -0.00000000000E+00 -0.18317472872E+03  0.18317472872E+03  0.00000000000E+00 0. -1.
         23    2    1    2    0    0 -0.69355819939E+02 -0.48789983772E+02  0.13448628281E+03  0.18319695856E+03  0.91015784816E+02 0.  0.
         23    2    1    2    0    0  0.10308182837E+03  0.10527366527E+03  0.22162345293E+03  0.28291915839E+03  0.96009829481E+02 0.  0.
        -11    1    4    4    0    0  0.38414456406E+02  0.84162349724E+02  0.18207824815E+03  0.20423383662E+03  0.00000000000E+00 0. -1.
         11    1    4    4    0    0  0.64667371968E+02  0.21111315542E+02  0.39545204784E+02  0.78685321773E+02  0.00000000000E+00 0.  1.
        -13    1    3    3    0    0 -0.21198907308E+02 -0.30709962405E+02 -0.19691596807E+01  0.37368075303E+02  0.00000000000E+00 0. -1.
         13    1    3    3    0    0 -0.48156912631E+02 -0.18080021366E+02  0.13645544249E+03  0.14582888326E+03  0.00000000000E+00 0.  1.
          1    1    1    2  501    0 -0.33726008435E+02 -0.56483681494E+02 -0.11973001906E+03  0.13661305716E+03  0.00000000000E+00 0. -1.
<scales pt_clust_5="13000.00000" pt_clust_6="13000.00000" pt_clust_7="13000.00000" pt_clust_8="13000.00000" pt_clust_9="65.78640"></scales>
<clustering>
<clus scale="   65.786">  2  9  1 -1</clus>
<clus scale="   91.016">  7  8 -1 -1</clus>
<clus scale="   96.010">  5  6 -1 -1</clus>
<clus scale="  144.344">  1  7  2 -1</clus>
<clus scale="   65.786">  2  5  1 -1</clus>
</clustering>
</event>
<event>
 9    1  0.1426358E-005  0.1873584E+03  0.7546771E-02  0.1161294E+00
         21   -1    0    0  501  502  0.00000000000E+00  0.00000000000E+00  0.13526400031E+03  0.13526400031E+03  0.00000000000E+00 0.  1.
          1   -1    0    0  502    0 -0.00000000000E+00 -0.00000000000E+00 -0.51393376621E+03  0.51393376621E+03  0.00000000000E+00 0. -1.
         23    2    1    2    0    0 -0.11329132147E+03 -0.93906613796E+02 -0.29109004717E+03  0.34233465797E+03  0.10395300306E+03 0.  0.
         23    2    1    2    0    0  0.18044896734E+03  0.59107997473E+02 -0.85324004333E+02  0.23119157267E+03  0.10056725301E+03 0.  0.
        -13    1    4    4    0    0  0.11589617501E+03  0.51823369407E+02 -0.10342900856E+03  0.16375330473E+03  0.00000000000E+00 0. -1.
         13    1    4    4    0    0  0.64552792335E+02  0.72846280663E+01  0.18105004229E+02  0.67438267938E+02  0.00000000000E+00 0.  1.
        -13    1    3    3    0    0  0.11464883263E+02 -0.30254793710E+02 -0.22458988928E+02  0.39385305310E+02  0.00000000000E+00 0.  1.
         13    1    3    3    0    0 -0.12475620473E+03 -0.63651820085E+02 -0.26863105825E+03  0.30294935266E+03  0.00000000000E+00 0. -1.
          1    1    1    2  501    0 -0.67157645868E+02  0.34798616322E+02 -0.22557143867E+01  0.75671535890E+02  0.00000000000E+00 0. -1.
<scales pt_clust_5="13000.00000" pt_clust_6="13000.00000" pt_clust_7="13000.00000" pt_clust_8="13000.00000" pt_clust_9="75.63791"></scales>
<clustering>
<clus scale="   75.638">  1  9  2 -1</clus>
<clus scale="  100.567">  5  6 -1 -1</clus>
<clus scale="  103.953">  7  8 -1 -1</clus>
<clus scale="  185.501">  1  5  2 -1</clus>
<clus scale="   75.638">  1  5  2 -1</clus>
</clustering>
</event>
<event>
 9    1  0.1426358E-005  0.1814223E+03  0.7546771E-02  0.1196279E+00
          1   -1    0    0  502    0 -0.00000000000E+00  0.00000000000E+00  0.71365802836E+03  0.71365802836E+03  0.00000000000E+00 0. -1.
         21   -1    0    0  501  502  0.00000000000E+00 -0.00000000000E+00 -0.92223833398E+02  0.92223833398E+02  0.00000000000E+00 0. -1.
         23    2    1    2    0    0  0.43437193861E+01  0.15397975005E+02  0.27547894111E+03  0.29071818722E+03  0.91501102999E+02 0.  0.
         23    2    1    2    0    0  0.15365258804E+03 -0.86046393945E+01  0.30214485838E+03  0.35106512695E+03  0.90950812416E+02 0.  0.
        -11    1    4    4    0    0  0.65086375494E+02  0.14755400335E+02  0.21315692244E+03  0.22336031809E+03  0.00000000000E+00 0. -1.
         11    1    4    4    0    0  0.88566212550E+02 -0.23360039729E+02  0.88987935948E+02  0.12770480886E+03  0.00000000000E+00 0.  1.
        -13    1    3    3    0    0  0.37334591670E+02  0.37676630592E+02  0.15318256737E+03  0.16210582708E+03  0.00000000000E+00 0.  1.
         13    1    3    3    0    0 -0.32990872284E+02 -0.22278655588E+02  0.12229637375E+03  0.12861236014E+03  0.00000000000E+00 0. -1.
          1    1    1    2  501    0 -0.15799630743E+03 -0.67933356101E+01  0.43810395463E+02  0.16409854759E+03  0.00000000000E+00 0. -1.
<scales pt_clust_5="13000.00000" pt_clust_6="13000.00000" pt_clust_7="13000.00000" pt_clust_8="13000.00000" pt_clust_9="156.97769"></scales>
<clustering>
<clus scale="   90.951">  5  6 -1 -1</clus>
<clus scale="   91.501">  7  8 -1 -1</clus>
<clus scale="   92.889">  1  7  2 -1</clus>
<clus scale="  156.978">  2  9  1 -1</clus>
<clus scale="  156.978">  2  5  1 -1</clus>
</clustering>
</event>
<event>
 9    1  0.1426358E-005  0.8991324E+02  0.7546771E-02  0.1320483E+00
         -1   -1    0    0    0  501 -0.00000000000E+00  0.00000000000E+00  0.57199629349E+03  0.57199629349E+03  0.00000000000E+00 0.  1.
         21   -1    0    0  501  502  0.00000000000E+00 -0.00000000000E+00 -0.24350609269E+02  0.24350609269E+02  0.00000000000E+00 0. -1.
         23    2    1    2    0    0 -0.21540959977E+02  0.79158263849E+01  0.45205044261E+03  0.46112933227E+03  0.88113478862E+02 0.  0.
         23    2    1    2    0    0  0.99983571074E-01  0.40252480611E+01  0.41014577478E+02  0.75373158668E+02  0.63108675024E+02 0.  0.
        -11    1    4    4    0    0  0.12919338878E+02  0.29653713729E+02  0.11746938262E+02  0.34412826293E+02  0.00000000000E+00 0.  1.
         11    1    4    4    0    0 -0.12819355307E+02 -0.25628465668E+02  0.29267639216E+02  0.40960332375E+02  0.00000000000E+00 0. -1.
        -11    1    3    3    0    0  0.21254611971E+02 -0.27902818303E+02  0.16095000753E+03  0.16472774728E+03  0.00000000000E+00 0. -1.
         11    1    3    3    0    0 -0.42795571948E+02  0.35818644688E+02  0.29110043508E+03  0.29640158500E+03  0.00000000000E+00 0.  1.
         -1    1    1    2    0  502  0.21440976406E+02 -0.11941074446E+02  0.54580664130E+02  0.59844411811E+02  0.00000000000E+00 0.  1.
<scales pt_clust_5="13000.00000" pt_clust_6="13000.00000" pt_clust_7="13000.00000" pt_clust_8="13000.00000" pt_clust_9="24.54190"></scales>
<clustering>
<clus scale="   24.542">  2  9  1 -1</clus>
<clus scale="   63.109">  5  6 -1 -1</clus>
<clus scale="   65.598">  2  5  1 -1</clus>
<clus scale="   88.113">  7  8 -1 -1</clus>
<clus scale="   24.542">  2  5  1 -1</clus>
</clustering>
</event>
<event>
 9    1  0.1426358E-005  0.1041832E+03  0.7546771E-02  0.1282400E+00
         21   -1    0    0  501  502  0.00000000000E+00  0.00000000000E+00  0.16550245788E+03  0.16550245788E+03  0.00000000000E+00 0.  1.
          1   -1    0    0  502    0 -0.00000000000E+00 -0.00000000000E+00 -0.13448664354E+03  0.13448664354E+03  0.00000000000E+00 0. -1.
         23    2    1    2    0    0  0.83163238205E+00  0.41477518365E+02 -0.72359110063E+02  0.12416508946E+03  0.91978543635E+02 0.  0.
         23    2    1    2    0    0  0.22653643201E+01 -0.78628543714E+02  0.76575896846E+02  0.12991129094E+03  0.69465788521E+02 0.  0.
        -11    1    4    4    0    0 -0.26317378439E+02 -0.57316388623E+02  0.26432583544E+02  0.68384605618E+02  0.00000000000E+00 0. -1.
         11    1    4    4    0    0  0.28582742759E+02 -0.21312155090E+02  0.50143313301E+02  0.61526685325E+02  0.00000000000E+00 0.  1.
        -11    1    3    3    0    0 -0.29113296846E+02 -0.18021135389E+02 -0.22676576856E+02  0.41067901235E+02  0.00000000000E+00 0.  1.
         11    1    3    3    0    0  0.29944929228E+02  0.59498653754E+02 -0.49682533208E+02  0.83097188225E+02  0.00000000000E+00 0. -1.
          1    1    1    2  501    0 -0.30969967022E+01  0.37151025349E+02  0.26799027559E+02  0.45912721017E+02  0.00000000000E+00 0. -1.
<scales pt_clust_5="13000.00000" pt_clust_6="13000.00000" pt_clust_7="13000.00000" pt_clust_8="13000.00000" pt_clust_9="37.27989"></scales>
<clustering>
<clus scale="   37.280">  1  9  2 -1</clus>
<clus scale="   69.466">  5  6 -1 -1</clus>
<clus scale="   84.968">  1  5  2 -1</clus>
<clus scale="   91.979">  7  8 -1 -1</clus>
<clus scale="   37.280">  1  5  2 -1</clus>
</clustering>
</event>
<event>
 9    1  0.1426358E-005  0.1208006E+03  0.7546771E-02  0.1242028E+00
         21   -1    0    0  501  502  0.00000000000E+00  0.00000000000E+00  0.46786520053E+03  0.46786520053E+03  0.00000000000E+00 0. -1.
         -1   -1    0    0    0  501 -0.00000000000E+00 -0.00000000000E+00 -0.39556027527E+02  0.39556027527E+02  0.00000000000E+00 0.  1.
         23    2    1    2    0    0  0.12447944759E+02 -0.81990729839E+02  0.16722347315E+03  0.20777434239E+03  0.91263663506E+02 0.  0.
         23    2    1    2    0    0 -0.31142406012E+02  0.70003566082E+02  0.17968304622E+03  0.21526935907E+03  0.90468509087E+02 0.  0.
        -11    1    3    3    0    0  0.18902769275E+02 -0.28386508357E+02  0.22363714292E+01  0.34177622798E+02  0.00000000000E+00 0.  1.
         11    1    3    3    0    0 -0.64548245156E+01 -0.53604221482E+02  0.16498710172E+03  0.17359671960E+03  0.00000000000E+00 0. -1.
        -11    1    4    4    0    0 -0.37053417680E+02  0.43069739092E+01  0.12222711647E+03  0.12779269849E+03  0.00000000000E+00 0. -1.
         11    1    4    4    0    0  0.59110116680E+01  0.65696592173E+02  0.57455929749E+02  0.87476660575E+02  0.00000000000E+00 0.  1.
         -1    1    1    2    0  502  0.18694461252E+02  0.11987163757E+02  0.81402653628E+02  0.84377526594E+02  0.00000000000E+00 0.  1.
<scales pt_clust_5="13000.00000" pt_clust_6="13000.00000" pt_clust_7="13000.00000" pt_clust_8="13000.00000" pt_clust_9="22.20754"></scales>
<clustering>
<clus scale="   22.208">  1  9  2 -1</clus>
<clus scale="   90.469">  7  8 -1 -1</clus>
<clus scale="   91.264">  5  6 -1 -1</clus>
<clus scale="  120.201">  1  7  2 -1</clus>
<clus scale="   22.208">  1  5  2 -1</clus>
</clustering>
</event>
<event>
 9    1  0.1426358E-005  0.1313867E+03  0.7546771E-02  0.1242182E+00
          2   -1    0    0  502    0 -0.00000000000E+00  0.00000000000E+00  0.41543949815E+03  0.41543949815E+03  0.00000000000E+00 0. -1.
         21   -1    0    0  501  502  0.00000000000E+00 -0.00000000000E+00 -0.11135420692E+03  0.11135420692E+03  0.00000000000E+00 0. -1.
         23    2    1    2    0    0 -0.57341741264E+01 -0.59885528201E+00  0.28189528195E+03  0.29688209007E+03  0.92955828445E+02 0.  0.
         23    2    1    2    0    0 -0.84141551031E+02  0.38931650398E+02  0.27730367903E+02  0.13204566214E+03  0.89842136962E+02 0.  0.
        -11    1    4    4    0    0 -0.54017700470E+02  0.51621761249E+02  0.52257906566E+02  0.91178983309E+02  0.00000000000E+00 0. -1.
         11    1    4    4    0    0 -0.30123850561E+02 -0.12690110851E+02 -0.24527538663E+02  0.40866678834E+02  0.00000000000E+00 0.  1.
        -13    1    3    3    0    0 -0.22470170686E+02 -0.41049838401E+02  0.11084360066E+03  0.12031750335E+03  0.00000000000E+00 0.  1.
         13    1    3    3    0    0  0.16735996560E+02  0.40450983119E+02  0.17105168129E+03  0.17656458673E+03  0.00000000000E+00 0. -1.
          2    1    1    2  501    0  0.89875725157E+02 -0.38332795116E+02 -0.55403586256E+01  0.97865952852E+02  0.00000000000E+00 0. -1.
<scales pt_clust_5="13000.00000" pt_clust_6="13000.00000" pt_clust_7="13000.00000" pt_clust_8="13000.00000" pt_clust_9="95.86889"></scales>
<clustering>
<clus scale="   89.842">  5  6 -1 -1</clus>
<clus scale="   92.956">  7  8 -1 -1</clus>
<clus scale="   93.134">  1  7  2 -1</clus>
<clus scale="   95.869">  2  9  1 -1</clus>
<clus scale="   95.869">  2  5  1 -1</clus>
</clustering>
</event>
<event>
 9    1  0.1426358E-005  0.1251831E+03  0.7546771E-02  0.1235112E+00
         21   -1    0    0  501  502  0.00000000000E+00  0.00000000000E+00  0.39415586345E+03  0.39415586345E+03  0.00000000000E+00 0. -1.
          1   -1    0    0  502    0 -0.00000000000E+00 -0.00000000000E+00 -0.12321196967E+03  0.12321196967E+03  0.00000000000E+00 0. -1.
         23    2    1    2    0    0  0.85100485328E+02 -0.21972803935E+02 -0.60648227833E+02  0.14017809321E+03  0.90811858040E+02 0.  0.
         23    2    1    2    0    0 -0.58015838332E+02  0.54497458078E+02  0.16304729784E+03  0.20341175267E+03  0.91957106063E+02 0.  0.
        -11    1    3    3    0    0  0.55010042042E+02 -0.33565454048E+02 -0.79879371417E+02  0.10263263813E+03  0.00000000000E+00 0. -1.
         11    1    3    3    0    0  0.30090443286E+02  0.11592650113E+02  0.19231143584E+02  0.37545455082E+02  0.00000000000E+00 0.  1.
        -13    1    4    4    0    0 -0.65527374105E+02  0.94644488307E+01  0.13353904561E+03  0.14905062647E+03  0.00000000000E+00 0.  1.
         13    1    4    4    0    0  0.75115357731E+01  0.45033009247E+02  0.29508252229E+02  0.54361126195E+02  0.00000000000E+00 0. -1.
          1    1    1    2  501    0 -0.27084646996E+02 -0.32524654143E+02  0.16854482377E+03  0.17377798724E+03  0.00000000000E+00 0. -1.
<scales pt_clust_5="13000.00000" pt_clust_6="13000.00000" pt_clust_7="13000.00000" pt_clust_8="13000.00000" pt_clust_9="42.32530"></scales>
<clustering>
<clus scale="   42.325">  1  9  2 -1</clus>
<clus scale="   90.812">  5  6 -1 -1</clus>
<clus scale="   91.957">  7  8 -1 -1</clus>
<clus scale="  124.344">  2  5  1 -1</clus>
<clus scale="   42.325">  1  5  2 -1</clus>
</clustering>
</event>
<event>
 9    1  0.1426358E-005  0.2851139E+03  0.7546771E-02  0.1127837E+00
         21   -1    0    0  501  502  0.00000000000E+00  0.00000000000E+00  0.80022206253E+03  0.80022206253E+03  0.00000000000E+00 0. -1.
         -1   -1    0    0    0  501 -0.00000000000E+00 -0.00000000000E+00 -0.16275496682E+03  0.16275496682E+03  0.00000000000E+00 0.  1.
         23    2    1    2    0    0 -0.75206395091E+02  0.27577620908E+02  0.35812039252E+02  0.12257427654E+03  0.85588691289E+02 0.  0.
         23    2    1    2    0    0  0.87473992686E+01  0.25775470651E+03  0.39663632477E+03  0.48282197098E+03  0.96346644020E+02 0.  0.
        -11    1    3    3    0    0  0.11526049861E+01 -0.24534471478E+02  0.10601588189E+02  0.26751868366E+02  0.00000000000E+00 0.  1.
         11    1    3    3    0    0 -0.76359000077E+02  0.52112092386E+02  0.25210451063E+02  0.95822408174E+02  0.00000000000E+00 0. -1.
        -11    1    4    4    0    0  0.48457881542E+02  0.15039464092E+03  0.26347666412E+03  0.30722413128E+03  0.00000000000E+00 0.  1.
         11    1    4    4    0    0 -0.39710482273E+02  0.10736006559E+03  0.13315966064E+03  0.17559783970E+03  0.00000000000E+00 0. -1.
         -1    1    1    2    0  502  0.66458995822E+02 -0.28533232742E+03  0.20501873169E+03  0.35758078183E+03  0.00000000000E+00 0.  1.
<scales pt_clust_5="13000.00000" pt_clust_6="13000.00000" pt_clust_7="13000.00000" pt_clust_8="13000.00000" pt_clust_9="268.34178"></scales>
<clustering>
<clus scale="   85.589">  5  6 -1 -1</clus>
<clus scale="   96.347">  7  8 -1 -1</clus>
<clus scale="  117.226">  2  5  1 -1</clus>
<clus scale="  268.342">  1  9  2 -1</clus>
<clus scale="  268.342">  1  5  2 -1</clus>
</clustering>
</event>
<event>
 9    1  0.1426358E-005  0.1163903E+03  0.7546771E-02  0.1255400E+00
          2   -1    0    0  502    0 -0.00000000000E+00  0.00000000000E+00  0.16999117786E+03  0.16999117786E+03  0.00000000000E+00 0. -1.
         21   -1    0    0  501  502  0.00000000000E+00 -0.00000000000E+00 -0.88736099459E+02  0.88736099459E+02  0.00000000000E+00 0.  1.
         23    2    1    2    0    0  0.80022732225E+02 -0.27055640984E+02  0.57386660771E+02  0.13679971986E+03  0.91023563646E+02 0.  0.
         23    2    1    2    0    0 -0.57269085300E+02  0.22537996680E+02  0.25292612072E+02  0.98686088306E+02  0.72880164478E+02 0.  0.
        -11    1    3    3    0    0 -0.15582883075E+02 -0.23876925480E+02  0.13932152951E+02  0.31733873088E+02  0.00000000000E+00 0.  1.
         11    1    3    3    0    0  0.95605615300E+02 -0.31787155046E+01  0.43454507820E+02  0.10506584678E+03  0.00000000000E+00 0. -1.
        -13    1    4    4    0    0 -0.63828973623E+02 -0.13864017174E+01  0.83489772409E+00  0.63849487372E+02  0.00000000000E+00 0.  1.
         13    1    4    4    0    0  0.65598883233E+01  0.23924398398E+02  0.24457714348E+02  0.34836600934E+02  0.00000000000E+00 0. -1.
          2    1    1    2  501    0 -0.22753646926E+02  0.45176443039E+01 -0.14241944401E+01  0.23241469151E+02  0.00000000000E+00 0. -1.
<scales pt_clust_5="13000.00000" pt_clust_6="13000.00000" pt_clust_7="13000.00000" pt_clust_8="13000.00000" pt_clust_9="23.19779"></scales>
<clustering>
<clus scale="   23.198">  2  9  1 -1</clus>
<clus scale="   72.880">  7  8 -1 -1</clus>
<clus scale="   91.024">  5  6 -1 -1</clus>
<clus scale="  102.825">  2  7  1 -1</clus>
<clus scale="   23.198">  2  5  1 -1</clus>
</clustering>
</event>
<event>
 9    1  0.1426358E-005  0.1003025E+03  0.7546771E-02  0.1280254E+00
         -3   -1    0    0    0  501 -0.00000000000E+00  0.00000000000E+00  0.74012097645E+03  0.74012097645E+03  0.00000000000E+00 0.  1.
         21   -1    0    0  501  502  0.00000000000E+00 -0.00000000000E+00 -0.24101656765E+02  0.24101656765E+02  0.00000000000E+00 0. -1.
         23    2    1    2    0    0 -0.43298170103E+02  0.17878209511E+02  0.47536299841E+03  0.48651104752E+03  0.92350729246E+02 0.  0.
         23    2    1    2    0    0  0.99040498268E+01 -0.31729437184E+02  0.20569589993E+03  0.22741988819E+03  0.91127135972E+02 0.  0.
        -11    1    4    4    0    0  0.36114167078E+02 -0.51341922062E+02  0.11530594395E+03  0.13128475439E+03  0.00000000000E+00 0. -1.
         11    1    4    4    0    0 -0.26210117251E+02  0.19612484878E+02  0.90389955978E+02  0.96135133802E+02  0.00000000000E+00 0.  1.
        -11    1    3    3    0    0 -0.54849652133E+02 -0.23232346258E+02  0.23825562800E+03  0.24558902770E+03  0.00000000000E+00 0. -1.
         11    1    3    3    0    0  0.11551482030E+02  0.41110555769E+02  0.23710737041E+03  0.24092201982E+03  0.00000000000E+00 0.  1.
         -3    1    1    2    0  502  0.33394120277E+02  0.13851227673E+02  0.34960421349E+02  0.50291697505E+02  0.00000000000E+00 0.  1.
<scales pt_clust_5="13000.00000" pt_clust_6="13000.00000" pt_clust_7="13000.00000" pt_clust_8="13000.00000" pt_clust_9="36.15278"></scales>
<clustering>
<clus scale="   36.153">  2  9  1 -1</clus>
<clus scale="   91.127">  5  6 -1 -1</clus>
<clus scale="   92.351">  7  8 -1 -1</clus>
<clus scale="   99.177">  2  5  1 -1</clus>
<clus scale="   36.153">  2  5  1 -1</clus>
</clustering>
</event>
<event>
 9    1  0.1426358E-005  0.9322041E+02  0.7546771E-02  0.1295956E+00
          1   -1    0    0  502    0 -0.00000000000E+00  0.00000000000E+00  0.18393524437E+03  0.18393524437E+03  0.00000000000E+00 0. -1.
         21   -1    0    0  501  502  0.00000000000E+00 -0.00000000000E+00 -0.14927152164E+03  0.14927152164E+03  0.00000000000E+00 0. -1.
         23    2    1    2    0    0 -0.18278826868E+02 -0.20599455456E+01  0.11403461563E+03  0.14706834618E+03  0.91032115218E+02 0.  0.
         23    2    1    2    0    0  0.28344257792E+00 -0.90569195225E+01  0.10951260183E+02  0.93372532342E+02  0.92284297501E+02 0.  0.
        -11    1    3    3    0    0 -0.45219249923E+02 -0.29561736332E+02  0.72790199844E+02  0.90648166071E+02  0.00000000000E+00 0.  1.
         11    1    3    3    0    0  0.26940423056E+02  0.27501790787E+02  0.41244415781E+02  0.56420180113E+02  0.00000000000E+00 0. -1.
        -13    1    4    4    0    0  0.10482483596E+01  0.37891385337E+02 -0.13743063701E+02  0.40320313829E+02  0.00000000000E+00 0.  1.
         13    1    4    4    0    0 -0.76480578171E+00 -0.46948304859E+02  0.24694323884E+02  0.53052218513E+02  0.00000000000E+00 0. -1.
          1    1    1    2  501    0  0.17995384290E+02  0.11116865068E+02 -0.90322153073E+02  0.92765887483E+02  0.00000000000E+00 0. -1.
<scales pt_clust_5="13000.00000" pt_clust_6="13000.00000" pt_clust_7="13000.00000" pt_clust_8="13000.00000" pt_clust_9="21.15227"></scales>
<clustering>
<clus scale="   21.152">  2  9  1 -1</clus>
<clus scale="   91.032">  5  6 -1 -1</clus>
<clus scale="   91.981">  1  5  2 -1</clus>
<clus scale="   92.284">  7  8 -1 -1</clus>
<clus scale="   21.152">  2  5  1 -1</clus>
</clustering>
</event>
<event>
 9    1  0.1426358E-005  0.1159849E+03  0.7546771E-02  0.1253671E+00
         21   -1    0    0  501  502  0.00000000000E+00  0.00000000000E+00  0.90190240430E+02  0.90190240430E+02  0.00000000000E+00 0.  1.
          1   -1    0    0  502    0 -0.00000000000E+00 -0.00000000000E+00 -0.37831726123E+03  0.37831726123E+03  0.00000000000E+00 0. -1.
         23    2    1    2    0    0 -0.53397740418E+02 -0.62326346145E+01 -0.29673159592E+03  0.31800893415E+03  0.10094492443E+03 0.  0.
         23    2    1    2    0    0  0.77988873490E+02  0.15781759584E+02  0.18413173698E+02  0.12235397265E+03  0.91105001697E+02 0.  0.
        -11    1    3    3    0    0  0.19229016898E+02 -0.15831274276E+02 -0.20593102838E+02  0.32318109793E+02  0.00000000000E+00 0.  1.
         11    1    3    3    0    0 -0.72626757316E+02  0.95986396620E+01 -0.27613849308E+03  0.28569082436E+03  0.00000000000E+00 0. -1.
        -11    1    4    4    0    0 -0.13984517615E+02 -0.17767716234E+02  0.76152054272E+01  0.23858956951E+02  0.00000000000E+00 0. -1.
         11    1    4    4    0    0  0.91973391105E+02  0.33549475818E+02  0.10797968271E+02  0.98495015700E+02  0.00000000000E+00 0.  1.
          1    1    1    2  501    0 -0.24591133072E+02 -0.95491249694E+01 -0.98085985739E+01  0.28144594853E+02  0.00000000000E+00 0. -1.
<scales pt_clust_5="13000.00000" pt_clust_6="13000.00000" pt_clust_7="13000.00000" pt_clust_8="13000.00000" pt_clust_9="26.38010"></scales>
<clustering>
<clus scale="   26.380">  1  9  2 -1</clus>
<clus scale="   91.105">  7  8 -1 -1</clus>
<clus scale="  100.945">  5  6 -1 -1</clus>
<clus scale="  107.530">  1  7  2 -1</clus>
<clus scale="   26.380">  1  5  2 -1</clus>
</clustering>
</event>
<event>
 9    1  0.1426358E-005  0.1506573E+03  0.7546771E-02  0.1222308E+00
          2   -1    0    0  502    0 -0.00000000000E+00  0.00000000000E+00  0.27570007301E+03  0.27570007301E+03  0.00000000000E+00 0. -1.
         21   -1    0    0  501  502  0.00000000000E+00 -0.00000000000E+00 -0.33087694856E+03  0.33087694856E+03  0.00000000000E+00 0. -1.
         23    2    1    2    0    0  0.49529648811E+01  0.59848408303E+01  0.17836972505E+03  0.20114688975E+03  0.92649674895E+02 0.  0.
         23    2    1    2    0    0 -0.10609222906E+03  0.58405949095E+02 -0.10062932053E+02  0.15181571052E+03  0.90994128393E+02 0.  0.
        -11    1    4    4    0    0 -0.86500005784E+02 -0.29770026163E+01  0.31290641698E+00  0.86551784821E+02  0.00000000000E+00 0.  1.
         11    1    4    4    0    0 -0.19592223279E+02  0.61382951711E+02 -0.10375838470E+02  0.65263925699E+02  0.00000000000E+00 0. -1.
        -13    1    3    3    0    0  0.28862604664E+02 -0.32996901967E+02  0.60470893653E+02  0.74689855179E+02  0.00000000000E+00 0.  1.
         13    1    3    3    0    0 -0.23909639783E+02  0.38981742798E+02  0.11789883140E+03  0.12645703457E+03  0.00000000000E+00 0. -1.
          2    1    1    2  501    0  0.10113926418E+03 -0.64390789925E+02 -0.22348366854E+03  0.25361442130E+03  0.00000000000E+00 0. -1.
<scales pt_clust_5="13000.00000" pt_clust_6="13000.00000" pt_clust_7="13000.00000" pt_clust_8="13000.00000" pt_clust_9="120.07372"></scales>
<clustering>
<clus scale="   90.994">  5  6 -1 -1</clus>
<clus scale="   92.650">  7  8 -1 -1</clus>
<clus scale="   92.975">  1  7  2 -1</clus>
<clus scale="  120.074">  2  9  1 -1</clus>
<clus scale="  120.074">  2  5  1 -1</clus>
</clustering>
</event>
<event>
 9    1  0.1426358E-005  0.1069647E+03  0.7546771E-02  0.1266609E+00
         21   -1    0    0  501  502  0.00000000000E+00  0.00000000000E+00  0.39249014491E+03  0.39249014491E+03  0.00000000000E+00 0. -1.
         -3   -1    0    0    0  501 -0.00000000000E+00 -0.00000000000E+00 -0.50912423839E+02  0.50912423839E+02  0.00000000000E+00 0.  1.
         23    2    1    2    0    0  0.15007006089E+02  0.62833360500E+02  0.83134326636E+02  0.13979259615E+03  0.91964190035E+02 0.  0.
         23    2    1    2    0    0 -0.28250388007E+02 -0.33270070723E+02  0.10474424283E+03  0.14653418048E+03  0.92714225522E+02 0.  0.
        -11    1    3    3    0    0  0.51146822756E+02  0.46860391189E+02  0.68965061415E+02  0.97816529464E+02  0.00000000000E+00 0. -1.
         11    1    3    3    0    0 -0.36139816666E+02  0.15972969310E+02  0.14169265221E+02  0.41976066683E+02  0.00000000000E+00 0.  1.
        -13    1    4    4    0    0 -0.24796499660E+00 -0.62193636276E+02  0.62104835267E+02  0.87892664332E+02  0.00000000000E+00 0.  1.
         13    1    4    4    0    0 -0.28002423010E+02  0.28923565553E+02  0.42639407565E+02  0.58641516148E+02  0.00000000000E+00 0. -1.
         -3    1    1    2    0  502  0.13243381917E+02 -0.29563289776E+02  0.15369915161E+03  0.15707579212E+03  0.00000000000E+00 0.  1.
<scales pt_clust_5="13000.00000" pt_clust_6="13000.00000" pt_clust_7="13000.00000" pt_clust_8="13000.00000" pt_clust_9="32.39406"></scales>
<clustering>
<clus scale="   32.394">  1  9  2 -1</clus>
<clus scale="   91.964">  5  6 -1 -1</clus>
<clus scale="   92.714">  7  8 -1 -1</clus>
<clus scale="  106.315">  2  5  1 -1</clus>
<clus scale="   32.394">  1  5  2 -1</clus>
</clustering>
</event>
<event>
 9    1  0.1964077E-005  0.1518554E+03  0.7546771E-02  0.1198408E+00
          1   -1    0    0  502    0 -0.00000000000E+00  0.00000000000E+00  0.37106971370E+03  0.37106971370E+03  0.00000000000E+00 0. -1.
         21   -1    0    0  501  502  0.00000000000E+00 -0.00000000000E+00 -0.34887945591E+03  0.34887945591E+03  0.00000000000E+00 0. -1.
         23    2    1    2    0    0 -0.59076371828E+02  0.10446522090E+03  0.32634197914E+03  0.35953293498E+03  0.91443118419E+02 0.  0.
         23    2    1    2    0    0  0.63939545662E+02 -0.12801608470E+03 -0.26969484186E+03  0.31839754605E+03  0.90362083663E+02 0.  0.
        -13    1    3    3    0    0 -0.40020377585E+02  0.84126641680E+02  0.31657855988E+03  0.33000137430E+03  0.00000000000E+00 0. -1.
         13    1    3    3    0    0 -0.19055994243E+02  0.20338579215E+02  0.97634192580E+01  0.29531560688E+02  0.00000000000E+00 0.  1.
        -13    1    4    4    0    0 -0.17523734896E+02 -0.13736475123E+02 -0.76059948410E+02  0.79252052249E+02  0.00000000000E+00 0.  1.
         13    1    4    4    0    0  0.81463280558E+02 -0.11427960958E+03 -0.19363489345E+03  0.23914549380E+03  0.00000000000E+00 0. -1.
          1    1    1    2  501    0 -0.48631738343E+01  0.23550863809E+02 -0.34456879488E+02  0.42018688580E+02  0.00000000000E+00 0. -1.
<scales pt_clust_5="13000.00000" pt_clust_6="13000.00000" pt_clust_7="13000.00000" pt_clust_8="13000.00000" pt_clust_9="24.04774"></scales>
<clustering>
<clus scale="   24.048">  2  9  1 -1</clus>
<clus scale="   90.362">  7  8 -1 -1</clus>
<clus scale="   91.443">  5  6 -1 -1</clus>
<clus scale="  151.207">  2  7  1 -1</clus>
<clus scale="   24.048">  2  5  1 -1</clus>
</clustering>
</event>
<event>
 9    1  0.1426358E-005  0.9849526E+02  0.7546771E-02  0.1283537E+00
         21   -1    0    0  501  502  0.00000000000E+00  0.00000000000E+00  0.27894236008E+03  0.27894236008E+03  0.00000000000E+00 0. -1.
          1   -1    0    0  502    0 -0.00000000000E+00 -0.00000000000E+00 -0.38767333427E+03  0.38767333427E+03  0.00000000000E+00 0. -1.
         23    2    1    2    0    0 -0.22615483902E+02  0.29102740565E+02 -0.34417352481E+03  0.35773489189E+03  0.90334977053E+02 0.  0.
         23    2    1    2    0    0  0.36443050063E+02 -0.58587623712E+02  0.56506156103E+02  0.12700503936E+03  0.90425266359E+02 0.  0.
        -11    1    4    4    0    0  0.99227082916E+00 -0.72308923964E+02  0.21797126296E+02  0.75529330733E+02  0.00000000000E+00 0. -1.
         11    1    4    4    0    0  0.35450779234E+02  0.13721300252E+02  0.34709029807E+02  0.51475708630E+02  0.00000000000E+00 0.  1.
        -13    1    3    3    0    0 -0.27025114550E+02 -0.27559110523E+02 -0.17716592656E+03  0.18132188760E+03  0.00000000000E+00 0.  1.
         13    1    3    3    0    0  0.44096306486E+01  0.56661851088E+02 -0.16700759825E+03  0.17641300429E+03  0.00000000000E+00 0. -1.
          1    1    1    2  501    0 -0.13827566161E+02  0.29484883148E+02  0.17893639451E+03  0.18187576309E+03  0.00000000000E+00 0. -1.
<scales pt_clust_5="13000.00000" pt_clust_6="13000.00000" pt_clust_7="13000.00000" pt_clust_8="13000.00000" pt_clust_9="32.56624"></scales>
<clustering>
<clus scale="   32.566">  1  9  2 -1</clus>
<clus scale="   90.335">  7  8 -1 -1</clus>
<clus scale="   90.425">  5  6 -1 -1</clus>
<clus scale="   98.412">  2  7  1 -1</clus>
<clus scale="   32.566">  1  5  2 -1</clus>
</clustering>
</event>
<event>
 9    1  0.1426358E-005  0.1001719E+03  0.7546771E-02  0.1285401E+00
         21   -1    0    0  501  502  0.00000000000E+00  0.00000000000E+00  0.20283600700E+03  0.20283600700E+03  0.00000000000E+00 0. -1.
          1   -1    0    0  502    0 -0.00000000000E+00 -0.00000000000E+00 -0.11155738927E+03  0.11155738927E+03  0.00000000000E+00 0. -1.
         23    2    1    2    0    0 -0.38793633789E+02  0.26061877511E+02 -0.23570534606E+02  0.10740832765E+03  0.93791317644E+02 0.  0.
         23    2    1    2    0    0  0.25865136764E+02 -0.11495164971E+01 -0.16689777974E+01  0.87134134470E+02  0.83182000547E+02 0.  0.
        -11    1    4    4    0    0  0.47548434077E+02 -0.23580811936E+02 -0.11727020114E+02  0.54354680346E+02  0.00000000000E+00 0.  1.
         11    1    4    4    0    0 -0.21683297313E+02  0.22431295439E+02  0.10058042316E+02  0.32779454124E+02  0.00000000000E+00 0. -1.
        -13    1    3    3    0    0 -0.31202401824E+02 -0.28075613970E+02  0.10141835256E+02  0.43182019426E+02  0.00000000000E+00 0.  1.
         13    1    3    3    0    0 -0.75912319653E+01  0.54137491481E+02 -0.33712369862E+02  0.64226308226E+02  0.00000000000E+00 0. -1.
          1    1    1    2  501    0  0.12928497025E+02 -0.24912361013E+02  0.11651813013E+03  0.11985093415E+03  0.00000000000E+00 0. -1.
<scales pt_clust_5="13000.00000" pt_clust_6="13000.00000" pt_clust_7="13000.00000" pt_clust_8="13000.00000" pt_clust_9="28.06727"></scales>
<clustering>
<clus scale="   28.067">  1  9  2 -1</clus>
<clus scale="   83.182">  5  6 -1 -1</clus>
<clus scale="   90.315">  1  5  2 -1</clus>
<clus scale="   93.791">  7  8 -1 -1</clus>
<clus scale="   28.067">  1  5  2 -1</clus>
</clustering>
</event>
<event>
 9    1  0.1426358E-005  0.1076488E+03  0.7546771E-02  0.1268869E+00
         21   -1    0    0  501  502  0.00000000000E+00  0.00000000000E+00  0.56537911711E+02  0.56537911711E+02  0.00000000000E+00 0.  1.
          3   -1    0    0  502    0 -0.00000000000E+00 -0.00000000000E+00 -0.26236994695E+03  0.26236994695E+03  0.00000000000E+00 0. -1.
         23    2    1    2    0    0  0.59804358568E+01  0.59550982361E+02 -0.11578673419E+03  0.15388226056E+03  0.81799127062E+02 0.  0.
         23    2    1    2    0    0 -0.27707683628E+02 -0.49313148057E+02 -0.91422908140E+02  0.14096766078E+03  0.91182404826E+02 0.  0.
        -13    1    3    3    0    0  0.25562190737E+02  0.67009375696E+01 -0.15175093992E+01  0.26469435098E+02  0.00000000000E+00 0.  1.
         13    1    3    3    0    0 -0.19581754881E+02  0.52850044792E+02 -0.11426922479E+03  0.12741282546E+03  0.00000000000E+00 0. -1.
        -13    1    4    4    0    0  0.79932095219E+01 -0.42638141771E+02 -0.85569901211E+00  0.43389339162E+02  0.00000000000E+00 0.  1.
         13    1    4    4    0    0 -0.35700893150E+02 -0.66750062864E+01 -0.90567209128E+02  0.97578321619E+02  0.00000000000E+00 0. -1.
          3    1    1    2  501    0  0.21727247771E+02 -0.10237834304E+02  0.13776070850E+01  0.24057937323E+02  0.00000000000E+00 0. -1.
<scales pt_clust_5="13000.00000" pt_clust_6="13000.00000" pt_clust_7="13000.00000" pt_clust_8="13000.00000" pt_clust_9="24.01846"></scales>
<clustering>
<clus scale="   24.018">  1  9  2 -1</clus>
<clus scale="   81.799">  5  6 -1 -1</clus>
<clus scale="   91.182">  7  8 -1 -1</clus>
<clus scale="   99.825">  2  5  1 -1</clus>
<clus scale="   24.018">  1  5  2 -1</clus>
</clustering>
</event>
<event>
 9    1  0.1426358E-005  0.9557050E+02  0.7546771E-02  0.1290989E+00
          2   -1    0    0  502    0 -0.00000000000E+00  0.00000000000E+00  0.79141993040E+02  0.79141993040E+02  0.00000000000E+00 0. -1.
         21   -1    0    0  501  502  0.00000000000E+00 -0.00000000000E+00 -0.16340022583E+03  0.16340022583E+03  0.00000000000E+00 0.  1.
         23    2    1    2    0    0  0.14320288838E+02  0.11669273709E+01 -0.18948211900E+02  0.95668625814E+02  0.92666168795E+02 0.  0.
         23    2    1    2    0    0 -0.31617756520E+02  0.13615613610E+02 -0.24313035459E+02  0.99985655157E+02  0.90669399924E+02 0.  0.
        -11    1    4    4    0    0 -0.40779028205E+02  0.40800805267E+02 -0.37091027711E+02  0.68581186840E+02  0.00000000000E+00 0.  1.
         11    1    4    4    0    0  0.91612716846E+01 -0.27185191657E+02  0.12777992252E+02  0.31404468317E+02  0.00000000000E+00 0. -1.
        -11    1    3    3    0    0  0.64470215780E+01 -0.23980387015E+02 -0.49465727258E+02  0.55348723759E+02  0.00000000000E+00 0.  1.
         11    1    3    3    0    0  0.78732672603E+01  0.25147314386E+02  0.30517515357E+02  0.40319902055E+02  0.00000000000E+00 0. -1.
          2    1    1    2  501    0  0.17297467682E+02 -0.14782540981E+02 -0.40996985431E+02  0.46887937900E+02  0.00000000000E+00 0. -1.
<scales pt_clust_5="13000.00000" pt_clust_6="13000.00000" pt_clust_7="13000.00000" pt_clust_8="13000.00000" pt_clust_9="22.75359"></scales>
<clustering>
<clus scale="   22.754">  2  9  1 -1</clus>
<clus scale="   90.669">  5  6 -1 -1</clus>
<clus scale="   92.666">  7  8 -1 -1</clus>
<clus scale="   93.636">  2  5  1 -1</clus>
<clus scale="   22.754">  2  5  1 -1</clus>
</clustering>
</event>
<event>
 9    1  0.1426358E-005  0.1021036E+03  0.7546771E-02  0.1278995E+00
         21   -1    0    0  501  502  0.00000000000E+00  0.00000000000E+00  0.58448273366E+03  0.58448273366E+03  0.00000000000E+00 0.  1.
         -3   -1    0    0    0  501 -0.00000000000E+00 -0.00000000000E+00 -0.22854958546E+02  0.22854958546E+02  0.00000000000E+00 0.  1.
         23    2    1    2    0    0  0.86072662046E+01  0.23221035416E+02  0.21849085783E+03  0.24063958454E+03  0.97754044286E+02 0.  0.
         23    2    1    2    0    0  0.14455653952E+02 -0.35815948888E+02  0.23076393012E+03  0.25129352207E+03  0.91677121829E+02 0.  0.
        -11    1    3    3    0    0  0.13736613891E+02  0.60651648383E+02  0.12012029179E+03  0.13526345224E+03  0.00000000000E+00 0.  1.
         11    1    3    3    0    0 -0.51293476862E+01 -0.37430612967E+02  0.98370566039E+02  0.10537613230E+03  0.00000000000E+00 0. -1.
        -13    1    4    4    0    0  0.33206838918E+02 -0.54343769645E+02  0.20407297358E+03  0.21377960145E+03  0.00000000000E+00 0.  1.
         13    1    4    4    0    0 -0.18751184967E+02  0.18527820757E+02  0.26690956536E+02  0.37513920622E+02  0.00000000000E+00 0. -1.
         -3    1    1    2    0  502 -0.23062920156E+02  0.12594913472E+02  0.11237298716E+03  0.11540458559E+03  0.00000000000E+00 0.  1.
<scales pt_clust_5="13000.00000" pt_clust_6="13000.00000" pt_clust_7="13000.00000" pt_clust_8="13000.00000" pt_clust_9="26.27794"></scales>
<clustering>
<clus scale="   26.278">  1  9  2 -1</clus>
<clus scale="   91.677">  7  8 -1 -1</clus>
<clus scale="   96.302">  1  7  2 -1</clus>
<clus scale="   97.754">  5  6 -1 -1</clus>
<clus scale="   26.278">  1  5  2 -1</clus>
</clustering>
</event>
<event>
 9    1  0.1426358E-005  0.1264121E+03  0.7546771E-02  0.1233679E+00
          1   -1    0    0  502    0 -0.00000000000E+00  0.00000000000E+00  0.72187331319E+03  0.72187331319E+03  0.00000000000E+00 0. -1.
         21   -1    0    0  501  502  0.00000000000E+00 -0.00000000000E+00 -0.75421267312E+02  0.75421267312E+02  0.00000000000E+00 0. -1.
         23    2    1    2    0    0 -0.38716543791E+02 -0.72727061680E+02  0.33827419180E+03  0.35959618624E+03  0.89954388752E+02 0.  0.
         23    2    1    2    0    0  0.21280434034E+02  0.88475073384E+02  0.35895106215E+03  0.38175255926E+03  0.92781765445E+02 0.  0.
        -11    1    3    3    0    0  0.70839710897E+01 -0.74146928792E+02  0.23720725025E+03  0.24862668656E+03  0.00000000000E+00 0. -1.
         11    1    3    3    0    0 -0.45800514881E+02  0.14198671122E+01  0.10106694155E+03  0.11096949969E+03  0.00000000000E+00 0.  1.
        -13    1    4    4    0    0 -0.25727518859E+02  0.66638623883E+02  0.14537355961E+03  0.16197556375E+03  0.00000000000E+00 0.  1.
         13    1    4    4    0    0  0.47007952893E+02  0.21836449501E+02  0.21357750254E+03  0.21977699551E+03  0.00000000000E+00 0. -1.
          1    1    1    2  501    0  0.17436109757E+02 -0.15748011705E+02 -0.50773208074E+02  0.55945835003E+02  0.00000000000E+00 0. -1.
<scales pt_clust_5="13000.00000" pt_clust_6="13000.00000" pt_clust_7="13000.00000" pt_clust_8="13000.00000" pt_clust_9="23.49506"></scales>
<clustering>
<clus scale="   23.495">  2  9  1 -1</clus>
<clus scale="   89.954">  5  6 -1 -1</clus>
<clus scale="   92.782">  7  8 -1 -1</clus>
<clus scale="  124.352">  1  5  2 -1</clus>
<clus scale="   23.495">  2  5  1 -1</clus>
</clustering>
</event>
<event>
 9    1  0.1426358E-005  0.1115757E+03  0.7546771E-02  0.1258647E+00
         -1   -1    0    0    0  501 -0.00000000000E+00  0.00000000000E+00  0.12190001584E+03  0.12190001584E+03  0.00000000000E+00 0.  1.
         21   -1    0    0  501  502  0.00000000000E+00 -0.00000000000E+00 -0.23902206475E+03  0.23902206475E+03  0.00000000000E+00 0. -1.
         23    2    1    2    0    0  0.59905440194E+01  0.57984281549E+02  0.84961563097E+01  0.11013555943E+03  0.93056935558E+02 0.  0.
         23    2    1    2    0    0  0.17278186513E+02 -0.74436463371E+02 -0.16441650073E+03  0.20264697565E+03  0.90518993704E+02 0.  0.
        -11    1    4    4    0    0  0.13159716879E+02 -0.95719162484E+02 -0.13001676074E+03  0.16198671022E+03  0.00000000000E+00 0. -1.
         11    1    4    4    0    0  0.41184696342E+01  0.21282699114E+02 -0.34399739988E+02  0.40660265431E+02  0.00000000000E+00 0.  1.
        -13    1    3    3    0    0  0.32137188721E+02  0.57841284165E+02  0.33316694019E+02  0.74083838677E+02  0.00000000000E+00 0.  1.
         13    1    3    3    0    0 -0.26146644701E+02  0.14299738365E+00 -0.24820537709E+02  0.36051720757E+02  0.00000000000E+00 0. -1.
         -1    1    1    2    0  502 -0.23268730533E+02  0.16452181822E+02  0.38798295510E+02  0.48139545509E+02  0.00000000000E+00 0.  1.
<scales pt_clust_5="13000.00000" pt_clust_6="13000.00000" pt_clust_7="13000.00000" pt_clust_8="13000.00000" pt_clust_9="28.49752"></scales>
<clustering>
<clus scale="   28.498">  2  9  1 -1</clus>
<clus scale="   90.519">  5  6 -1 -1</clus>
<clus scale="   93.057">  7  8 -1 -1</clus>
<clus scale="  109.468">  2  5  1 -1</clus>
<clus scale="   28.498">  2  5  1 -1</clus>
</clustering>
</event>
<event>
 9    1  0.1426358E-005  0.1010842E+03  0.7546771E-02  0.1279201E+00
          2   -1    0    0  502    0 -0.00000000000E+00  0.00000000000E+00  0.44016218870E+03  0.44016218870E+03  0.00000000000E+00 0. -1.
         21   -1    0    0  501  502  0.00000000000E+00 -0.00000000000E+00 -0.66957711312E+02  0.66957711312E+02  0.00000000000E+00 0. -1.
         23    2    1    2    0    0  0.14830785041E+01  0.30894028292E+02  0.24884978741E+03  0.26781878177E+03  0.94042770417E+02 0.  0.
         23    2    1    2    0    0  0.71263637984E+02 -0.37932696731E+02  0.11093623099E+03  0.16499309273E+03  0.91643208820E+02 0.  0.
        -13    1    3    3    0    0  0.43324441252E+02  0.22273790209E+02  0.80142479538E+02  0.93786704636E+02  0.00000000000E+00 0. -1.
         13    1    3    3    0    0 -0.41841362748E+02  0.86202380825E+01  0.16870730787E+03  0.17403207713E+03  0.00000000000E+00 0.  1.
        -13    1    4    4    0    0  0.69748040361E+01  0.28401895113E+02  0.33354806262E+02  0.44360552726E+02  0.00000000000E+00 0.  1.
         13    1    4    4    0    0  0.64288833948E+02 -0.66334591844E+02  0.77581424729E+02  0.12063254001E+03  0.00000000000E+00 0. -1.
          2    1    1    2  501    0 -0.72746716488E+02  0.70386684394E+01  0.13418458980E+02  0.74308025506E+02  0.00000000000E+00 0. -1.
<scales pt_clust_5="13000.00000" pt_clust_6="13000.00000" pt_clust_7="13000.00000" pt_clust_8="13000.00000" pt_clust_9="73.08644"></scales>
<clustering>
<clus scale="   73.086">  2  9  1 -1</clus>
<clus scale="   91.643">  7  8 -1 -1</clus>
<clus scale="   94.043">  5  6 -1 -1</clus>
<clus scale="   98.856">  2  7  1 -1</clus>
<clus scale="   73.086">  2  5  1 -1</clus>
</clustering>
</event>
<event>
 9    1  0.1426358E-005  0.9773102E+02  0.7546771E-02  0.1289140E+00
         21   -1    0    0  501  502  0.00000000000E+00  0.00000000000E+00  0.81802824838E+02  0.81802824838E+02  0.00000000000E+00 0. -1.
          3   -1    0    0  502    0 -0.00000000000E+00 -0.00000000000E+00 -0.35421098819E+03  0.35421098819E+03  0.00000000000E+00 0. -1.
         23    2    1    2    0    0  0.11673627498E+01  0.26701760019E+02 -0.25836325064E+03  0.27701753511E+03  0.96295372435E+02 0.  0.
         23    2    1    2    0    0 -0.22024398124E+02  0.23540222105E+02 -0.34560946334E+02  0.10085695965E+03  0.89097986114E+02 0.  0.
        -11    1    4    4    0    0 -0.15211723448E+02 -0.32888045923E+02 -0.43700540194E+01  0.36498184435E+02  0.00000000000E+00 0.  1.
         11    1    4    4    0    0 -0.68126746763E+01  0.56428268028E+02 -0.30190892315E+02  0.64358775219E+02  0.00000000000E+00 0. -1.
        -11    1    3    3    0    0  0.22929164509E+02  0.48250817450E+02 -0.22692305274E+03  0.23312648891E+03  0.00000000000E+00 0. -1.
         11    1    3    3    0    0 -0.21761801759E+02 -0.21549057431E+02 -0.31440197907E+02  0.43891046199E+02  0.00000000000E+00 0.  1.
          3    1    1    2  501    0  0.20857035374E+02 -0.50241982124E+02  0.20516033626E+02  0.58139318263E+02  0.00000000000E+00 0. -1.
<scales pt_clust_5="13000.00000" pt_clust_6="13000.00000" pt_clust_7="13000.00000" pt_clust_8="13000.00000" pt_clust_9="54.39920"></scales>
<clustering>
<clus scale="   54.399">  1  9  2 -1</clus>
<clus scale="   89.098">  5  6 -1 -1</clus>
<clus scale="   90.648">  1  5  2 -1</clus>
<clus scale="   96.295">  7  8 -1 -1</clus>
<clus scale="   54.399">  1  5  2 -1</clus>
</clustering>
</event>
<event>
 9    1  0.1426358E-005  0.1011792E+03  0.7546771E-02  0.1278086E+00
         21   -1    0    0  501  502  0.00000000000E+00  0.00000000000E+00  0.32482504097E+02  0.32482504097E+02  0.00000000000E+00 0.  1.
          2   -1    0    0  502    0 -0.00000000000E+00 -0.00000000000E+00 -0.47298963923E+03  0.47298963923E+03  0.00000000000E+00 0. -1.
         23    2    1    2    0    0 -0.44489877453E+02  0.41847869615E+02 -0.20327010799E+03  0.23121959038E+03  0.91723327391E+02 0.  0.
         23    2    1    2    0    0  0.75422210429E+01 -0.25276557970E+02 -0.14250277558E+03  0.17122674985E+03  0.91190840194E+02 0.  0.
        -11    1    3    3    0    0  0.26581267232E+02  0.25738944174E+02 -0.60269797868E+02  0.70721323163E+02  0.00000000000E+00 0.  1.
         11    1    3    3    0    0 -0.71071144685E+02  0.16108925441E+02 -0.14300031012E+03  0.16049826722E+03  0.00000000000E+00 0. -1.
        -13    1    4    4    0    0  0.41726605767E+02 -0.26627040227E+02 -0.41521099116E+02  0.64607356949E+02  0.00000000000E+00 0.  1.
         13    1    4    4    0    0 -0.34184384724E+02  0.13504822574E+01 -0.10098167646E+03  0.10661939290E+03  0.00000000000E+00 0. -1.
          2    1    1    2  501    0  0.36947656410E+02 -0.16571311645E+02 -0.94734251570E+02  0.10302580310E+03  0.00000000000E+00 0. -1.
<scales pt_clust_5="13000.00000" pt_clust_6="13000.00000" pt_clust_7="13000.00000" pt_clust_8="13000.00000" pt_clust_9="40.49369"></scales>
<clustering>
<clus scale="   40.494">  1  9  2 -1</clus>
<clus scale="   91.191">  7  8 -1 -1</clus>
<clus scale="   91.723">  5  6 -1 -1</clus>
<clus scale="  100.697">  1  7  2 -1</clus>
<clus scale="   40.494">  1  5  2 -1</clus>
</clustering>
</event>
<event>
 9    1  0.1426358E-005  0.9628798E+02  0.7546771E-02  0.1288652E+00
         -3   -1    0    0    0  501 -0.00000000000E+00  0.00000000000E+00  0.13048186725E+03  0.13048186725E+03  0.00000000000E+00 0.  1.
         21   -1    0    0  501  502  0.00000000000E+00 -0.00000000000E+00 -0.26732214284E+03  0.26732214284E+03  0.00000000000E+00 0. -1.
         23    2    1    2    0    0  0.24124755994E+02 -0.13282971175E+02  0.94090237655E+02  0.13378505431E+03  0.91033108037E+02 0.  0.
         23    2    1    2    0    0 -0.41798884793E+02  0.26669999334E+02 -0.20437165332E+03  0.22942184041E+03  0.91696087940E+02 0.  0.
        -13    1    3    3    0    0  0.38562874387E+02 -0.38878149621E+02  0.88196235570E+02  0.10381320613E+03  0.00000000000E+00 0.  1.
         13    1    3    3    0    0 -0.14438118393E+02  0.25595178445E+02  0.58940020856E+01  0.29971848174E+02  0.00000000000E+00 0. -1.
        -13    1    4    4    0    0  0.25749498709E+02 -0.78580150395E+01 -0.37993555400E+02  0.46564958242E+02  0.00000000000E+00 0.  1.
         13    1    4    4    0    0 -0.67548383502E+02  0.34528014373E+02 -0.16637809792E+03  0.18285688217E+03  0.00000000000E+00 0. -1.
         -3    1    1    2    0  502  0.17674128799E+02 -0.13387028158E+02 -0.26558859930E+02  0.34597115378E+02  0.00000000000E+00 0.  1.
<scales pt_clust_5="13000.00000" pt_clust_6="13000.00000" pt_clust_7="13000.00000" pt_clust_8="13000.00000" pt_clust_9="22.17177"></scales>
<clustering>
<clus scale="   22.172">  2  9  1 -1</clus>
<clus scale="   91.033">  5  6 -1 -1</clus>
<clus scale="   91.696">  7  8 -1 -1</clus>
<clus scale="   95.657">  1  5  2 -1</clus>
<clus scale="   22.172">  2  5  1 -1</clus>
</clustering>
</event>
<event>
 9    1  0.1426358E-005  0.1548321E+03  0.7546771E-02  0.1194780E+00
         -3   -1    0    0    0  501 -0.00000000000E+00  0.00000000000E+00  0.14411497384E+03  0.14411497384E+03  0.00000000000E+00 0.  1.
         21   -1    0    0  501  502  0.00000000000E+00 -0.00000000000E+00 -0.49714921105E+03  0.49714921105E+03  0.00000000000E+00 0.  1.
         23    2    1    2    0    0  0.63168328362E+01 -0.12842115483E+03  0.14889138830E+02  0.15865253453E+03  0.91744454172E+02 0.  0.
         23    2    1    2    0    0 -0.12392405039E+03  0.91494587637E+02 -0.27564606640E+03  0.32863070718E+03  0.91043714497E+02 0.  0.
        -11    1    3    3    0    0  0.47117866692E+02 -0.61580040586E+02  0.20312936837E+02  0.80154913531E+02  0.00000000000E+00 0. -1.
         11    1    3    3    0    0 -0.40801033855E+02 -0.66841114245E+02 -0.54237980071E+01  0.78497620995E+02  0.00000000000E+00 0.  1.
        -13    1    4    4    0    0 -0.37963341740E+02  0.83893291029E+02 -0.12934417265E+03  0.15877409926E+03  0.00000000000E+00 0. -1.
         13    1    4    4    0    0 -0.85960708652E+02  0.76012966083E+01 -0.14630189374E+03  0.16985660792E+03  0.00000000000E+00 0.  1.
         -3    1    1    2    0  502  0.11760721756E+03  0.36926567193E+02 -0.92277309643E+02  0.15398094317E+03  0.00000000000E+00 0.  1.
<scales pt_clust_5="13000.00000" pt_clust_6="13000.00000" pt_clust_7="13000.00000" pt_clust_8="13000.00000" pt_clust_9="123.26812"></scales>
<clustering>
<clus scale="   91.044">  7  8 -1 -1</clus>
<clus scale="   91.744">  5  6 -1 -1</clus>
<clus scale="  123.268">  2  9  1 -1</clus>
<clus scale="  154.418">  2  7  1 -1</clus>
<clus scale="  123.268">  2  5  1 -1</clus>
</clustering>
</event>
<event>
 9    1  0.1426358E-005  0.1103173E+03  0.7546771E-02  0.1261799E+00
          3   -1    0    0  502    0 -0.00000000000E+00  0.00000000000E+00  0.12945715114E+03  0.12945715114E+03  0.00000000000E+00 0. -1.
         21   -1    0    0  501  502  0.00000000000E+00 -0.00000000000E+00 -0.34343026907E+03  0.34343026907E+03  0.00000000000E+00 0. -1.
         23    2    1    2    0    0 -0.12473024180E+02 -0.68048689312E+02  0.72129092121E+02  0.13523811071E+03  0.91107300521E+02 0.  0.
         23    2    1    2    0    0  0.81238027165E+01  0.40978521561E+02 -0.67474339608E+02  0.11730899216E+03  0.86390842897E+02 0.  0.
        -11    1    3    3    0    0  0.33021725498E+02 -0.58740143323E+02  0.49287963069E+02  0.83487376866E+02  0.00000000000E+00 0. -1.
         11    1    3    3    0    0 -0.45494749678E+02 -0.93085459890E+01  0.22841129051E+02  0.51750733841E+02  0.00000000000E+00 0.  1.
        -11    1    4    4    0    0 -0.32654109783E+02 -0.10903241696E+01 -0.76133071272E+01  0.33547610018E+02  0.00000000000E+00 0. -1.
         11    1    4    4    0    0  0.40777912500E+02  0.42068845730E+02 -0.59861032480E+02  0.83761382143E+02  0.00000000000E+00 0.  1.
          3    1    1    2  501    0  0.43492214639E+01  0.27070167751E+02 -0.21862787045E+03  0.22034031734E+03  0.00000000000E+00 0. -1.
<scales pt_clust_5="13000.00000" pt_clust_6="13000.00000" pt_clust_7="13000.00000" pt_clust_8="13000.00000" pt_clust_9="27.41732"></scales>
<clustering>
<clus scale="   27.417">  2  9  1 -1</clus>
<clus scale="   86.391">  7  8 -1 -1</clus>
<clus scale="   91.107">  5  6 -1 -1</clus>
<clus scale="  106.455">  2  7  1 -1</clus>
<clus scale="   27.417">  2  5  1 -1</clus>
</clustering>
</event>
<event>
 9    1  0.1426358E-005  0.1002977E+03  0.7546771E-02  0.1280653E+00
          2   -1    0    0  502    0 -0.00000000000E+00  0.00000000000E+00  0.95277442704E+02  0.95277442704E+02  0.00000000000E+00 0. -1.
         21   -1    0    0  501  502  0.00000000000E+00 -0.00000000000E+00 -0.32285675083E+03  0.32285675083E+03  0.00000000000E+00 0. -1.
         23    2    1    2    0    0  0.16012601261E+02 -0.32531685704E+02  0.43722279240E+02  0.10667506293E+03  0.90295168065E+02 0.  0.
         23    2    1    2    0    0 -0.54798458574E+02  0.37778392999E+02 -0.20459590462E+03  0.23411885147E+03  0.92315082127E+02 0.  0.
        -11    1    4    4    0    0 -0.96149945173E+01  0.45495593227E+02 -0.34354880762E+02  0.57814833346E+02  0.00000000000E+00 0. -1.
         11    1    4    4    0    0 -0.45183464056E+02 -0.77172002284E+01 -0.17024102386E+03  0.17630401813E+03  0.00000000000E+00 0.  1.
        -13    1    3    3    0    0  0.27054169925E+02 -0.55194400293E+02  0.51608677652E+02  0.80260859347E+02  0.00000000000E+00 0. -1.
         13    1    3    3    0    0 -0.11041568664E+02  0.22662714590E+02 -0.78863984119E+01  0.26414203586E+02  0.00000000000E+00 0.  1.
          2    1    1    2  501    0  0.38785857313E+02 -0.52467072950E+01 -0.66705682742E+02  0.77340279124E+02  0.00000000000E+00 0. -1.
<scales pt_clust_5="13000.00000" pt_clust_6="13000.00000" pt_clust_7="13000.00000" pt_clust_8="13000.00000" pt_clust_9="39.13912"></scales>
<clustering>
<clus scale="   39.139">  2  9  1 -1</clus>
<clus scale="   90.295">  7  8 -1 -1</clus>
<clus scale="   92.315">  5  6 -1 -1</clus>
<clus scale="   98.442">  1  7  2 -1</clus>
<clus scale="   39.139">  2  5  1 -1</clus>
</clustering>
</event>
<event>
 9    1  0.1426358E-005  0.1189664E+03  0.7546771E-02  0.1244904E+00
         21   -1    0    0  501  502  0.00000000000E+00  0.00000000000E+00  0.71946426016E+02  0.71946426016E+02  0.00000000000E+00 0. -1.
          3   -1    0    0  502    0 -0.00000000000E+00 -0.00000000000E+00 -0.48433196699E+03  0.48433196699E+03  0.00000000000E+00 0. -1.
         23    2    1    2    0    0 -0.57734495169E+02  0.42950198671E+02 -0.26103205163E+03  0.28749747548E+03  0.96638889316E+02 0.  0.
         23    2    1    2    0    0  0.62742699049E+02 -0.23089738217E+02 -0.19087642853E+03  0.22426594570E+03  0.96910376812E+02 0.  0.
        -11    1    4    4    0    0  0.41250512261E+02 -0.60988771870E+02 -0.10935627123E+03  0.13183333840E+03  0.00000000000E+00 0.  1.
         11    1    4    4    0    0  0.21492186788E+02  0.37899033654E+02 -0.81520157302E+02  0.92432607295E+02  0.00000000000E+00 0. -1.
        -13    1    3    3    0    0 -0.16793074433E+02  0.14158248762E+02 -0.26113856667E+00  0.21966600790E+02  0.00000000000E+00 0.  1.
         13    1    3    3    0    0 -0.40941420736E+02  0.28791949909E+02 -0.26077091306E+03  0.26553087469E+03  0.00000000000E+00 0. -1.
          3    1    1    2  501    0 -0.50082038809E+01 -0.19860460455E+02  0.39522939188E+02  0.44514971837E+02  0.00000000000E+00 0. -1.
<scales pt_clust_5="13000.00000" pt_clust_6="13000.00000" pt_clust_7="13000.00000" pt_clust_8="13000.00000" pt_clust_9="20.48219"></scales>
<clustering>
<clus scale="   20.482">  1  9  2 -1</clus>
<clus scale="   96.639">  7  8 -1 -1</clus>
<clus scale="   96.910">  5  6 -1 -1</clus>
<clus scale="  118.745">  2  7  1 -1</clus>
<clus scale="   20.482">  1  5  2 -1</clus>
</clustering>
</event>
<event>
 9    1  0.1426358E-005  0.1422757E+03  0.7546771E-02  0.1210565E+00
          1   -1    0    0  502    0 -0.00000000000E+00  0.00000000000E+00  0.23320028339E+03  0.23320028339E+03  0.00000000000E+00 0. -1.
         21   -1    0    0  501  502  0.00000000000E+00 -0.00000000000E+00 -0.32593345852E+03  0.32593345852E+03  0.00000000000E+00 0.  1.
         23    2    1    2    0    0  0.77478193838E+02 -0.71077705629E+02  0.16351443359E+03  0.21464351151E+03  0.90994265115E+02 0.  0.
         23    2    1    2    0    0 -0.10018720316E+03  0.76946674540E+02 -0.98147742327E+02  0.18465997152E+03  0.92239142214E+02 0.  0.
        -13    1    3    3    0    0  0.69031032097E+02 -0.18241772062E+01  0.87482040262E+02  0.11145276301E+03  0.00000000000E+00 0. -1.
         13    1    3    3    0    0  0.84471617408E+01 -0.69253528423E+02  0.76032393329E+02  0.10319074850E+03  0.00000000000E+00 0.  1.
        -13    1    4    4    0    0 -0.56804721243E+02  0.81556463291E+02 -0.30134562760E+02  0.10385723342E+03  0.00000000000E+00 0. -1.
         13    1    4    4    0    0 -0.43382481920E+02 -0.46097887510E+01 -0.68013179567E+02  0.80802738102E+02  0.00000000000E+00 0.  1.
          1    1    1    2  501    0  0.22709009325E+02 -0.58689689110E+01 -0.15809986639E+03  0.15983025888E+03  0.00000000000E+00 0. -1.
<scales pt_clust_5="13000.00000" pt_clust_6="13000.00000" pt_clust_7="13000.00000" pt_clust_8="13000.00000" pt_clust_9="23.45515"></scales>
<clustering>
<clus scale="   23.455">  2  9  1 -1</clus>
<clus scale="   90.994">  5  6 -1 -1</clus>
<clus scale="   92.239">  7  8 -1 -1</clus>
<clus scale="  141.472">  1  5  2 -1</clus>
<clus scale="   23.455">  2  5  1 -1</clus>
</clustering>
</event>
<event>
 9    1  0.1426358E-005  0.1082435E+03  0.7546771E-02  0.1266205E+00
         21   -1    0    0  501  502  0.00000000000E+00  0.00000000000E+00  0.10625060518E+03  0.10625060518E+03  0.00000000000E+00 0.  1.
          1   -1    0    0  502    0 -0.00000000000E+00 -0.00000000000E+00 -0.13514975790E+03  0.13514975790E+03  0.00000000000E+00 0. -1.
         23    2    1    2    0    0  0.83329421267E+00  0.61870186956E+02 -0.34915705690E+02  0.11173554479E+03  0.86238686514E+02 0.  0.
         23    2    1    2    0    0 -0.20244911228E+02 -0.48467207199E+02  0.43452552759E+01  0.10601647844E+03  0.91987422259E+02 0.  0.
        -11    1    4    4    0    0  0.24545750084E+02  0.25893372597E+01  0.24895350517E+02  0.35056768134E+02  0.00000000000E+00 0.  1.
         11    1    4    4    0    0 -0.44790661312E+02 -0.51056544459E+02 -0.20550095241E+02  0.70959710310E+02  0.00000000000E+00 0. -1.
        -11    1    3    3    0    0  0.15750371693E+02  0.18756911830E+02  0.25941542094E+02  0.35677157343E+02  0.00000000000E+00 0. -1.
         11    1    3    3    0    0 -0.14917077480E+02  0.43113275126E+02 -0.60857247784E+02  0.76058387443E+02  0.00000000000E+00 0.  1.
          1    1    1    2  501    0  0.19411617016E+02 -0.13402979757E+02  0.16712976947E+01  0.23648339847E+02  0.00000000000E+00 0. -1.
<scales pt_clust_5="13000.00000" pt_clust_6="13000.00000" pt_clust_7="13000.00000" pt_clust_8="13000.00000" pt_clust_9="23.58921"></scales>
<clustering>
<clus scale="   23.589">  1  9  2 -1</clus>
<clus scale="   86.239">  7  8 -1 -1</clus>
<clus scale="   91.987">  5  6 -1 -1</clus>
<clus scale="  103.402">  2  7  1 -1</clus>
<clus scale="   23.589">  1  5  2 -1</clus>
</clustering>
</event>
<event>
 9    1  0.1426358E-005  0.1077171E+03  0.7546771E-02  0.1265181E+00
         21   -1    0    0  501  502  0.00000000000E+00  0.00000000000E+00  0.28303096079E+03  0.28303096079E+03  0.00000000000E+00 0. -1.
         -3   -1    0    0    0  501 -0.00000000000E+00 -0.00000000000E+00 -0.26450457579E+03  0.26450457579E+03  0.00000000000E+00 0.  1.
         23    2    1    2    0    0 -0.30593491868E+02  0.45261268698E+02 -0.22286480713E+03  0.24679032339E+03  0.90841605390E+02 0.  0.
         23    2    1    2    0    0  0.29515817171E+02 -0.74393940684E+02  0.10329161481E+03  0.15960213961E+03  0.91640839182E+02 0.  0.
        -11    1    4    4    0    0  0.34925872484E+02 -0.49601421634E+02  0.82394227216E+01  0.61220957879E+02  0.00000000000E+00 0.  1.
         11    1    4    4    0    0 -0.54100553124E+01 -0.24792519050E+02  0.95052192084E+02  0.98381181734E+02  0.00000000000E+00 0. -1.
        -13    1    3    3    0    0  0.12255630043E+01  0.56946980968E+02 -0.19425382098E+03  0.20243272367E+03  0.00000000000E+00 0.  1.
         13    1    3    3    0    0 -0.31819054873E+02 -0.11685712270E+02 -0.28610986155E+02  0.44357599721E+02  0.00000000000E+00 0. -1.
         -3    1    1    2    0  502  0.10776746971E+01  0.29132671986E+02  0.13809957733E+03  0.14114307358E+03  0.00000000000E+00 0.  1.
<scales pt_clust_5="13000.00000" pt_clust_6="13000.00000" pt_clust_7="13000.00000" pt_clust_8="13000.00000" pt_clust_9="29.15260"></scales>
<clustering>
<clus scale="   29.153">  1  9  2 -1</clus>
<clus scale="   90.842">  7  8 -1 -1</clus>
<clus scale="   91.641">  5  6 -1 -1</clus>
<clus scale="  107.038">  2  7  1 -1</clus>
<clus scale="   29.153">  1  5  2 -1</clus>
</clustering>
</event>
<event>
 9    1  0.1426358E-005  0.1547239E+03  0.7546771E-02  0.1196359E+00
         21   -1    0    0  501  502  0.00000000000E+00  0.00000000000E+00  0.64128991675E+02  0.64128991675E+02  0.00000000000E+00 0. -1.
          2   -1    0    0  502    0 -0.00000000000E+00 -0.00000000000E+00 -0.75702002392E+03  0.75702002392E+03  0.00000000000E+00 0. -1.
         23    2    1    2    0    0  0.64226465405E+02 -0.73501863091E+02 -0.31966450114E+03  0.34796041236E+03  0.96765141167E+02 0.  0.
         23    2    1    2    0    0 -0.13949607361E+03  0.83285700156E+02 -0.34649853825E+03  0.39271734757E+03  0.88147692368E+02 0.  0.
        -11    1    4    4    0    0 -0.67210633306E+02 -0.60996140266E+01 -0.98872923442E+02  0.11970935432E+03  0.00000000000E+00 0.  1.
         11    1    4    4    0    0 -0.72285440299E+02  0.89385314183E+02 -0.24762561481E+03  0.27300799325E+03  0.00000000000E+00 0. -1.
        -13    1    3    3    0    0  0.57665694268E+02  0.21242937244E+01 -0.17967584822E+03  0.18871474599E+03  0.00000000000E+00 0.  1.
         13    1    3    3    0    0  0.65607711368E+01 -0.75626156815E+02 -0.13998865292E+03  0.15924566637E+03  0.00000000000E+00 0. -1.
          2    1    1    2  501    0  0.75269608201E+02 -0.97838370657E+01 -0.26727992855E+02  0.80471255666E+02  0.00000000000E+00 0. -1.
<scales pt_clust_5="13000.00000" pt_clust_6="13000.00000" pt_clust_7="13000.00000" pt_clust_8="13000.00000" pt_clust_9="75.90282"></scales>
<clustering>
<clus scale="   75.903">  1  9  2 -1</clus>
<clus scale="   88.148">  5  6 -1 -1</clus>
<clus scale="   96.765">  7  8 -1 -1</clus>
<clus scale="  149.486">  1  5  2 -1</clus>
<clus scale="   75.903">  1  5  2 -1</clus>
</clustering>
</event>
<event>
 9    1  0.1426358E-005  0.1169462E+03  0.7546771E-02  0.1249465E+00
         21   -1    0    0  501  502  0.00000000000E+00  0.00000000000E+00  0.27788563907E+03  0.27788563907E+03  0.00000000000E+00 0. -1.
          1   -1    0    0  502    0 -0.00000000000E+00 -0.00000000000E+00 -0.11361600968E+03  0.11361600968E+03  0.00000000000E+00 0. -1.
         23    2    1    2    0    0 -0.30700700133E+02 -0.60128446196E+02 -0.39100436549E+02  0.11934314041E+03  0.90310453409E+02 0.  0.
         23    2    1    2    0    0  0.87699698202E+01  0.79181526369E+02  0.83435860229E+02  0.14875595368E+03  0.93915730818E+02 0.  0.
        -11    1    3    3    0    0 -0.37626584433E+02  0.79629235464E+01 -0.32914511668E+02  0.50621468626E+02  0.00000000000E+00 0.  1.
         11    1    3    3    0    0  0.69258842992E+01 -0.68091369742E+02 -0.61859248809E+01  0.68721671788E+02  0.00000000000E+00 0. -1.
        -11    1    4    4    0    0  0.22028430705E+02 -0.42098076183E+01  0.55428129293E+02  0.59793408972E+02  0.00000000000E+00 0.  1.
         11    1    4    4    0    0 -0.13258460885E+02  0.83391333988E+02  0.28007730936E+02  0.88962544711E+02  0.00000000000E+00 0. -1.
          1    1    1    2  501    0  0.21930730313E+02 -0.19053080174E+02  0.11993420571E+03  0.12340255465E+03  0.00000000000E+00 0. -1.
<scales pt_clust_5="13000.00000" pt_clust_6="13000.00000" pt_clust_7="13000.00000" pt_clust_8="13000.00000" pt_clust_9="29.05128"></scales>
<clustering>
<clus scale="   29.051">  1  9  2 -1</clus>
<clus scale="   90.310">  5  6 -1 -1</clus>
<clus scale="   93.916">  7  8 -1 -1</clus>
<clus scale="  114.071">  2  5  1 -1</clus>
<clus scale="   29.051">  1  5  2 -1</clus>
</clustering>
</event>
<event>
 9    1  0.1426358E-005  0.1417021E+03  0.7546771E-02  0.1211401E+00
          1   -1    0    0  502    0 -0.00000000000E+00  0.00000000000E+00  0.52506796665E+03  0.52506796665E+03  0.00000000000E+00 0. -1.
         21   -1    0    0  501  502  0.00000000000E+00 -0.00000000000E+00 -0.57314579291E+02  0.57314579291E+02  0.00000000000E+00 0.  1.
         23    2    1    2    0    0 -0.83781687861E+02 -0.57395638842E+02  0.26734158398E+03  0.30042177251E+03  0.92022216319E+02 0.  0.
         23    2    1    2    0    0  0.11080667131E+03  0.53779162670E+02  0.11201713709E+03  0.18945647267E+03  0.90419020622E+02 0.  0.
        -11    1    3    3    0    0  0.19361710480E+02 -0.66009408245E+01  0.25906155334E+02  0.33008743336E+02  0.00000000000E+00 0.  1.
         11    1    3    3    0    0 -0.10314339834E+03 -0.50794698017E+02  0.24143542864E+03  0.26741302918E+03  0.00000000000E+00 0. -1.
        -11    1    4    4    0    0  0.87052611151E+02  0.62802138788E+02  0.42514482109E+02  0.11545452323E+03  0.00000000000E+00 0.  1.
         11    1    4    4    0    0  0.23754060158E+02 -0.90229761178E+01  0.69502654976E+02  0.74001949439E+02  0.00000000000E+00 0. -1.
          1    1    1    2  501    0 -0.27024983448E+02  0.36164761716E+01  0.88394666300E+02  0.92504300768E+02  0.00000000000E+00 0. -1.
<scales pt_clust_5="13000.00000" pt_clust_6="13000.00000" pt_clust_7="13000.00000" pt_clust_8="13000.00000" pt_clust_9="27.26590"></scales>
<clustering>
<clus scale="   27.266">  2  9  1 -1</clus>
<clus scale="   90.419">  7  8 -1 -1</clus>
<clus scale="   92.022">  5  6 -1 -1</clus>
<clus scale="  140.666">  2  7  1 -1</clus>
<clus scale="   27.266">  2  5  1 -1</clus>
</clustering>
</event>
<event>
 9    1  0.1426358E-005  0.1289224E+03  0.7546771E-02  0.1247337E+00
          3   -1    0    0  502    0 -0.00000000000E+00  0.00000000000E+00  0.31431639051E+03  0.31431639051E+03  0.00000000000E+00 0. -1.
         21   -1    0    0  501  502  0.00000000000E+00 -0.00000000000E+00 -0.29143922840E+03  0.29143922840E+03  0.00000000000E+00 0. -1.
         23    2    1    2    0    0 -0.16688389920E+01 -0.23589270252E+01  0.78820102398E+02  0.11877307615E+03  0.88803634589E+02 0.  0.
         23    2    1    2    0    0 -0.33523867127E+02  0.88413265086E+02  0.18648459811E+03  0.22733858069E+03  0.89250041040E+02 0.  0.
        -13    1    4    4    0    0  0.28707510414E+02  0.11165559825E+02  0.46114030267E+02  0.55455339399E+02  0.00000000000E+00 0.  1.
         13    1    4    4    0    0 -0.62231377541E+02  0.77247705261E+02  0.14037056785E+03  0.17188324129E+03  0.00000000000E+00 0. -1.
        -13    1    3    3    0    0 -0.33807930311E+01 -0.41066764640E+02  0.14496258556E+02  0.43681236609E+02  0.00000000000E+00 0.  1.
         13    1    3    3    0    0  0.17119540392E+01  0.38707837615E+02  0.64323843841E+02  0.75091839543E+02  0.00000000000E+00 0. -1.
          3    1    1    2  501    0  0.35192706119E+02 -0.86054338061E+02 -0.24242753840E+03  0.25964396207E+03  0.00000000000E+00 0. -1.
<scales pt_clust_5="13000.00000" pt_clust_6="13000.00000" pt_clust_7="13000.00000" pt_clust_8="13000.00000" pt_clust_9="93.03447"></scales>
<clustering>
<clus scale="   88.804">  7  8 -1 -1</clus>
<clus scale="   88.851">  1  7  2 -1</clus>
<clus scale="   89.250">  5  6 -1 -1</clus>
<clus scale="   93.034">  2  9  1 -1</clus>
<clus scale="   93.034">  2  5  1 -1</clus>
</clustering>
</event>
<event>
 9    1  0.1426358E-005  0.1104578E+03  0.7546771E-02  0.1260633E+00
         -2   -1    0    0    0  501 -0.00000000000E+00  0.00000000000E+00  0.19828419371E+03  0.19828419371E+03  0.00000000000E+00 0.  1.
         21   -1    0    0  501  502  0.00000000000E+00 -0.00000000000E+00 -0.10655076811E+03  0.10655076811E+03  0.00000000000E+00 0.  1.
         23    2    1    2    0    0  0.32864274462E+02 -0.48193567620E+02  0.10927549639E+03  0.15473952673E+03  0.92738915911E+02 0.  0.
         23    2    1    2    0    0 -0.69455046101E+01  0.70475113124E+02 -0.11861531523E+02  0.11544693690E+03  0.90400872257E+02 0.  0.
        -11    1    3    3    0    0 -0.29927317401E+02 -0.15167843355E+02  0.15003141691E+02  0.36753259168E+02  0.00000000000E+00 0. -1.
         11    1    3    3    0    0  0.62791591863E+02 -0.33025724264E+02  0.94272354698E+02  0.11798626756E+03  0.00000000000E+00 0.  1.
        -13    1    4    4    0    0 -0.41498150706E+02  0.91948160767E+01  0.58397142729E+01  0.42903885809E+02  0.00000000000E+00 0. -1.
         13    1    4    4    0    0  0.34552646096E+02  0.61280297047E+02 -0.17701245796E+02  0.72543051088E+02  0.00000000000E+00 0.  1.
         -2    1    1    2    0  502 -0.25918769852E+02 -0.22281545504E+02 -0.56805392637E+01  0.34648498193E+02  0.00000000000E+00 0.  1.
<scales pt_clust_5="13000.00000" pt_clust_6="13000.00000" pt_clust_7="13000.00000" pt_clust_8="13000.00000" pt_clust_9="34.17967"></scales>
<clustering>
<clus scale="   34.180">  2  9  1 -1</clus>
<clus scale="   90.401">  7  8 -1 -1</clus>
<clus scale="   92.739">  5  6 -1 -1</clus>
<clus scale="  108.502">  2  7  1 -1</clus>
<clus scale="   34.180">  2  5  1 -1</clus>
</clustering>
</event>
<event>
 9    1  0.1426358E-005  0.1302434E+03  0.7546771E-02  0.1227172E+00
         21   -1    0    0  501  502  0.00000000000E+00  0.00000000000E+00  0.13393439379E+03  0.13393439379E+03  0.00000000000E+00 0. -1.
          3   -1    0    0  502    0 -0.00000000000E+00 -0.00000000000E+00 -0.22445961289E+03  0.22445961289E+03  0.00000000000E+00 0. -1.
         23    2    1    2    0    0 -0.78953937748E+02  0.39874485559E+02 -0.13480076457E+03  0.18517223720E+03  0.91070370680E+02 0.  0.
         23    2    1    2    0    0  0.10331913099E+03 -0.35432791684E+02  0.33974314242E+02  0.14639814834E+03  0.91366505103E+02 0.  0.
        -11    1    3    3    0    0 -0.43798820692E+02 -0.26319741675E+02 -0.43984178604E+02  0.67421609765E+02  0.00000000000E+00 0.  1.
         11    1    3    3    0    0 -0.35155117057E+02  0.66194227234E+02 -0.90816585968E+02  0.11775062744E+03  0.00000000000E+00 0. -1.
        -13    1    4    4    0    0  0.94236555888E+02 -0.11501104885E+02 -0.10057070315E+02  0.95467002375E+02  0.00000000000E+00 0. -1.
         13    1    4    4    0    0  0.90825751036E+01 -0.23931686799E+02  0.44031384558E+02  0.50931145968E+02  0.00000000000E+00 0.  1.
          3    1    1    2  501    0 -0.24365193243E+02 -0.44416938749E+01  0.10301231231E+02  0.26823621141E+02  0.00000000000E+00 0. -1.
<scales pt_clust_5="13000.00000" pt_clust_6="13000.00000" pt_clust_7="13000.00000" pt_clust_8="13000.00000" pt_clust_9="24.76674"></scales>
<clustering>
<clus scale="   24.767">  1  9  2 -1</clus>
<clus scale="   91.070">  5  6 -1 -1</clus>
<clus scale="   91.367">  7  8 -1 -1</clus>
<clus scale="  130.036">  2  5  1 -1</clus>
<clus scale="   24.767">  1  5  2 -1</clus>
</clustering>
</event>
<event>
 9    1  0.1426358E-005  0.1362910E+03  0.7546771E-02  0.1231993E+00
          2   -1    0    0  502    0 -0.00000000000E+00  0.00000000000E+00  0.27530652883E+03  0.27530652883E+03  0.00000000000E+00 0. -1.
         21   -1    0    0  501  502  0.00000000000E+00 -0.00000000000E+00 -0.12322890852E+03  0.12322890852E+03  0.00000000000E+00 0. -1.
         23    2    1    2    0    0  0.41708095857E+02 -0.23967371486E+02  0.99288797057E+01  0.10320028940E+03  0.90761869329E+02 0.  0.
         23    2    1    2    0    0  0.77743116506E+02  0.47563403661E+02  0.35901364641E+02  0.13373728358E+03  0.91052092264E+02 0.  0.
        -11    1    4    4    0    0 -0.20971342072E+02  0.82760997028E+01  0.50585478613E+01  0.23105841709E+02  0.00000000000E+00 0.  1.
         11    1    4    4    0    0  0.98714458578E+02  0.39287303958E+02  0.30842816780E+02  0.11063144188E+03  0.00000000000E+00 0. -1.
        -13    1    3    3    0    0  0.63462793690E+02 -0.25610159793E+02 -0.15013466275E+02  0.70062904858E+02  0.00000000000E+00 0. -1.
         13    1    3    3    0    0 -0.21754697833E+02  0.16427883074E+01  0.24942345980E+02  0.33137384541E+02  0.00000000000E+00 0.  1.
          2    1    1    2  501    0 -0.11945121236E+03 -0.23596032176E+02  0.10624737596E+03  0.16159786437E+03  0.00000000000E+00 0. -1.
<scales pt_clust_5="13000.00000" pt_clust_6="13000.00000" pt_clust_7="13000.00000" pt_clust_8="13000.00000" pt_clust_9="101.41388"></scales>
<clustering>
<clus scale="   90.762">  7  8 -1 -1</clus>
<clus scale="   91.052">  5  6 -1 -1</clus>
<clus scale="  102.722">  1  7  2 -1</clus>
<clus scale="  101.414">  2  9  1 -1</clus>
<clus scale="  101.414">  2  5  1 -1</clus>
</clustering>
</event>
<event>
 9    1  0.1426358E-005  0.4053424E+03  0.7546771E-02  0.1042072E+00
         -2   -1    0    0    0  501 -0.00000000000E+00  0.00000000000E+00  0.82580169780E+03  0.82580169780E+03  0.00000000000E+00 0.  1.
         21   -1    0    0  501  502  0.00000000000E+00 -0.00000000000E+00 -0.38300872077E+03  0.38300872077E+03  0.00000000000E+00 0. -1.
         23    2    1    2    0    0 -0.11445900697E+03 -0.36938574628E+03  0.58326668401E+03  0.70605503445E+03  0.93632222944E+02 0.  0.
         23    2    1    2    0    0  0.13468252040E+03  0.39712503765E+03 -0.87856953489E+02  0.43993037692E+03  0.99860980498E+02 0.  0.
        -11    1    3    3    0    0 -0.19600017096E+02 -0.16789745095E+03  0.31416225536E+03  0.35675150652E+03  0.00000000000E+00 0. -1.
         11    1    3    3    0    0 -0.94858989874E+02 -0.20148829533E+03  0.26910442865E+03  0.34930352794E+03  0.00000000000E+00 0.  1.
        -11    1    4    4    0    0 -0.14801278570E+02  0.17077319784E+02 -0.65148469067E+01  0.23519267177E+02  0.00000000000E+00 0.  1.
         11    1    4    4    0    0  0.14948379897E+03  0.38004771787E+03 -0.81342106582E+02  0.41641110974E+03  0.00000000000E+00 0. -1.
         -2    1    1    2    0  502 -0.20223513432E+02 -0.27739291376E+02 -0.52616753493E+02  0.62825007200E+02  0.00000000000E+00 0.  1.
<scales pt_clust_5="13000.00000" pt_clust_6="13000.00000" pt_clust_7="13000.00000" pt_clust_8="13000.00000" pt_clust_9="34.32869"></scales>
<clustering>
<clus scale="   34.329">  2  9  1 -1</clus>
<clus scale="   93.632">  5  6 -1 -1</clus>
<clus scale="   99.861">  7  8 -1 -1</clus>
<clus scale="  403.853">  1  5  2 -1</clus>
<clus scale="   34.329">  2  5  1 -1</clus>
</clustering>
</event>
<event>
 9    1  0.1426358E-005  0.1060470E+03  0.7546771E-02  0.1269654E+00
         -3   -1    0    0    0  501 -0.00000000000E+00  0.00000000000E+00  0.67794662866E+02  0.67794662866E+02  0.00000000000E+00 0.  1.
         21   -1    0    0  501  502  0.00000000000E+00 -0.00000000000E+00 -0.27411038587E+03  0.27411038587E+03  0.00000000000E+00 0.  1.
         23    2    1    2    0    0 -0.47965348579E+02 -0.17139975212E+02 -0.11650424250E+02  0.10765444946E+03  0.94123826359E+02 0.  0.
         23    2    1    2    0    0  0.33377233965E+02  0.33264316100E+02 -0.12547032180E+03  0.16171955563E+03  0.90497837254E+02 0.  0.
        -11    1    4    4    0    0 -0.10938844759E+02  0.52319822940E+02 -0.59331902129E+02  0.79857978984E+02  0.00000000000E+00 0.  1.
         11    1    4    4    0    0  0.44316078723E+02 -0.19055506840E+02 -0.66138419672E+02  0.81861576647E+02  0.00000000000E+00 0. -1.
        -11    1    3    3    0    0 -0.62447496705E+02  0.20679489610E+02 -0.10425088424E+01  0.65790713326E+02  0.00000000000E+00 0.  1.
         11    1    3    3    0    0  0.14482148125E+02 -0.37819464822E+02 -0.10607915408E+02  0.41863736133E+02  0.00000000000E+00 0. -1.
         -3    1    1    2    0  502  0.14588114615E+02 -0.16124340888E+02 -0.69194976949E+02  0.72531043644E+02  0.00000000000E+00 0.  1.
<scales pt_clust_5="13000.00000" pt_clust_6="13000.00000" pt_clust_7="13000.00000" pt_clust_8="13000.00000" pt_clust_9="21.74414"></scales>
<clustering>
<clus scale="   21.744">  2  9  1 -1</clus>
<clus scale="   90.498">  5  6 -1 -1</clus>
<clus scale="   94.124">  7  8 -1 -1</clus>
<clus scale="  102.842">  2  5  1 -1</clus>
<clus scale="   21.744">  2  5  1 -1</clus>
</clustering>
</event>
<event>
 9    1  0.1426358E-005  0.9722224E+02  0.7546771E-02  0.1288373E+00
         21   -1    0    0  501  502  0.00000000000E+00  0.00000000000E+00  0.86660499186E+02  0.86660499186E+02  0.00000000000E+00 0. -1.
          1   -1    0    0  502    0 -0.00000000000E+00 -0.00000000000E+00 -0.34428834939E+03  0.34428834939E+03  0.00000000000E+00 0. -1.
         23    2    1    2    0    0 -0.30612189057E+02 -0.95464802078E+01 -0.22555614890E+03  0.24616736630E+03  0.93244595127E+02 0.  0.
         23    2    1    2    0    0  0.80028432117E+01  0.25849076364E+02 -0.84206514030E+02  0.12566299228E+03  0.89264944826E+02 0.  0.
        -11    1    4    4    0    0 -0.18139230507E+02 -0.28031020896E+02 -0.30402256370E+02  0.45156029589E+02  0.00000000000E+00 0. -1.
         11    1    4    4    0    0  0.26142073718E+02  0.53880097260E+02 -0.53804257659E+02  0.80506962688E+02  0.00000000000E+00 0.  1.
        -13    1    3    3    0    0 -0.46074925901E+02  0.91994787324E+01 -0.21429374152E+03  0.21938399408E+03  0.00000000000E+00 0. -1.
         13    1    3    3    0    0  0.15462736843E+02 -0.18745958940E+02 -0.11262407384E+02  0.26783372218E+02  0.00000000000E+00 0.  1.
          1    1    1    2  501    0  0.22609345846E+02 -0.16302596156E+02  0.52134812730E+02  0.59118489996E+02  0.00000000000E+00 0. -1.
<scales pt_clust_5="13000.00000" pt_clust_6="13000.00000" pt_clust_7="13000.00000" pt_clust_8="13000.00000" pt_clust_9="27.87395"></scales>
<clustering>
<clus scale="   27.874">  1  9  2 -1</clus>
<clus scale="   89.265">  5  6 -1 -1</clus>
<clus scale="   93.245">  7  8 -1 -1</clus>
<clus scale="   93.412">  1  5  2 -1</clus>
<clus scale="   27.874">  1  5  2 -1</clus>
</clustering>
</event>
<event>
 9    1  0.1629862E-005  0.1444505E+03  0.7546771E-02  0.1210465E+00
         21   -1    0    0  501  502  0.00000000000E+00  0.00000000000E+00  0.69999503525E+03  0.69999503525E+03  0.00000000000E+00 0. -1.
          1   -1    0    0  502    0 -0.00000000000E+00 -0.00000000000E+00 -0.18669430278E+03  0.18669430278E+03  0.00000000000E+00 0. -1.
         23    2    1    2    0    0 -0.71414982652E+01  0.11401007447E+03 -0.12389956588E+03  0.19198883983E+03  0.91974529713E+02 0.  0.
         23    2    1    2    0    0  0.45959301535E+02 -0.33007912835E+02  0.11744165441E+03  0.16723749477E+03  0.10475713704E+03 0.  0.
        -13    1    3    3    0    0 -0.44947174959E+02  0.36457127331E+02 -0.32817049518E+02  0.66530665178E+02  0.00000000000E+00 0.  1.
         13    1    3    3    0    0  0.37805676693E+02  0.77552947138E+02 -0.91082516360E+02  0.12545817465E+03  0.00000000000E+00 0. -1.
        -13    1    4    4    0    0  0.75805637559E+02 -0.96067928475E+01  0.54880258249E+02  0.94077775802E+02  0.00000000000E+00 0. -1.
         13    1    4    4    0    0 -0.29846336024E+02 -0.23401119988E+02  0.62561396159E+02  0.73159718972E+02  0.00000000000E+00 0.  1.
          1    1    1    2  501    0 -0.38817803269E+02 -0.81002161634E+02  0.51975864394E+03  0.52746300343E+03  0.00000000000E+00 0. -1.
<scales pt_clust_5="13000.00000" pt_clust_6="13000.00000" pt_clust_7="13000.00000" pt_clust_8="13000.00000" pt_clust_9="89.82300"></scales>
<clustering>
<clus scale="   89.823">  1  9  2 -1</clus>
<clus scale="   91.975">  5  6 -1 -1</clus>
<clus scale="  104.757">  7  8 -1 -1</clus>
<clus scale="  135.467">  2  5  1 -1</clus>
<clus scale="   89.823">  1  5  2 -1</clus>
</clustering>
</event>
<event>
 9    1  0.1426358E-005  0.9222331E+02  0.7546771E-02  0.1307202E+00
         21   -1    0    0  501  502  0.00000000000E+00  0.00000000000E+00  0.77370971627E+02  0.77370971627E+02  0.00000000000E+00 0. -1.
          2   -1    0    0  502    0 -0.00000000000E+00 -0.00000000000E+00 -0.29886056197E+03  0.29886056197E+03  0.00000000000E+00 0. -1.
         23    2    1    2    0    0  0.17271975928E+01 -0.86865458900E+01 -0.14689300287E+03  0.16542378103E+03  0.75558148112E+02 0.  0.
         23    2    1    2    0    0 -0.11081157681E+02  0.26604710725E+02 -0.12461229701E+03  0.15686214662E+03  0.90812475946E+02 0.  0.
        -11    1    4    4    0    0 -0.25275471794E+02  0.56168085343E+02 -0.91150082987E+02  0.11000927649E+03  0.00000000000E+00 0. -1.
         11    1    4    4    0    0  0.14194314114E+02 -0.29563374617E+02 -0.33462214022E+02  0.46852870127E+02  0.00000000000E+00 0.  1.
        -13    1    3    3    0    0  0.30466758822E+02  0.66293254762E+01 -0.11746042857E+03  0.12152828325E+03  0.00000000000E+00 0. -1.
         13    1    3    3    0    0 -0.28739561230E+02 -0.15315871366E+02 -0.29432574302E+02  0.43895497781E+02  0.00000000000E+00 0.  1.
          2    1    1    2  501    0  0.93539600879E+01 -0.17918164835E+02  0.50015709540E+02  0.53945605949E+02  0.00000000000E+00 0. -1.
<scales pt_clust_5="13000.00000" pt_clust_6="13000.00000" pt_clust_7="13000.00000" pt_clust_8="13000.00000" pt_clust_9="20.21280"></scales>
<clustering>
<clus scale="   20.213">  1  9  2 -1</clus>
<clus scale="   75.558">  7  8 -1 -1</clus>
<clus scale="   77.248">  2  7  1 -1</clus>
<clus scale="   90.812">  5  6 -1 -1</clus>
<clus scale="   20.213">  1  5  2 -1</clus>
</clustering>
</event>
<event>
 9    1  0.1426358E-005  0.1277746E+03  0.7546771E-02  0.1231029E+00
         21   -1    0    0  501  502  0.00000000000E+00  0.00000000000E+00  0.72864770094E+03  0.72864770094E+03  0.00000000000E+00 0.  1.
          1   -1    0    0  502    0 -0.00000000000E+00 -0.00000000000E+00 -0.43734375397E+02  0.43734375397E+02  0.00000000000E+00 0. -1.
         23    2    1    2    0    0 -0.38909893753E+02  0.85336545468E+02  0.84254540281E+02  0.15502973658E+03  0.90216882236E+02 0.  0.
         23    2    1    2    0    0  0.42172985069E+02 -0.60467237881E+02  0.47768795429E+03  0.49184952906E+03  0.91078702419E+02 0.  0.
        -11    1    3    3    0    0 -0.17028471974E+02  0.10080546461E+03  0.58125009430E+02  0.11760198670E+03  0.00000000000E+00 0. -1.
         11    1    3    3    0    0 -0.21881421779E+02 -0.15468919144E+02  0.26129530851E+02  0.37427749880E+02  0.00000000000E+00 0.  1.
        -13    1    4    4    0    0  0.25016359475E+02 -0.83260590693E+02  0.31987951494E+03  0.33148310407E+03  0.00000000000E+00 0.  1.
         13    1    4    4    0    0  0.17156625594E+02  0.22793352812E+02  0.15780843935E+03  0.16036642499E+03  0.00000000000E+00 0. -1.
          1    1    1    2  501    0 -0.32630913160E+01 -0.24869307587E+02  0.12297083097E+03  0.12550281071E+03  0.00000000000E+00 0. -1.
<scales pt_clust_5="13000.00000" pt_clust_6="13000.00000" pt_clust_7="13000.00000" pt_clust_8="13000.00000" pt_clust_9="25.08247"></scales>
<clustering>
<clus scale="   25.082">  1  9  2 -1</clus>
<clus scale="   90.217">  5  6 -1 -1</clus>
<clus scale="   91.079">  7  8 -1 -1</clus>
<clus scale="  127.162">  2  5  1 -1</clus>
<clus scale="   25.082">  1  5  2 -1</clus>
</clustering>
</event>
<event>
 9    1  0.1426358E-005  0.1298462E+03  0.7546771E-02  0.1242762E+00
         21   -1    0    0  501  502  0.00000000000E+00  0.00000000000E+00  0.87921629785E+03  0.87921629785E+03  0.00000000000E+00 0.  1.
         -1   -1    0    0    0  501 -0.00000000000E+00 -0.00000000000E+00 -0.15863744991E+03  0.15863744991E+03  0.00000000000E+00 0.  1.
         23    2    1    2    0    0  0.46791921586E+02  0.12520209032E+02 -0.10299257052E+03  0.14036224866E+03  0.82145308490E+02 0.  0.
         23    2    1    2    0    0 -0.68904416946E+02 -0.10530426569E+03  0.13858591267E+03  0.20589697426E+03  0.85736233730E+02 0.  0.
        -11    1    4    4    0    0  0.16953507173E+02 -0.42711081905E+02  0.39007030605E+02  0.60276084474E+02  0.00000000000E+00 0.  1.
         11    1    4    4    0    0 -0.85857924119E+02 -0.62593183782E+02  0.99578882065E+02  0.14562088979E+03  0.00000000000E+00 0. -1.
        -11    1    3    3    0    0  0.33972773370E+02  0.44440443423E+02 -0.40611960968E+02  0.69126215835E+02  0.00000000000E+00 0. -1.
         11    1    3    3    0    0  0.12819148217E+02 -0.31920234391E+02 -0.62380609556E+02  0.71236032829E+02  0.00000000000E+00 0.  1.
         -1    1    1    2    0  502  0.22112495359E+02  0.92784056655E+02  0.68498550580E+03  0.69159452483E+03  0.00000000000E+00 0.  1.
<scales pt_clust_5="13000.00000" pt_clust_6="13000.00000" pt_clust_7="13000.00000" pt_clust_8="13000.00000" pt_clust_9="97.51585"></scales>
<clustering>
<clus scale="   82.145">  7  8 -1 -1</clus>
<clus scale="   85.736">  5  6 -1 -1</clus>
<clus scale="   95.363">  2  7  1 -1</clus>
<clus scale="   97.516">  1  9  2 -1</clus>
<clus scale="   97.516">  1  5  2 -1</clus>
</clustering>
</event>
<event>
 9    1  0.1426358E-005  0.9803196E+02  0.7546771E-02  0.1286071E+00
         21   -1    0    0  501  502  0.00000000000E+00  0.00000000000E+00  0.39696063839E+03  0.39696063839E+03  0.00000000000E+00 0. -1.
         -1   -1    0    0    0  501 -0.00000000000E+00 -0.00000000000E+00 -0.73408075071E+02  0.73408075071E+02  0.00000000000E+00 0.  1.
         23    2    1    2    0    0 -0.47166790041E+01 -0.31165781811E+01  0.32311345242E+02  0.99534621018E+02  0.93974239180E+02 0.  0.
         23    2    1    2    0    0 -0.44036102774E+02  0.50813854098E+02  0.56612641228E+02  0.12649327937E+03  0.90963357799E+02 0.  0.
        -11    1    3    3    0    0 -0.66451208239E+01 -0.41871973678E+02  0.41854157256E+02  0.59575081117E+02  0.00000000000E+00 0. -1.
         11    1    3    3    0    0  0.19284418199E+01  0.38755395497E+02 -0.95428120139E+01  0.39959539901E+02  0.00000000000E+00 0.  1.
        -13    1    4    4    0    0 -0.60702302269E+02  0.17575480070E+02  0.62460319253E+02  0.88853578890E+02  0.00000000000E+00 0. -1.
         13    1    4    4    0    0  0.16666199494E+02  0.33238374028E+02 -0.58476780250E+01  0.37639700475E+02  0.00000000000E+00 0.  1.
         -1    1    1    2    0  502  0.48752781779E+02 -0.47697275916E+02  0.23462857685E+03  0.24434081308E+03  0.00000000000E+00 0.  1.
<scales pt_clust_5="13000.00000" pt_clust_6="13000.00000" pt_clust_7="13000.00000" pt_clust_8="13000.00000" pt_clust_9="68.20457"></scales>
<clustering>
<clus scale="   68.205">  1  9  2 -1</clus>
<clus scale="   90.963">  7  8 -1 -1</clus>
<clus scale="   93.974">  5  6 -1 -1</clus>
<clus scale="   95.150">  1  7  2 -1</clus>
<clus scale="   68.205">  1  5  2 -1</clus>
</clustering>
</event>
<event>
 9    1  0.1426358E-005  0.1799240E+03  0.7546771E-02  0.1167900E+00
          1   -1    0    0  502    0 -0.00000000000E+00  0.00000000000E+00  0.12338913020E+03  0.12338913020E+03  0.00000000000E+00 0. -1.
         21   -1    0    0  501  502  0.00000000000E+00 -0.00000000000E+00 -0.39882034670E+03  0.39882034670E+03  0.00000000000E+00 0. -1.
         23    2    1    2    0    0 -0.68394563888E+02  0.16533231245E+03 -0.38860980203E+02  0.20407236810E+03  0.90126387523E+02 0.  0.
         23    2    1    2    0    0  0.38681648598E+02 -0.10880510356E+03 -0.18596793315E+03  0.23665842592E+03  0.89935076016E+02 0.  0.
        -11    1    4    4    0    0 -0.28887309036E+02 -0.43309707463E+02 -0.60320614587E+02  0.79679256573E+02  0.00000000000E+00 0. -1.
         11    1    4    4    0    0  0.67568957634E+02 -0.65495396098E+02 -0.12564731857E+03  0.15697916935E+03  0.00000000000E+00 0.  1.
        -13    1    3    3    0    0 -0.83190889191E+02  0.10047479091E+03 -0.78654363235E+01  0.13068195262E+03  0.00000000000E+00 0. -1.
         13    1    3    3    0    0  0.14796325302E+02  0.64857521541E+02 -0.30995543880E+02  0.73390415473E+02  0.00000000000E+00 0.  1.
          1    1    1    2  501    0  0.29712915290E+02 -0.56527208893E+02 -0.50602303150E+02  0.81478682883E+02  0.00000000000E+00 0. -1.
<scales pt_clust_5="13000.00000" pt_clust_6="13000.00000" pt_clust_7="13000.00000" pt_clust_8="13000.00000" pt_clust_9="63.86065"></scales>
<clustering>
<clus scale="   63.861">  2  9  1 -1</clus>
<clus scale="   89.935">  5  6 -1 -1</clus>
<clus scale="   90.126">  7  8 -1 -1</clus>
<clus scale="  179.828">  2  5  1 -1</clus>
<clus scale="   63.861">  2  5  1 -1</clus>
</clustering>
</event>
<event>
 9    1  0.1426358E-005  0.1888642E+03  0.7546771E-02  0.1180562E+00
         -1   -1    0    0    0  501 -0.00000000000E+00  0.00000000000E+00  0.58422285206E+03  0.58422285206E+03  0.00000000000E+00 0.  1.
         21   -1    0    0  501  502  0.00000000000E+00 -0.00000000000E+00 -0.10591856809E+03  0.10591856809E+03  0.00000000000E+00 0.  1.
         23    2    1    2    0    0 -0.49685101101E+02 -0.53913791918E+02  0.12141292401E+03  0.16835586019E+03  0.90704417276E+02 0.  0.
         23    2    1    2    0    0 -0.10825341795E+03  0.10617584218E+03  0.28939229605E+03  0.34225277374E+03  0.10196542630E+03 0.  0.
        -13    1    4    4    0    0 -0.58255461840E+02 -0.70503389101E+01  0.10195445280E+03  0.11763552422E+03  0.00000000000E+00 0.  1.
         13    1    4    4    0    0 -0.49997956106E+02  0.11322618109E+03  0.18743784325E+03  0.22461724952E+03  0.00000000000E+00 0. -1.
        -13    1    3    3    0    0 -0.73182594776E+02 -0.53725336122E+02  0.81304799700E+02  0.12187113840E+03  0.00000000000E+00 0.  1.
         13    1    3    3    0    0  0.23497493675E+02 -0.18845579585E+00  0.40108124313E+02  0.46484721797E+02  0.00000000000E+00 0. -1.
         -1    1    1    2    0  502  0.15793851905E+03 -0.52262050264E+02  0.67499063911E+02  0.17953278621E+03  0.00000000000E+00 0.  1.
<scales pt_clust_5="13000.00000" pt_clust_6="13000.00000" pt_clust_7="13000.00000" pt_clust_8="13000.00000" pt_clust_9="158.97403"></scales>
<clustering>
<clus scale="   90.704">  7  8 -1 -1</clus>
<clus scale="  101.965">  5  6 -1 -1</clus>
<clus scale="  116.630">  1  7  2 -1</clus>
<clus scale="  158.974">  2  9  1 -1</clus>
<clus scale="  158.974">  2  5  1 -1</clus>
</clustering>
</event>
<event>
 9    1  0.1426358E-005  0.9981985E+02  0.7546771E-02  0.1280969E+00
         21   -1    0    0  501  502  0.00000000000E+00  0.00000000000E+00  0.27465097047E+02  0.27465097047E+02  0.00000000000E+00 0. -1.
         -3   -1    0    0    0  501 -0.00000000000E+00 -0.00000000000E+00 -0.74845102374E+03  0.74845102374E+03  0.00000000000E+00 0.  1.
         23    2    1    2    0    0 -0.85038362270E+01  0.24134010491E+02 -0.33949977517E+03  0.35268436588E+03  0.92040202643E+02 0.  0.
         23    2    1    2    0    0  0.62514213636E+01 -0.49660736474E+02 -0.38334016839E+03  0.39753886696E+03  0.92640148054E+02 0.  0.
        -11    1    4    4    0    0  0.24071285915E+02  0.17898739862E+02 -0.18114851309E+03  0.18361529208E+03  0.00000000000E+00 0.  1.
         11    1    4    4    0    0 -0.17819864551E+02 -0.67559476336E+02 -0.20219165530E+03  0.21392357488E+03  0.00000000000E+00 0. -1.
        -11    1    3    3    0    0  0.34959093720E+02 -0.12119025413E+02 -0.17017561408E+03  0.17415151058E+03  0.00000000000E+00 0. -1.
         11    1    3    3    0    0 -0.43462929947E+02  0.36253035904E+02 -0.16932416109E+03  0.17853285530E+03  0.00000000000E+00 0.  1.
         -3    1    1    2    0  502  0.22524148634E+01  0.25526725983E+02  0.18540168685E+01  0.25692887939E+02  0.00000000000E+00 0.  1.
<scales pt_clust_5="13000.00000" pt_clust_6="13000.00000" pt_clust_7="13000.00000" pt_clust_8="13000.00000" pt_clust_9="25.62591"></scales>
<clustering>
<clus scale="   25.626">  1  9  2 -1</clus>
<clus scale="   92.040">  7  8 -1 -1</clus>
<clus scale="   92.640">  5  6 -1 -1</clus>
<clus scale="   99.263">  2  7  1 -1</clus>
<clus scale="   25.626">  1  5  2 -1</clus>
</clustering>
</event>
<event>
 9    1  0.1426358E-005  0.1038552E+03  0.7546771E-02  0.1273887E+00
         21   -1    0    0  501  502  0.00000000000E+00  0.00000000000E+00  0.89540028527E+02  0.89540028527E+02  0.00000000000E+00 0.  1.
         -2   -1    0    0    0  501 -0.00000000000E+00 -0.00000000000E+00 -0.24498717669E+03  0.24498717669E+03  0.00000000000E+00 0.  1.
         23    2    1    2    0    0  0.24874405626E+02 -0.29740908008E+02 -0.13998300676E+03  0.17046271723E+03  0.89213441356E+02 0.  0.
         23    2    1    2    0    0 -0.38652046737E+02  0.58241451183E+02 -0.41406454576E+02  0.12313640510E+03  0.92531251088E+02 0.  0.
        -13    1    3    3    0    0 -0.28055258620E+02 -0.11461534119E+02 -0.15665363022E+02  0.34115508192E+02  0.00000000000E+00 0. -1.
         13    1    3    3    0    0  0.52929664246E+02 -0.18279373889E+02 -0.12431764374E+03  0.13634720904E+03  0.00000000000E+00 0.  1.
        -13    1    4    4    0    0 -0.60906934850E+02  0.64489000672E+02 -0.45449703848E+02  0.99670263872E+02  0.00000000000E+00 0.  1.
         13    1    4    4    0    0  0.22254888112E+02 -0.62475494890E+01  0.40432492723E+01  0.23466141229E+02  0.00000000000E+00 0. -1.
         -2    1    1    2    0  502  0.13777641111E+02 -0.28500543175E+02  0.25942313175E+02  0.40928082886E+02  0.00000000000E+00 0.  1.
<scales pt_clust_5="13000.00000" pt_clust_6="13000.00000" pt_clust_7="13000.00000" pt_clust_8="13000.00000" pt_clust_9="31.65603"></scales>
<clustering>
<clus scale="   31.656">  1  9  2 -1</clus>
<clus scale="   89.213">  5  6 -1 -1</clus>
<clus scale="   92.531">  7  8 -1 -1</clus>
<clus scale="  100.910">  2  5  1 -1</clus>
<clus scale="   31.656">  1  5  2 -1</clus>
</clustering>
</event>
<event>
 9    1  0.1426358E-005  0.1027462E+03  0.7546771E-02  0.1275458E+00
          2   -1    0    0  502    0 -0.00000000000E+00  0.00000000000E+00  0.52697139459E+03  0.52697139459E+03  0.00000000000E+00 0. -1.
         21   -1    0    0  501  502  0.00000000000E+00 -0.00000000000E+00 -0.13386965519E+03  0.13386965519E+03  0.00000000000E+00 0.  1.
         23    2    1    2    0    0 -0.33175129819E+01 -0.38779009969E+02  0.48854292097E+03  0.49887923635E+03  0.93228157331E+02 0.  0.
         23    2    1    2    0    0  0.26610559270E+02  0.41670759554E+02 -0.82304597090E+02  0.13506389394E+03  0.94992813823E+02 0.  0.
        -11    1    3    3    0    0 -0.44467411152E+02 -0.77309362932E+00  0.24201513843E+03  0.24606762396E+03  0.00000000000E+00 0. -1.
         11    1    3    3    0    0  0.41149898170E+02 -0.38005916339E+02  0.24652778254E+03  0.25281161239E+03  0.00000000000E+00 0.  1.
        -11    1    4    4    0    0  0.34336586921E+02 -0.20373176803E+02 -0.52067002030E+02  0.65612805418E+02  0.00000000000E+00 0.  1.
         11    1    4    4    0    0 -0.77260276518E+01  0.62043936358E+02 -0.30237595060E+02  0.69451088523E+02  0.00000000000E+00 0. -1.
          2    1    1    2  501    0 -0.23293046288E+02 -0.28917495857E+01 -0.13136584490E+02  0.26897919494E+02  0.00000000000E+00 0. -1.
<scales pt_clust_5="13000.00000" pt_clust_6="13000.00000" pt_clust_7="13000.00000" pt_clust_8="13000.00000" pt_clust_9="23.47186"></scales>
<clustering>
<clus scale="   23.472">  2  9  1 -1</clus>
<clus scale="   93.228">  5  6 -1 -1</clus>
<clus scale="   94.993">  7  8 -1 -1</clus>
<clus scale="  101.117">  1  5  2 -1</clus>
<clus scale="   23.472">  2  5  1 -1</clus>
</clustering>
</event>
<event>
 9    1  0.1426358E-005  0.9505227E+02  0.7546771E-02  0.1291163E+00
         -1   -1    0    0    0  501 -0.00000000000E+00  0.00000000000E+00  0.47672967430E+02  0.47672967430E+02  0.00000000000E+00 0.  1.
         21   -1    0    0  501  502  0.00000000000E+00 -0.00000000000E+00 -0.52166175831E+03  0.52166175831E+03  0.00000000000E+00 0.  1.
         23    2    1    2    0    0  0.19315316316E+01  0.29007160534E+02 -0.42684482859E+02  0.10469651420E+03  0.91072766684E+02 0.  0.
         23    2    1    2    0    0 -0.52583721164E+02 -0.44055827352E+01 -0.19283282202E+03  0.21960855707E+03  0.90878843521E+02 0.  0.
        -11    1    3    3    0    0  0.31263759378E+02  0.91981157032E+01 -0.57685377766E+02  0.66254288850E+02  0.00000000000E+00 0.  1.
         11    1    3    3    0    0 -0.29332227747E+02  0.19809044831E+02  0.15000894907E+02  0.38442225348E+02  0.00000000000E+00 0. -1.
        -13    1    4    4    0    0 -0.34328663699E+02  0.39839057235E+02 -0.68340011003E+02  0.86232040081E+02  0.00000000000E+00 0.  1.
         13    1    4    4    0    0 -0.18255057466E+02 -0.44244639970E+02 -0.12449281102E+03  0.13337651699E+03  0.00000000000E+00 0. -1.
         -1    1    1    2    0  502  0.50652189533E+02 -0.24601577799E+02 -0.23847148600E+03  0.24502965447E+03  0.00000000000E+00 0.  1.
<scales pt_clust_5="13000.00000" pt_clust_6="13000.00000" pt_clust_7="13000.00000" pt_clust_8="13000.00000" pt_clust_9="56.31058"></scales>
<clustering>
<clus scale="   56.311">  2  9  1 -1</clus>
<clus scale="   90.879">  7  8 -1 -1</clus>
<clus scale="   91.073">  5  6 -1 -1</clus>
<clus scale="   94.866">  2  7  1 -1</clus>
<clus scale="   56.311">  2  5  1 -1</clus>
</clustering>
</event>
<event>
 9    1  0.1426358E-005  0.1004516E+03  0.7546771E-02  0.1280883E+00
         21   -1    0    0  501  502  0.00000000000E+00  0.00000000000E+00  0.72033631408E+02  0.72033631408E+02  0.00000000000E+00 0. -1.
          2   -1    0    0  502    0 -0.00000000000E+00 -0.00000000000E+00 -0.37277593729E+03  0.37277593729E+03  0.00000000000E+00 0. -1.
         23    2    1    2    0    0  0.30262139493E+02  0.12356720602E+02 -0.22171847035E+03  0.24199741750E+03  0.91297230801E+02 0.  0.
         23    2    1    2    0    0 -0.53039927244E+02  0.47475870472E+02 -0.29412089305E+02  0.12181775674E+03  0.94378507623E+02 0.  0.
        -11    1    3    3    0    0  0.23897840415E+02  0.35364393759E+02 -0.21194918513E+03  0.21620407998E+03  0.00000000000E+00 0. -1.
         11    1    3    3    0    0  0.63642990782E+01 -0.23007673157E+02 -0.97692852229E+01  0.25793337524E+02  0.00000000000E+00 0.  1.
        -13    1    4    4    0    0 -0.22751773113E+02  0.45175053676E+02  0.27303891368E+02  0.57479832448E+02  0.00000000000E+00 0. -1.
         13    1    4    4    0    0 -0.30288154131E+02  0.23008167952E+01 -0.56715980673E+02  0.64337924293E+02  0.00000000000E+00 0.  1.
          2    1    1    2  501    0  0.22777787751E+02 -0.59832591073E+02 -0.49611746220E+02  0.80994394451E+02  0.00000000000E+00 0. -1.
<scales pt_clust_5="13000.00000" pt_clust_6="13000.00000" pt_clust_7="13000.00000" pt_clust_8="13000.00000" pt_clust_9="64.02161"></scales>
<clustering>
<clus scale="   64.022">  1  9  2 -1</clus>
<clus scale="   91.297">  5  6 -1 -1</clus>
<clus scale="   94.379">  7  8 -1 -1</clus>
<clus scale="   97.562">  2  5  1 -1</clus>
<clus scale="   64.022">  1  5  2 -1</clus>
</clustering>
</event>
<event>
 9    1  0.1426358E-005  0.1280136E+03  0.7546771E-02  0.1231334E+00
         -1   -1    0    0    0  501 -0.00000000000E+00  0.00000000000E+00  0.70029081962E+03  0.70029081962E+03  0.00000000000E+00 0.  1.
         21   -1    0    0  501  502  0.00000000000E+00 -0.00000000000E+00 -0.34428750590E+02  0.34428750590E+02  0.00000000000E+00 0.  1.
         23    2    1    2    0    0 -0.16009132894E+02  0.74109570205E+02  0.29803189425E+03  0.32028070695E+03  0.89488549650E+02 0.  0.
         23    2    1    2    0    0  0.17815900753E+01 -0.10401590656E+03  0.35020279554E+03  0.37692171481E+03  0.92765824598E+02 0.  0.
        -11    1    3    3    0    0 -0.23469310307E+02 -0.14971827480E+02  0.75121665957E+02  0.80113849243E+02  0.00000000000E+00 0.  1.
         11    1    3    3    0    0  0.74601774130E+01  0.89081397685E+02  0.22291022830E+03  0.24016685771E+03  0.00000000000E+00 0. -1.
        -11    1    4    4    0    0  0.28095334239E+02 -0.26654907107E+02  0.21867292097E+03  0.22207583894E+03  0.00000000000E+00 0.  1.
         11    1    4    4    0    0 -0.26313744163E+02 -0.77360999454E+02  0.13152987457E+03  0.15484587587E+03  0.00000000000E+00 0. -1.
         -1    1    1    2    0  502  0.14227542819E+02  0.29906336356E+02  0.17627379236E+02  0.37517148448E+02  0.00000000000E+00 0.  1.
<scales pt_clust_5="13000.00000" pt_clust_6="13000.00000" pt_clust_7="13000.00000" pt_clust_8="13000.00000" pt_clust_9="33.11815"></scales>
<clustering>
<clus scale="   33.118">  2  9  1 -1</clus>
<clus scale="   89.489">  5  6 -1 -1</clus>
<clus scale="   92.766">  7  8 -1 -1</clus>
<clus scale="  125.659">  1  5  2 -1</clus>
<clus scale="   33.118">  2  5  1 -1</clus>
</clustering>
</event>
<event>
 9    1  0.1426358E-005  0.9519340E+02  0.7546771E-02  0.1292835E+00
         -4   -1    0    0    0  501 -0.00000000000E+00  0.00000000000E+00  0.27733732992E+03  0.27733732992E+03  0.00000000000E+00 0.  1.
         21   -1    0    0  501  502  0.00000000000E+00 -0.00000000000E+00 -0.94992469092E+02  0.94992469092E+02  0.00000000000E+00 0. -1.
         23    2    1    2    0    0 -0.11720227157E+02  0.13707588054E+02  0.20825837468E+03  0.22938367360E+03  0.94446055464E+02 0.  0.
         23    2    1    2    0    0  0.17488591204E+01  0.28525570436E+02 -0.64210830625E+01  0.95374887102E+02  0.90765478598E+02 0.  0.
        -11    1    3    3    0    0  0.39913949672E+02  0.38324120815E+01  0.60771599216E+02  0.72807953082E+02  0.00000000000E+00 0.  1.
         11    1    3    3    0    0 -0.51634176828E+02  0.98751759729E+01  0.14748677547E+03  0.15657572051E+03  0.00000000000E+00 0. -1.
        -13    1    4    4    0    0 -0.40052634221E+02  0.12052418592E+02  0.16466094771E+02  0.44951157704E+02  0.00000000000E+00 0.  1.
         13    1    4    4    0    0  0.41801493341E+02  0.16473151844E+02 -0.22887177834E+02  0.50423729398E+02  0.00000000000E+00 0. -1.
         -4    1    1    2    0  502  0.99713680362E+01 -0.42233158490E+02 -0.19492430791E+02  0.47571238314E+02  0.00000000000E+00 0.  1.
<scales pt_clust_5="13000.00000" pt_clust_6="13000.00000" pt_clust_7="13000.00000" pt_clust_8="13000.00000" pt_clust_9="43.39433"></scales>
<clustering>
<clus scale="   43.394">  2  9  1 -1</clus>
<clus scale="   90.765">  7  8 -1 -1</clus>
<clus scale="   91.543">  2  7  1 -1</clus>
<clus scale="   94.446">  5  6 -1 -1</clus>
<clus scale="   43.394">  2  5  1 -1</clus>
</clustering>
</event>
<event>
 9    1  0.1426358E-005  0.1041758E+03  0.7546771E-02  0.1271846E+00
          2   -1    0    0  502    0 -0.00000000000E+00  0.00000000000E+00  0.38056083122E+03  0.38056083122E+03  0.00000000000E+00 0. -1.
         21   -1    0    0  501  502  0.00000000000E+00 -0.00000000000E+00 -0.48219271720E+02  0.48219271720E+02  0.00000000000E+00 0.  1.
         23    2    1    2    0    0  0.56187426441E+02  0.36634707782E+02  0.21562713702E+03  0.24314180591E+03  0.90131830433E+02 0.  0.
         23    2    1    2    0    0 -0.35272837975E+02  0.56896963813E+01  0.84786148139E+02  0.12864540361E+03  0.89913309410E+02 0.  0.
        -11    1    3    3    0    0  0.63598309664E+02 -0.75201578202E+01  0.95903259092E+02  0.11532013211E+03  0.00000000000E+00 0.  1.
         11    1    3    3    0    0 -0.74108832229E+01  0.44154865602E+02  0.11972387792E+03  0.12782167379E+03  0.00000000000E+00 0. -1.
        -13    1    4    4    0    0 -0.53610896911E+01  0.38245252721E+02  0.71090173714E+01  0.39268037465E+02  0.00000000000E+00 0.  1.
         13    1    4    4    0    0 -0.29911748284E+02 -0.32555556340E+02  0.77677130768E+02  0.89377366141E+02  0.00000000000E+00 0. -1.
          2    1    1    2  501    0 -0.20914588466E+02 -0.42324404163E+02  0.31928274341E+02  0.56992893424E+02  0.00000000000E+00 0. -1.
<scales pt_clust_5="13000.00000" pt_clust_6="13000.00000" pt_clust_7="13000.00000" pt_clust_8="13000.00000" pt_clust_9="47.20991"></scales>
<clustering>
<clus scale="   47.210">  2  9  1 -1</clus>
<clus scale="   89.913">  7  8 -1 -1</clus>
<clus scale="   90.132">  5  6 -1 -1</clus>
<clus scale="  103.987">  2  7  1 -1</clus>
<clus scale="   47.210">  2  5  1 -1</clus>
</clustering>
</event>
<event>
 9    1  0.1426358E-005  0.1282309E+03  0.7546771E-02  0.1231101E+00
         -3   -1    0    0    0  501 -0.00000000000E+00  0.00000000000E+00  0.33118292232E+03  0.33118292232E+03  0.00000000000E+00 0.  1.
         21   -1    0    0  501  502  0.00000000000E+00 -0.00000000000E+00 -0.12252587663E+03  0.12252587663E+03  0.00000000000E+00 0. -1.
         23    2    1    2    0    0 -0.51469641978E+02  0.56931563459E+02  0.16631875662E+03  0.20311546047E+03  0.87770351002E+02 0.  0.
         23    2    1    2    0    0  0.58046262128E+02 -0.13229411688E+03  0.35506781595E+02  0.17463653572E+03  0.91466311618E+02 0.  0.
        -11    1    3    3    0    0 -0.29750140795E+02  0.40085580288E+02  0.16830986443E+03  0.17555664353E+03  0.00000000000E+00 0.  1.
         11    1    3    3    0    0 -0.21719501183E+02  0.16845983171E+02 -0.19911078104E+01  0.27558816936E+02  0.00000000000E+00 0. -1.
        -13    1    4    4    0    0  0.32095060005E+02 -0.85669462421E+02  0.66342373762E+02  0.11300734589E+03  0.00000000000E+00 0.  1.
         13    1    4    4    0    0  0.25951202124E+02 -0.46624654461E+02 -0.30835592167E+02  0.61629189834E+02  0.00000000000E+00 0. -1.
         -3    1    1    2    0  502 -0.65766201506E+01  0.75362553423E+02  0.68315074737E+01  0.75956802759E+02  0.00000000000E+00 0.  1.
<scales pt_clust_5="13000.00000" pt_clust_6="13000.00000" pt_clust_7="13000.00000" pt_clust_8="13000.00000" pt_clust_9="75.64897"></scales>
<clustering>
<clus scale="   75.649">  2  9  1 -1</clus>
<clus scale="   87.770">  5  6 -1 -1</clus>
<clus scale="   91.466">  7  8 -1 -1</clus>
<clus scale="  125.621">  1  5  2 -1</clus>
<clus scale="   75.649">  2  5  1 -1</clus>
</clustering>
</event>
<event>
 9    1  0.1426358E-005  0.1308296E+03  0.7546771E-02  0.1229099E+00
          2   -1    0    0  502    0 -0.00000000000E+00  0.00000000000E+00  0.14514670831E+03  0.14514670831E+03  0.00000000000E+00 0. -1.
         21   -1    0    0  501  502  0.00000000000E+00 -0.00000000000E+00 -0.18454872313E+03  0.18454872313E+03  0.00000000000E+00 0. -1.
         23    2    1    2    0    0 -0.18608236645E+02 -0.61978248756E+02 -0.84101378667E+01  0.11559010114E+03  0.95408444451E+02 0.  0.
         23    2    1    2    0    0  0.18799347132E+02  0.11402788849E+03  0.15713585920E+02  0.14417249266E+03  0.84752675771E+02 0.  0.
        -11    1    3    3    0    0  0.17421330964E+02 -0.68107546745E+02  0.15404871562E+02  0.71968401150E+02  0.00000000000E+00 0.  1.
         11    1    3    3    0    0 -0.36029567609E+02  0.61292979885E+01 -0.23815009429E+02  0.43621699990E+02  0.00000000000E+00 0. -1.
        -11    1    4    4    0    0  0.40621219646E+02  0.11426659179E+03  0.16164138256E+02  0.12234466416E+03  0.00000000000E+00 0. -1.
         11    1    4    4    0    0 -0.21821872514E+02 -0.23870329658E+00 -0.45055233602E+00  0.21827828492E+02  0.00000000000E+00 0.  1.
          2    1    1    2  501    0 -0.19111048704E+00 -0.52049639733E+02 -0.46705462866E+02  0.69932837645E+02  0.00000000000E+00 0. -1.
<scales pt_clust_5="13000.00000" pt_clust_6="13000.00000" pt_clust_7="13000.00000" pt_clust_8="13000.00000" pt_clust_9="52.04999"></scales>
<clustering>
<clus scale="   52.050">  2  9  1 -1</clus>
<clus scale="   84.753">  7  8 -1 -1</clus>
<clus scale="   95.408">  5  6 -1 -1</clus>
<clus scale="  123.275">  2  7  1 -1</clus>
<clus scale="   52.050">  2  5  1 -1</clus>
</clustering>
</event>
<event>
 9    1  0.1426358E-005  0.1511094E+03  0.7546771E-02  0.1200274E+00
         21   -1    0    0  501  502  0.00000000000E+00  0.00000000000E+00  0.46236559034E+03  0.46236559034E+03  0.00000000000E+00 0. -1.
          1   -1    0    0  502    0 -0.00000000000E+00 -0.00000000000E+00 -0.10818722143E+03  0.10818722143E+03  0.00000000000E+00 0. -1.
         23    2    1    2    0    0  0.10347862945E+03 -0.93215344499E+02  0.20743307898E+02  0.16482105832E+03  0.85666616844E+02 0.  0.
         23    2    1    2    0    0 -0.10328036599E+02  0.98812953550E+02  0.16769389717E+03  0.21552528782E+03  0.91974118175E+02 0.  0.
        -11    1    4    4    0    0 -0.38524804697E+02  0.99718548978E+02  0.12689424069E+03  0.16592196331E+03  0.00000000000E+00 0.  1.
         11    1    4    4    0    0  0.28196768098E+02 -0.90559542843E+00  0.40799656476E+02  0.49603324513E+02  0.00000000000E+00 0. -1.
        -11    1    3    3    0    0  0.58449532188E+02 -0.15671671038E+02 -0.23392496600E+02  0.64878023885E+02  0.00000000000E+00 0.  1.
         11    1    3    3    0    0  0.45029097260E+02 -0.77543673460E+02  0.44135804498E+02  0.99943034437E+02  0.00000000000E+00 0. -1.
          1    1    1    2  501    0 -0.93150592848E+02 -0.55976090511E+01  0.16574116385E+03  0.19020646563E+03  0.00000000000E+00 0. -1.
<scales pt_clust_5="13000.00000" pt_clust_6="13000.00000" pt_clust_7="13000.00000" pt_clust_8="13000.00000" pt_clust_9="93.31863"></scales>
<clustering>
<clus scale="   85.667">  7  8 -1 -1</clus>
<clus scale="   91.974">  5  6 -1 -1</clus>
<clus scale="   93.319">  1  9  2 -1</clus>
<clus scale="  147.355">  2  7  1 -1</clus>
<clus scale="   93.319">  1  5  2 -1</clus>
</clustering>
</event>
<event>
 9    1  0.1426358E-005  0.1237151E+03  0.7546771E-02  0.1238486E+00
          1   -1    0    0  502    0 -0.00000000000E+00  0.00000000000E+00  0.57546352167E+03  0.57546352167E+03  0.00000000000E+00 0. -1.
         21   -1    0    0  501  502  0.00000000000E+00 -0.00000000000E+00 -0.81312478490E+02  0.81312478490E+02  0.00000000000E+00 0. -1.
         23    2    1    2    0    0  0.14773801894E+02  0.82193813403E+02  0.36875274955E+03  0.38869530016E+03  0.90174042167E+02 0.  0.
         23    2    1    2    0    0  0.83732754053E+01 -0.73776101454E+02  0.17517247103E+03  0.21254590193E+03  0.94748830760E+02 0.  0.
        -11    1    4    4    0    0 -0.13872355843E+02  0.18390786351E+02  0.53843222232E+02  0.58564117508E+02  0.00000000000E+00 0.  1.
         11    1    4    4    0    0  0.22245631248E+02 -0.92166887805E+02  0.12132924880E+03  0.15398178442E+03  0.00000000000E+00 0. -1.
        -13    1    3    3    0    0  0.33987449463E+02  0.79849858051E+00  0.16464001583E+03  0.16811341153E+03  0.00000000000E+00 0. -1.
         13    1    3    3    0    0 -0.19213647569E+02  0.81395314823E+02  0.20411273371E+03  0.22058188863E+03  0.00000000000E+00 0.  1.
          1    1    1    2  501    0 -0.23147077299E+02 -0.84177119493E+01 -0.49774177400E+02  0.55534798080E+02  0.00000000000E+00 0. -1.
<scales pt_clust_5="13000.00000" pt_clust_6="13000.00000" pt_clust_7="13000.00000" pt_clust_8="13000.00000" pt_clust_9="24.63017"></scales>
<clustering>
<clus scale="   24.630">  2  9  1 -1</clus>
<clus scale="   90.174">  7  8 -1 -1</clus>
<clus scale="   94.749">  5  6 -1 -1</clus>
<clus scale="  120.247">  1  7  2 -1</clus>
<clus scale="   24.630">  2  5  1 -1</clus>
</clustering>
</event>
<event>
 9    1  0.1426358E-005  0.1040430E+03  0.7546771E-02  0.1273239E+00
          1   -1    0    0  502    0 -0.00000000000E+00  0.00000000000E+00  0.17869196454E+03  0.17869196454E+03  0.00000000000E+00 0. -1.
         21   -1    0    0  501  502  0.00000000000E+00 -0.00000000000E+00 -0.15997150769E+03  0.15997150769E+03  0.00000000000E+00 0. -1.
         23    2    1    2    0    0  0.14396029581E+02 -0.48362567273E+02  0.11336316759E+03  0.15573224536E+03  0.94101758207E+02 0.  0.
         23    2    1    2    0    0  0.34270678206E+02  0.23676309206E+02 -0.73195911914E+02  0.12429825864E+03  0.91418644583E+02 0.  0.
        -11    1    3    3    0    0  0.33989916087E+02 -0.38062209188E+02  0.12178806161E+03  0.13204687848E+03  0.00000000000E+00 0. -1.
         11    1    3    3    0    0 -0.19593886506E+02 -0.10300358085E+02 -0.84248940230E+01  0.23685366883E+02  0.00000000000E+00 0.  1.
        -13    1    4    4    0    0  0.22772750888E+02  0.45949433737E+02 -0.48629921296E+01  0.51513079273E+02  0.00000000000E+00 0.  1.
         13    1    4    4    0    0  0.11497927318E+02 -0.22273124531E+02 -0.68332919784E+02  0.72785179365E+02  0.00000000000E+00 0. -1.
          1    1    1    2  501    0 -0.48666707787E+02  0.24686258067E+02 -0.21446798819E+02  0.58632968233E+02  0.00000000000E+00 0. -1.
<scales pt_clust_5="13000.00000" pt_clust_6="13000.00000" pt_clust_7="13000.00000" pt_clust_8="13000.00000" pt_clust_9="54.56977"></scales>
<clustering>
<clus scale="   54.570">  2  9  1 -1</clus>
<clus scale="   91.419">  7  8 -1 -1</clus>
<clus scale="   94.102">  5  6 -1 -1</clus>
<clus scale="  101.623">  2  7  1 -1</clus>
<clus scale="   54.570">  2  5  1 -1</clus>
</clustering>
</event>
<event>
 9    1  0.1426358E-005  0.1223056E+03  0.7546771E-02  0.1239543E+00
         -4   -1    0    0    0  501 -0.00000000000E+00  0.00000000000E+00  0.21382467132E+03  0.21382467132E+03  0.00000000000E+00 0.  1.
         21   -1    0    0  501  502  0.00000000000E+00 -0.00000000000E+00 -0.10395559564E+03  0.10395559564E+03  0.00000000000E+00 0. -1.
         23    2    1    2    0    0  0.56035364259E+02 -0.43145975751E+02  0.75416650077E+02  0.13878764882E+03  0.92589432895E+02 0.  0.
         23    2    1    2    0    0 -0.71697161018E+02  0.57295003059E+02  0.62286072063E+02  0.14406127510E+03  0.91928754682E+02 0.  0.
        -11    1    3    3    0    0  0.58821983657E+02 -0.63195343089E+02  0.80364416889E+02  0.11794963608E+03  0.00000000000E+00 0.  1.
         11    1    3    3    0    0 -0.27866193982E+01  0.20049367338E+02 -0.49477668119E+01  0.20838012736E+02  0.00000000000E+00 0. -1.
        -11    1    4    4    0    0  0.21282166800E+02  0.21312821905E+02  0.12308508997E+02  0.32537154070E+02  0.00000000000E+00 0.  1.
         11    1    4    4    0    0 -0.92979327818E+02  0.35982181154E+02  0.49977563065E+02  0.11152412103E+03  0.00000000000E+00 0. -1.
         -4    1    1    2    0  502  0.15661796759E+02 -0.14149027309E+02 -0.27833646458E+02  0.34931343041E+02  0.00000000000E+00 0.  1.
<scales pt_clust_5="13000.00000" pt_clust_6="13000.00000" pt_clust_7="13000.00000" pt_clust_8="13000.00000" pt_clust_9="21.10656"></scales>
<clustering>
<clus scale="   21.107">  2  9  1 -1</clus>
<clus scale="   91.929">  7  8 -1 -1</clus>
<clus scale="   92.589">  5  6 -1 -1</clus>
<clus scale="  121.806">  2  7  1 -1</clus>
<clus scale="   21.107">  2  5  1 -1</clus>
</clustering>
</event>
<event>
 9    1  0.1426358E-005  0.2043413E+03  0.7546771E-02  0.1147271E+00
          1   -1    0    0  502    0 -0.00000000000E+00  0.00000000000E+00  0.75941720017E+03  0.75941720017E+03  0.00000000000E+00 0. -1.
         21   -1    0    0  501  502  0.00000000000E+00 -0.00000000000E+00 -0.65437775928E+02  0.65437775928E+02  0.00000000000E+00 0.  1.
         23    2    1    2    0    0 -0.70871025279E+01 -0.18967801626E+03  0.43282079368E+03  0.47904283940E+03  0.78231871168E+02 0.  0.
         23    2    1    2    0    0 -0.16622838202E+02  0.17140956604E+03  0.20983683664E+03  0.28639981395E+03  0.91300587827E+02 0.  0.
        -11    1    3    3    0    0  0.27410746625E+02 -0.15013412975E+03  0.33126140551E+03  0.36472691802E+03  0.00000000000E+00 0. -1.
         11    1    3    3    0    0 -0.34497849153E+02 -0.39543886510E+02  0.10155938817E+03  0.11431592138E+03  0.00000000000E+00 0.  1.
        -13    1    4    4    0    0  0.92966450562E+01  0.16847758917E+03  0.17853414099E+03  0.24565334348E+03  0.00000000000E+00 0.  1.
         13    1    4    4    0    0 -0.25919483258E+02  0.29319768673E+01  0.31302695647E+02  0.40746470467E+02  0.00000000000E+00 0. -1.
          1    1    1    2  501    0  0.23709940730E+02  0.18268450226E+02  0.51321793929E+02  0.59412322755E+02  0.00000000000E+00 0. -1.
<scales pt_clust_5="13000.00000" pt_clust_6="13000.00000" pt_clust_7="13000.00000" pt_clust_8="13000.00000" pt_clust_9="29.93156"></scales>
<clustering>
<clus scale="   29.932">  2  9  1 -1</clus>
<clus scale="   78.232">  5  6 -1 -1</clus>
<clus scale="   91.301">  7  8 -1 -1</clus>
<clus scale="  198.846">  1  5  2 -1</clus>
<clus scale="   29.932">  2  5  1 -1</clus>
</clustering>
</event>
<event>
 9    1  0.1426358E-005  0.1028656E+03  0.7546771E-02  0.1277115E+00
         21   -1    0    0  501  502  0.00000000000E+00  0.00000000000E+00  0.16416035187E+03  0.16416035187E+03  0.00000000000E+00 0.  1.
          2   -1    0    0  502    0 -0.00000000000E+00 -0.00000000000E+00 -0.10966617749E+03  0.10966617749E+03  0.00000000000E+00 0. -1.
         23    2    1    2    0    0 -0.50253509448E+02 -0.35622954932E+00 -0.36643283269E+02  0.10590378212E+03  0.85716618850E+02 0.  0.
         23    2    1    2    0    0  0.33295928205E+02  0.21427011818E+02  0.98128844764E+02  0.13998680407E+03  0.91647692101E+02 0.  0.
        -11    1    3    3    0    0 -0.26008805466E+02  0.42667637513E+02 -0.17769261593E+02  0.53035195015E+02  0.00000000000E+00 0.  1.
         11    1    3    3    0    0 -0.24244703982E+02 -0.43023867062E+02 -0.18874021676E+02  0.52868587104E+02  0.00000000000E+00 0. -1.
        -11    1    4    4    0    0  0.30701212408E+02  0.50827227731E+02  0.31734533046E+02  0.67327944494E+02  0.00000000000E+00 0.  1.
         11    1    4    4    0    0  0.25947157967E+01 -0.29400215913E+02  0.66394311718E+02  0.72658859572E+02  0.00000000000E+00 0. -1.
          2    1    1    2  501    0  0.16957581243E+02 -0.21070782268E+02 -0.69913871197E+01  0.27935943171E+02  0.00000000000E+00 0. -1.
<scales pt_clust_5="13000.00000" pt_clust_6="13000.00000" pt_clust_7="13000.00000" pt_clust_8="13000.00000" pt_clust_9="27.04696"></scales>
<clustering>
<clus scale="   27.047">  1  9  2 -1</clus>
<clus scale="   85.717">  5  6 -1 -1</clus>
<clus scale="   91.648">  7  8 -1 -1</clus>
<clus scale="   97.618">  2  5  1 -1</clus>
<clus scale="   27.047">  1  5  2 -1</clus>
</clustering>
</event>
<event>
 9    1  0.1426358E-005  0.1164214E+03  0.7546771E-02  0.1249167E+00
         21   -1    0    0  501  502  0.00000000000E+00  0.00000000000E+00  0.56840405226E+02  0.56840405226E+02  0.00000000000E+00 0.  1.
          1   -1    0    0  502    0 -0.00000000000E+00 -0.00000000000E+00 -0.48507634949E+03  0.48507634949E+03  0.00000000000E+00 0. -1.
         23    2    1    2    0    0  0.58880248734E+02 -0.46571195343E+02 -0.36337858501E+03  0.38216581739E+03  0.91492928744E+02 0.  0.
         23    2    1    2    0    0 -0.59724169079E+02  0.22518488713E+02 -0.74046404767E+02  0.13398888277E+03  0.91630191212E+02 0.  0.
        -13    1    3    3    0    0  0.78863721564E+02 -0.37485639444E+02 -0.33552763853E+03  0.34670370053E+03  0.00000000000E+00 0. -1.
         13    1    3    3    0    0 -0.19983472830E+02 -0.90855558992E+01 -0.27850946483E+02  0.35462116862E+02  0.00000000000E+00 0.  1.
        -13    1    4    4    0    0 -0.79371937026E+02  0.36470546893E+02 -0.54470080993E+02  0.10294170633E+03  0.00000000000E+00 0.  1.
         13    1    4    4    0    0  0.19647767947E+02 -0.13952058180E+02 -0.19576323773E+02  0.31047176446E+02  0.00000000000E+00 0. -1.
          1    1    1    2  501    0  0.84392034549E+00  0.24052706630E+02  0.91890455079E+01  0.25762054560E+02  0.00000000000E+00 0. -1.
<scales pt_clust_5="13000.00000" pt_clust_6="13000.00000" pt_clust_7="13000.00000" pt_clust_8="13000.00000" pt_clust_9="24.06751"></scales>
<clustering>
<clus scale="   24.068">  1  9  2 -1</clus>
<clus scale="   91.493">  5  6 -1 -1</clus>
<clus scale="   91.630">  7  8 -1 -1</clus>
<clus scale="  116.313">  2  5  1 -1</clus>
<clus scale="   24.068">  1  5  2 -1</clus>
</clustering>
</event>
<event>
 9    1  0.1426358E-005  0.1044959E+03  0.7546771E-02  0.1271607E+00
         21   -1    0    0  501  502  0.00000000000E+00  0.00000000000E+00  0.32179172219E+03  0.32179172219E+03  0.00000000000E+00 0. -1.
         -3   -1    0    0    0  501 -0.00000000000E+00 -0.00000000000E+00 -0.48524826790E+02  0.48524826790E+02  0.00000000000E+00 0.  1.
         23    2    1    2    0    0 -0.38282670660E+02 -0.10247814093E+02  0.70452369031E+02  0.12324997402E+03  0.93039987256E+02 0.  0.
         23    2    1    2    0    0  0.52441285938E+02  0.35338709802E+02  0.15060409478E+03  0.18743479986E+03  0.91930941218E+02 0.  0.
        -11    1    4    4    0    0  0.25851019990E+01  0.25212304591E+02  0.13016316569E+03  0.13260766478E+03  0.00000000000E+00 0. -1.
         11    1    4    4    0    0  0.49856183939E+02  0.10126405211E+02  0.20440929088E+02  0.54827135083E+02  0.00000000000E+00 0.  1.
        -13    1    3    3    0    0  0.15251197907E+02 -0.16916521468E+02 -0.11203330024E+02  0.25382717345E+02  0.00000000000E+00 0.  1.
         13    1    3    3    0    0 -0.53533868567E+02  0.66687073756E+01  0.81655699055E+02  0.97867256680E+02  0.00000000000E+00 0. -1.
         -3    1    1    2    0  502 -0.14158615278E+02 -0.25090895710E+02  0.52210431597E+02  0.59631775101E+02  0.00000000000E+00 0.  1.
<scales pt_clust_5="13000.00000" pt_clust_6="13000.00000" pt_clust_7="13000.00000" pt_clust_8="13000.00000" pt_clust_9="28.81006"></scales>
<clustering>
<clus scale="   28.810">  1  9  2 -1</clus>
<clus scale="   91.931">  5  6 -1 -1</clus>
<clus scale="   93.040">  7  8 -1 -1</clus>
<clus scale="  103.510">  1  5  2 -1</clus>
<clus scale="   28.810">  1  5  2 -1</clus>
</clustering>
</event>
<event>
 9    1  0.1426358E-005  0.1383414E+03  0.7546771E-02  0.1215602E+00
         -3   -1    0    0    0  501 -0.00000000000E+00  0.00000000000E+00  0.77019617331E+03  0.77019617331E+03  0.00000000000E+00 0.  1.
         21   -1    0    0  501  502  0.00000000000E+00 -0.00000000000E+00 -0.39741442313E+02  0.39741442313E+02  0.00000000000E+00 0. -1.
         23    2    1    2    0    0 -0.56407922230E+02 -0.85843194268E+02  0.52136773526E+03  0.53925078074E+03  0.91739748540E+02 0.  0.
         23    2    1    2    0    0  0.39759106285E+02  0.99068477910E+02  0.20550619161E+03  0.24912498528E+03  0.91842874824E+02 0.  0.
        -13    1    3    3    0    0 -0.64159620996E+02 -0.32234798801E+02  0.39930880982E+03  0.40571303260E+03  0.00000000000E+00 0.  1.
         13    1    3    3    0    0  0.77516987665E+01 -0.53608395467E+02  0.12205892544E+03  0.13353774814E+03  0.00000000000E+00 0. -1.
        -13    1    4    4    0    0  0.14569460890E+02  0.58886735062E+02  0.18965668453E+03  0.19912200969E+03  0.00000000000E+00 0.  1.
         13    1    4    4    0    0  0.25189645395E+02  0.40181742847E+02  0.15849507076E+02  0.50002975591E+02  0.00000000000E+00 0. -1.
         -3    1    1    2    0  502  0.16648815945E+02 -0.13225283642E+02  0.35808041219E+01  0.21561849594E+02  0.00000000000E+00 0.  1.
<scales pt_clust_5="13000.00000" pt_clust_6="13000.00000" pt_clust_7="13000.00000" pt_clust_8="13000.00000" pt_clust_9="21.26244"></scales>
<clustering>
<clus scale="   21.262">  2  9  1 -1</clus>
<clus scale="   91.740">  5  6 -1 -1</clus>
<clus scale="   91.843">  7  8 -1 -1</clus>
<clus scale="  138.273">  1  5  2 -1</clus>
<clus scale="   21.262">  2  5  1 -1</clus>
</clustering>
</event>
<event>
 9    1  0.1426358E-005  0.2561387E+03  0.7546771E-02  0.1109535E+00
         -1   -1    0    0    0  501 -0.00000000000E+00  0.00000000000E+00  0.42294439637E+03  0.42294439637E+03  0.00000000000E+00 0.  1.
         21   -1    0    0  501  502  0.00000000000E+00 -0.00000000000E+00 -0.42371656027E+03  0.42371656027E+03  0.00000000000E+00 0.  1.
         23    2    1    2    0    0  0.17585630387E+03 -0.79394923138E+02  0.10711020240E+03  0.23894567846E+03  0.91615764819E+02 0.  0.
         23    2    1    2    0    0 -0.30727376372E+03  0.11423392342E+03  0.10424715525E+03  0.35575647478E+03  0.90711878170E+02 0.  0.
        -11    1    3    3    0    0  0.16667225078E+03 -0.39994528611E+02  0.74119165563E+02  0.18674274337E+03  0.00000000000E+00 0.  1.
         11    1    3    3    0    0  0.91840530955E+01 -0.39400394526E+02  0.32991036833E+02  0.52202935084E+02  0.00000000000E+00 0. -1.
        -11    1    4    4    0    0 -0.21011923673E+03  0.33248121910E+02  0.52627595870E+02  0.21914651515E+03  0.00000000000E+00 0.  1.
         11    1    4    4    0    0 -0.97154526991E+02  0.80985801506E+02  0.51619559384E+02  0.13660995963E+03  0.00000000000E+00 0. -1.
         -1    1    1    2    0  502  0.13141745985E+03 -0.34839000278E+02 -0.21212952155E+03  0.25195880339E+03  0.00000000000E+00 0.  1.
<scales pt_clust_5="13000.00000" pt_clust_6="13000.00000" pt_clust_7="13000.00000" pt_clust_8="13000.00000" pt_clust_9="135.95700"></scales>
<clustering>
<clus scale="   90.712">  7  8 -1 -1</clus>
<clus scale="   91.616">  5  6 -1 -1</clus>
<clus scale="  135.957">  2  9  1 -1</clus>
<clus scale="  255.817">  2  7  1 -1</clus>
<clus scale="  135.957">  2  5  1 -1</clus>
</clustering>
</event>
<event>
 9    1  0.1426358E-005  0.1211313E+03  0.7546771E-02  0.1241497E+00
         21   -1    0    0  501  502  0.00000000000E+00  0.00000000000E+00  0.20469138981E+03  0.20469138981E+03  0.00000000000E+00 0.  1.
          2   -1    0    0  502    0 -0.00000000000E+00 -0.00000000000E+00 -0.16135364900E+03  0.16135364900E+03  0.00000000000E+00 0. -1.
         23    2    1    2    0    0 -0.12073762325E+02 -0.80619331432E+02 -0.95987042561E+02  0.15633447299E+03  0.92637480366E+02 0.  0.
         23    2    1    2    0    0 -0.22505280643E+02  0.64179107091E+02  0.12358356355E+03  0.16831277372E+03  0.91819644812E+02 0.  0.
        -11    1    4    4    0    0  0.19510566336E+02  0.29887535072E+02  0.10513377145E+03  0.11102718969E+03  0.00000000000E+00 0.  1.
         11    1    4    4    0    0 -0.42015846980E+02  0.34291572019E+02  0.18449792101E+02  0.57285584029E+02  0.00000000000E+00 0. -1.
        -13    1    3    3    0    0 -0.51954720737E+02 -0.56645833219E+02 -0.59377534120E+02  0.97127416244E+02  0.00000000000E+00 0.  1.
         13    1    3    3    0    0  0.39880958412E+02 -0.23973498213E+02 -0.36609508441E+02  0.59207056748E+02  0.00000000000E+00 0. -1.
          2    1    1    2  501    0  0.34579042968E+02  0.16440224341E+02  0.15741219819E+02  0.41397792095E+02  0.00000000000E+00 0. -1.
<scales pt_clust_5="13000.00000" pt_clust_6="13000.00000" pt_clust_7="13000.00000" pt_clust_8="13000.00000" pt_clust_9="38.28826"></scales>
<clustering>
<clus scale="   38.288">  1  9  2 -1</clus>
<clus scale="   91.820">  5  6 -1 -1</clus>
<clus scale="   92.637">  7  8 -1 -1</clus>
<clus scale="  120.507">  1  5  2 -1</clus>
<clus scale="   38.288">  1  5  2 -1</clus>
</clustering>
</event>
<event>
 9    1  0.1426358E-005  0.9262649E+02  0.7546771E-02  0.1297163E+00
         21   -1    0    0  501  502  0.00000000000E+00  0.00000000000E+00  0.40858962852E+03  0.40858962852E+03  0.00000000000E+00 0. -1.
         -4   -1    0    0    0  501 -0.00000000000E+00 -0.00000000000E+00 -0.54643661223E+02  0.54643661223E+02  0.00000000000E+00 0.  1.
         23    2    1    2    0    0  0.26808812766E+01 -0.33099508392E+01  0.32500881670E+02  0.97544140014E+02  0.91871698813E+02 0.  0.
         23    2    1    2    0    0 -0.25178295591E+02 -0.15876681628E+02  0.86774514864E+02  0.12916317378E+03  0.90924658058E+02 0.  0.
        -11    1    3    3    0    0  0.39384135163E+02  0.14052352146E+02  0.38083945327E+02  0.56559398821E+02  0.00000000000E+00 0. -1.
         11    1    3    3    0    0 -0.36703253887E+02 -0.17362302985E+02 -0.55830636567E+01  0.40984741192E+02  0.00000000000E+00 0.  1.
        -11    1    4    4    0    0 -0.29308557747E+02 -0.51229309602E+02  0.63185527012E+02  0.86462966310E+02  0.00000000000E+00 0.  1.
         11    1    4    4    0    0  0.41302621559E+01  0.35352627974E+02  0.23588987853E+02  0.42700207471E+02  0.00000000000E+00 0. -1.
         -4    1    1    2    0  502  0.22497414314E+02  0.19186632467E+02  0.23467057076E+03  0.23652597595E+03  0.00000000000E+00 0.  1.
<scales pt_clust_5="13000.00000" pt_clust_6="13000.00000" pt_clust_7="13000.00000" pt_clust_8="13000.00000" pt_clust_9="29.56790"></scales>
<clustering>
<clus scale="   29.568">  1  9  2 -1</clus>
<clus scale="   90.925">  7  8 -1 -1</clus>
<clus scale="   91.687">  1  7  2 -1</clus>
<clus scale="   91.872">  5  6 -1 -1</clus>
<clus scale="   29.568">  1  5  2 -1</clus>
</clustering>
</event>
<event>
 9    1  0.1426358E-005  0.1245533E+03  0.7546771E-02  0.1238780E+00
          4   -1    0    0  502    0 -0.00000000000E+00  0.00000000000E+00  0.54852489777E+03  0.54852489777E+03  0.00000000000E+00 0. -1.
         21   -1    0    0  501  502  0.00000000000E+00 -0.00000000000E+00 -0.43240383350E+02  0.43240383350E+02  0.00000000000E+00 0.  1.
         23    2    1    2    0    0 -0.51890876632E+02  0.88806932354E+02  0.29387384388E+03  0.32484595465E+03  0.92648388109E+02 0.  0.
         23    2    1    2    0    0  0.19726388512E+02 -0.50782537916E+02  0.82430293232E+02  0.12865744960E+03  0.82401392787E+02 0.  0.
        -13    1    4    4    0    0 -0.21662017345E+02 -0.26640561002E+02  0.71785160083E+02  0.79574315543E+02  0.00000000000E+00 0. -1.
         13    1    4    4    0    0  0.41388405857E+02 -0.24141976914E+02  0.10645133149E+02  0.49083134053E+02  0.00000000000E+00 0.  1.
        -13    1    3    3    0    0  0.11563445146E+02  0.53332357825E+02  0.65902069562E+02  0.85563639634E+02  0.00000000000E+00 0.  1.
         13    1    3    3    0    0 -0.63454321778E+02  0.35474574529E+02  0.22797177432E+03  0.23928231501E+03  0.00000000000E+00 0. -1.
          4    1    1    2  501    0  0.32164488120E+02 -0.38024394438E+02  0.12898037730E+03  0.13826187688E+03  0.00000000000E+00 0. -1.
<scales pt_clust_5="13000.00000" pt_clust_6="13000.00000" pt_clust_7="13000.00000" pt_clust_8="13000.00000" pt_clust_9="49.80373"></scales>
<clustering>
<clus scale="   49.804">  2  9  1 -1</clus>
<clus scale="   82.401">  5  6 -1 -1</clus>
<clus scale="   92.648">  7  8 -1 -1</clus>
<clus scale="  117.132">  2  5  1 -1</clus>
<clus scale="   49.804">  2  5  1 -1</clus>
</clustering>
</event>
<event>
 9    1  0.1426358E-005  0.9267276E+02  0.7546771E-02  0.1297929E+00
         -4   -1    0    0    0  501 -0.00000000000E+00  0.00000000000E+00  0.25826008703E+03  0.25826008703E+03  0.00000000000E+00 0.  1.
         21   -1    0    0  501  502  0.00000000000E+00 -0.00000000000E+00 -0.10577929180E+03  0.10577929180E+03  0.00000000000E+00 0.  1.
         23    2    1    2    0    0 -0.21458307302E+00 -0.19515038225E+01  0.11736281829E+03  0.14711463269E+03  0.88683874648E+02 0.  0.
         23    2    1    2    0    0 -0.79641364400E+01  0.35835938068E+02  0.10192513439E+03  0.14157063130E+03  0.91136538786E+02 0.  0.
        -11    1    4    4    0    0  0.25274282347E+02  0.54486279449E+02  0.65053677695E+02  0.88541092031E+02  0.00000000000E+00 0. -1.
         11    1    4    4    0    0 -0.33238418787E+02 -0.18650341381E+02  0.36871456690E+02  0.53029539273E+02  0.00000000000E+00 0.  1.
        -13    1    3    3    0    0 -0.22847717538E+02  0.17745330109E+02  0.11318235772E+03  0.11682106418E+03  0.00000000000E+00 0.  1.
         13    1    3    3    0    0  0.22633134465E+02 -0.19696833932E+02  0.41804605705E+01  0.30293568513E+02  0.00000000000E+00 0. -1.
         -4    1    1    2    0  502  0.81787195130E+01 -0.33884434245E+02 -0.66807157445E+02  0.75354114837E+02  0.00000000000E+00 0.  1.
<scales pt_clust_5="13000.00000" pt_clust_6="13000.00000" pt_clust_7="13000.00000" pt_clust_8="13000.00000" pt_clust_9="34.85751"></scales>
<clustering>
<clus scale="   34.858">  2  9  1 -1</clus>
<clus scale="   88.684">  7  8 -1 -1</clus>
<clus scale="   90.262">  1  7  2 -1</clus>
<clus scale="   91.137">  5  6 -1 -1</clus>
<clus scale="   34.858">  2  5  1 -1</clus>
</clustering>
</event>
<event>
 9    1  0.1426358E-005  0.9333510E+02  0.7546771E-02  0.1297309E+00
         21   -1    0    0  501  502  0.00000000000E+00  0.00000000000E+00  0.26868032554E+03  0.26868032554E+03  0.00000000000E+00 0.  1.
         -1   -1    0    0    0  501 -0.00000000000E+00 -0.00000000000E+00 -0.80106874064E+02  0.80106874064E+02  0.00000000000E+00 0.  1.
         23    2    1    2    0    0 -0.13424364201E+02 -0.67172138224E+00 -0.37783869311E+01  0.92512271882E+02  0.91452607821E+02 0.  0.
         23    2    1    2    0    0  0.21876094772E+02  0.19690801459E+02  0.36739494555E+02  0.99276970041E+02  0.87406150446E+02 0.  0.
        -11    1    3    3    0    0 -0.44224816620E+02  0.16867192940E+02 -0.22521992883E+02  0.52417332689E+02  0.00000000000E+00 0.  1.
         11    1    3    3    0    0  0.30800452419E+02 -0.17538914323E+02  0.18743605952E+02  0.40094939194E+02  0.00000000000E+00 0. -1.
        -13    1    4    4    0    0 -0.26891570066E+02 -0.79805487256E+01 -0.61086300511E+01  0.28708205442E+02  0.00000000000E+00 0.  1.
         13    1    4    4    0    0  0.48767664838E+02  0.27671350185E+02  0.42848124606E+02  0.70568764599E+02  0.00000000000E+00 0. -1.
         -1    1    1    2    0  502 -0.84517305717E+01 -0.19019080077E+02  0.15561234385E+03  0.15699795768E+03  0.00000000000E+00 0.  1.
<scales pt_clust_5="13000.00000" pt_clust_6="13000.00000" pt_clust_7="13000.00000" pt_clust_8="13000.00000" pt_clust_9="20.81243"></scales>
<clustering>
<clus scale="   20.812">  1  9  2 -1</clus>
<clus scale="   87.406">  7  8 -1 -1</clus>
<clus scale="   89.374">  1  7  2 -1</clus>
<clus scale="   91.453">  5  6 -1 -1</clus>
<clus scale="   20.812">  1  5  2 -1</clus>
</clustering>
</event>
<event>
 9    1  0.1426358E-005  0.1409789E+03  0.7546771E-02  0.1214071E+00
         21   -1    0    0  501  502  0.00000000000E+00  0.00000000000E+00  0.54028370688E+02  0.54028370688E+02  0.00000000000E+00 0. -1.
          2   -1    0    0  502    0 -0.00000000000E+00 -0.00000000000E+00 -0.63018545068E+03  0.63018545068E+03  0.00000000000E+00 0. -1.
         23    2    1    2    0    0  0.15503017988E+02  0.71828048727E+02 -0.22678771461E+03  0.25740230389E+03  0.97075570551E+02 0.  0.
         23    2    1    2    0    0 -0.12138272652E+02 -0.11566705897E+03 -0.34922551269E+03  0.38284333553E+03  0.10528226182E+03 0.  0.
        -13    1    3    3    0    0  0.31762395954E+02  0.87492168913E+02 -0.20855140028E+03  0.22837998156E+03  0.00000000000E+00 0.  1.
         13    1    3    3    0    0 -0.16259377966E+02 -0.15664120186E+02 -0.18236314329E+02  0.29022322328E+02  0.00000000000E+00 0. -1.
        -13    1    4    4    0    0 -0.13138114771E+02  0.18438691216E+02 -0.56072060004E+02  0.60470416788E+02  0.00000000000E+00 0.  1.
         13    1    4    4    0    0  0.99984211868E+00 -0.13410575018E+03 -0.29315345269E+03  0.32237291874E+03  0.00000000000E+00 0. -1.
          2    1    1    2  501    0 -0.33647453362E+01  0.43839010239E+02 -0.14385268416E+00  0.43968181944E+02  0.00000000000E+00 0. -1.
<scales pt_clust_5="13000.00000" pt_clust_6="13000.00000" pt_clust_7="13000.00000" pt_clust_8="13000.00000" pt_clust_9="43.96795"></scales>
<clustering>
<clus scale="   43.968">  1  9  2 -1</clus>
<clus scale="   97.076">  5  6 -1 -1</clus>
<clus scale="  105.282">  7  8 -1 -1</clus>
<clus scale="  134.961">  2  5  1 -1</clus>
<clus scale="   43.968">  1  5  2 -1</clus>
</clustering>
</event>
<event>
 9    1  0.1426358E-005  0.1336460E+03  0.7546771E-02  0.1222826E+00
         21   -1    0    0  501  502  0.00000000000E+00  0.00000000000E+00  0.66227322332E+03  0.66227322332E+03  0.00000000000E+00 0.  1.
          3   -1    0    0  502    0 -0.00000000000E+00 -0.00000000000E+00 -0.97991852770E+02  0.97991852770E+02  0.00000000000E+00 0. -1.
         23    2    1    2    0    0 -0.45668740465E+01 -0.11018624063E+03 -0.12294557659E+02  0.14289759898E+03  0.90037234990E+02 0.  0.
         23    2    1    2    0    0  0.50383195892E+02  0.47543351854E+02  0.18556054116E+03  0.21872440395E+03  0.92783693161E+02 0.  0.
        -11    1    3    3    0    0 -0.27183793677E+02 -0.20824226794E+02 -0.33937057106E+02  0.48211315116E+02  0.00000000000E+00 0. -1.
         11    1    3    3    0    0  0.22616919630E+02 -0.89362013835E+02  0.21642499447E+02  0.94686283867E+02  0.00000000000E+00 0.  1.
        -13    1    4    4    0    0  0.76672350181E+02  0.43918776632E+02  0.15339948429E+03  0.17702799215E+03  0.00000000000E+00 0. -1.
         13    1    4    4    0    0 -0.26289154289E+02  0.36245752218E+01  0.32161056867E+02  0.41696411807E+02  0.00000000000E+00 0.  1.
          3    1    1    2  501    0 -0.45816321846E+02  0.62642888775E+02  0.39101538705E+03  0.39864307315E+03  0.00000000000E+00 0. -1.
<scales pt_clust_5="13000.00000" pt_clust_6="13000.00000" pt_clust_7="13000.00000" pt_clust_8="13000.00000" pt_clust_9="77.60971"></scales>
<clustering>
<clus scale="   77.610">  1  9  2 -1</clus>
<clus scale="   90.037">  5  6 -1 -1</clus>
<clus scale="   92.784">  7  8 -1 -1</clus>
<clus scale="  131.754">  2  5  1 -1</clus>
<clus scale="   77.610">  1  5  2 -1</clus>
</clustering>
</event>
<event>
 9    1  0.1426358E-005  0.1144674E+03  0.7546771E-02  0.1253364E+00
         21   -1    0    0  501  502  0.00000000000E+00  0.00000000000E+00  0.41776632440E+02  0.41776632440E+02  0.00000000000E+00 0.  1.
          1   -1    0    0  502    0 -0.00000000000E+00 -0.00000000000E+00 -0.52809493758E+03  0.52809493758E+03  0.00000000000E+00 0. -1.
         23    2    1    2    0    0 -0.55415706026E+02 -0.54386951559E+02 -0.34820104966E+03  0.36826062025E+03  0.91340420766E+02 0.  0.
         23    2    1    2    0    0  0.19289479457E+02  0.52971309891E+02 -0.12431940967E+03  0.16291354887E+03  0.88923928701E+02 0.  0.
        -11    1    3    3    0    0  0.19285441730E+02 -0.24621866651E+02 -0.16864704373E+03  0.17152256393E+03  0.00000000000E+00 0.  1.
         11    1    3    3    0    0 -0.74701147756E+02 -0.29765084907E+02 -0.17955400593E+03  0.19673805632E+03  0.00000000000E+00 0. -1.
        -11    1    4    4    0    0  0.56646536544E+01  0.75710966339E+02 -0.73901107756E+02  0.10595099081E+03  0.00000000000E+00 0.  1.
         11    1    4    4    0    0  0.13624825803E+02 -0.22739656448E+02 -0.50418301912E+02  0.56962558064E+02  0.00000000000E+00 0. -1.
          1    1    1    2  501    0  0.36126226569E+02  0.14156416673E+01 -0.13797845808E+02  0.38697400900E+02  0.00000000000E+00 0. -1.
<scales pt_clust_5="13000.00000" pt_clust_6="13000.00000" pt_clust_7="13000.00000" pt_clust_8="13000.00000" pt_clust_9="36.15395"></scales>
<clustering>
<clus scale="   36.154">  1  9  2 -1</clus>
<clus scale="   88.924">  7  8 -1 -1</clus>
<clus scale="   91.340">  5  6 -1 -1</clus>
<clus scale="  112.549">  1  7  2 -1</clus>
<clus scale="   36.154">  1  5  2 -1</clus>
</clustering>
</event>
<event>
 9    1  0.1426358E-005  0.1057892E+03  0.7546771E-02  0.1269935E+00
         21   -1    0    0  501  502  0.00000000000E+00  0.00000000000E+00  0.30319249967E+02  0.30319249967E+02  0.00000000000E+00 0.  1.
          3   -1    0    0  502    0 -0.00000000000E+00 -0.00000000000E+00 -0.46733122193E+03  0.46733122193E+03  0.00000000000E+00 0. -1.
         23    2    1    2    0    0  0.60817995813E+02  0.38594971800E+01 -0.23811905004E+03  0.26240699981E+03  0.91885946808E+02 0.  0.
         23    2    1    2    0    0 -0.41549664926E+02  0.13105301521E+02 -0.14405613274E+03  0.17469476098E+03  0.88701558884E+02 0.  0.
        -11    1    3    3    0    0  0.32550794773E+02 -0.37063604328E+02 -0.61064529466E+02  0.78499310602E+02  0.00000000000E+00 0.  1.
         11    1    3    3    0    0  0.28267201040E+02  0.40923101508E+02 -0.17705452058E+03  0.18390768920E+03  0.00000000000E+00 0. -1.
        -13    1    4    4    0    0  0.20384028818E+02  0.22713720111E+01 -0.36210413722E+01  0.20827378671E+02  0.00000000000E+00 0.  1.
         13    1    4    4    0    0 -0.61933693744E+02  0.10833929510E+02 -0.14043509137E+03  0.15386738230E+03  0.00000000000E+00 0. -1.
          3    1    1    2  501    0 -0.19268330888E+02 -0.16964798701E+02 -0.54836789180E+02  0.60548711115E+02  0.00000000000E+00 0. -1.
<scales pt_clust_5="13000.00000" pt_clust_6="13000.00000" pt_clust_7="13000.00000" pt_clust_8="13000.00000" pt_clust_9="25.67243"></scales>
<clustering>
<clus scale="   25.672">  1  9  2 -1</clus>
<clus scale="   88.702">  7  8 -1 -1</clus>
<clus scale="   91.886">  5  6 -1 -1</clus>
<clus scale="  103.035">  1  7  2 -1</clus>
<clus scale="   25.672">  1  5  2 -1</clus>
</clustering>
</event>
<event>
 9    1  0.1426358E-005  0.1227712E+03  0.7546771E-02  0.1239444E+00
         21   -1    0    0  501  502  0.00000000000E+00  0.00000000000E+00  0.19698518880E+03  0.19698518880E+03  0.00000000000E+00 0. -1.
         -3   -1    0    0    0  501 -0.00000000000E+00 -0.00000000000E+00 -0.14748664976E+03  0.14748664976E+03  0.00000000000E+00 0.  1.
         23    2    1    2    0    0 -0.79008258344E+02  0.18125866452E+02 -0.82967805550E+02  0.14915209561E+03  0.93764806547E+02 0.  0.
         23    2    1    2    0    0  0.65495889077E+02 -0.36354173883E+02  0.94406956663E+02  0.15100978555E+03  0.90994199924E+02 0.  0.
        -11    1    4    4    0    0  0.29784699882E+02  0.26217079421E+02  0.11793927702E+02  0.41395172799E+02  0.00000000000E+00 0.  1.
         11    1    4    4    0    0  0.35711189195E+02 -0.62571253304E+02  0.82613028962E+02  0.10961461275E+03  0.00000000000E+00 0. -1.
        -13    1    3    3    0    0 -0.77891462086E+02 -0.46178993458E+01 -0.95369866604E+02  0.12322262908E+03  0.00000000000E+00 0.  1.
         13    1    3    3    0    0 -0.11167962581E+01  0.22743765798E+02  0.12402061054E+02  0.25929466538E+02  0.00000000000E+00 0. -1.
         -3    1    1    2    0  502  0.13512369266E+02  0.18228307431E+02  0.38059387930E+02  0.44309957398E+02  0.00000000000E+00 0.  1.
<scales pt_clust_5="13000.00000" pt_clust_6="13000.00000" pt_clust_7="13000.00000" pt_clust_8="13000.00000" pt_clust_9="22.69042"></scales>
<clustering>
<clus scale="   22.690">  1  9  2 -1</clus>
<clus scale="   90.994">  5  6 -1 -1</clus>
<clus scale="   93.765">  7  8 -1 -1</clus>
<clus scale="  120.668">  1  5  2 -1</clus>
<clus scale="   22.690">  1  5  2 -1</clus>
</clustering>
</event>
<event>
 9    1  0.1426358E-005  0.1416256E+03  0.7546771E-02  0.1212076E+00
         21   -1    0    0  501  502  0.00000000000E+00  0.00000000000E+00  0.15550717546E+03  0.15550717546E+03  0.00000000000E+00 0.  1.
          2   -1    0    0  502    0 -0.00000000000E+00 -0.00000000000E+00 -0.17907440978E+03  0.17907440978E+03  0.00000000000E+00 0. -1.
         23    2    1    2    0    0 -0.10522826892E+03  0.47824985231E+02 -0.84662320461E+02  0.16978887035E+03  0.91106169912E+02 0.  0.
         23    2    1    2    0    0  0.88586849040E+02 -0.30836917454E+02  0.42717770422E+02  0.13473848000E+03  0.86781938113E+02 0.  0.
        -11    1    3    3    0    0 -0.67940438604E+02  0.24704758323E+02 -0.99926834543E+02  0.12333531750E+03  0.00000000000E+00 0. -1.
         11    1    3    3    0    0 -0.37287830314E+02  0.23120226908E+02  0.15264514082E+02  0.46453552845E+02  0.00000000000E+00 0.  1.
        -13    1    4    4    0    0  0.14376731068E+02  0.29008434329E+02  0.87977073064E+01  0.33549654428E+02  0.00000000000E+00 0.  1.
         13    1    4    4    0    0  0.74210117972E+02 -0.59845351783E+02  0.33920063116E+02  0.10118882557E+03  0.00000000000E+00 0. -1.
          2    1    1    2  501    0  0.16641419878E+02 -0.16988067777E+02  0.18377315719E+02  0.30054234899E+02  0.00000000000E+00 0. -1.
<scales pt_clust_5="13000.00000" pt_clust_6="13000.00000" pt_clust_7="13000.00000" pt_clust_8="13000.00000" pt_clust_9="23.78090"></scales>
<clustering>
<clus scale="   23.781">  1  9  2 -1</clus>
<clus scale="   86.782">  7  8 -1 -1</clus>
<clus scale="   91.106">  5  6 -1 -1</clus>
<clus scale="  138.883">  1  7  2 -1</clus>
<clus scale="   23.781">  1  5  2 -1</clus>
</clustering>
</event>
<event>
 9    1  0.1426358E-005  0.9760018E+02  0.7546771E-02  0.1288447E+00
          3   -1    0    0  502    0 -0.00000000000E+00  0.00000000000E+00  0.32055933422E+03  0.32055933422E+03  0.00000000000E+00 0. -1.
         21   -1    0    0  501  502  0.00000000000E+00 -0.00000000000E+00 -0.10838611790E+03  0.10838611790E+03  0.00000000000E+00 0.  1.
         23    2    1    2    0    0 -0.27450052450E+02  0.69635880790E+01  0.20733121877E+03  0.22866530906E+03  0.92193233757E+02 0.  0.
         23    2    1    2    0    0  0.42564381186E+02  0.28367718359E+02  0.71523476331E+02  0.12331805005E+03  0.86459700501E+02 0.  0.
        -11    1    3    3    0    0 -0.16388786884E+02  0.49585819867E+02  0.10536852332E+03  0.11760047438E+03  0.00000000000E+00 0.  1.
         11    1    3    3    0    0 -0.11061265566E+02 -0.42622231788E+02  0.10196269545E+03  0.11106483468E+03  0.00000000000E+00 0. -1.
        -13    1    4    4    0    0  0.61404925441E+02 -0.54972652818E+01  0.45876977328E+02  0.76847132951E+02  0.00000000000E+00 0. -1.
         13    1    4    4    0    0 -0.18840544255E+02  0.33864983641E+02  0.25646499002E+02  0.46470917098E+02  0.00000000000E+00 0.  1.
          3    1    1    2  501    0 -0.15114328736E+02 -0.35331306438E+02 -0.66681478785E+02  0.76962093011E+02  0.00000000000E+00 0. -1.
<scales pt_clust_5="13000.00000" pt_clust_6="13000.00000" pt_clust_7="13000.00000" pt_clust_8="13000.00000" pt_clust_9="38.42843"></scales>
<clustering>
<clus scale="   38.428">  2  9  1 -1</clus>
<clus scale="   86.460">  7  8 -1 -1</clus>
<clus scale="   92.193">  5  6 -1 -1</clus>
<clus scale="   92.203">  2  7  1 -1</clus>
<clus scale="   38.428">  2  5  1 -1</clus>
</clustering>
</event>
<event>
 9    1  0.1426358E-005  0.1367894E+03  0.7546771E-02  0.1229204E+00
          3   -1    0    0  502    0 -0.00000000000E+00  0.00000000000E+00  0.42098168457E+03  0.42098168457E+03  0.00000000000E+00 0. -1.
         21   -1    0    0  501  502  0.00000000000E+00 -0.00000000000E+00 -0.69685468321E+02  0.69685468321E+02  0.00000000000E+00 0. -1.
         23    2    1    2    0    0 -0.52346813732E+02  0.63396960872E+02  0.27674078261E+03  0.31406651541E+03  0.12366467479E+03 0.  0.
         23    2    1    2    0    0  0.70532942714E+01 -0.30204418098E+02  0.73338677688E+02  0.12043366946E+03  0.90352926137E+02 0.  0.
        -11    1    3    3    0    0  0.15458929688E+02 -0.27939117789E+02  0.38176241132E+02  0.49769450438E+02  0.00000000000E+00 0.  1.
         11    1    3    3    0    0 -0.67805743420E+02  0.91336078661E+02  0.23856454147E+03  0.26429706498E+03  0.00000000000E+00 0. -1.
        -13    1    4    4    0    0 -0.18291225772E+02 -0.41838845116E+02  0.79678004556E+02  0.91834864354E+02  0.00000000000E+00 0.  1.
         13    1    4    4    0    0  0.25344520043E+02  0.11634427019E+02 -0.63393268678E+01  0.28598805104E+02  0.00000000000E+00 0. -1.
          3    1    1    2  501    0  0.45293519461E+02 -0.33192542774E+02  0.12167559517E+01  0.56166968015E+02  0.00000000000E+00 0. -1.
<scales pt_clust_5="13000.00000" pt_clust_6="13000.00000" pt_clust_7="13000.00000" pt_clust_8="13000.00000" pt_clust_9="56.15379"></scales>
<clustering>
<clus scale="   56.154">  2  9  1 -1</clus>
<clus scale="   90.353">  7  8 -1 -1</clus>
<clus scale="  107.620">  2  7  1 -1</clus>
<clus scale="  123.665">  5  6 -1 -1</clus>
<clus scale="   56.154">  2  5  1 -1</clus>
</clustering>
</event>
<event>
 9    1  0.1426358E-005  0.1790976E+03  0.7546771E-02  0.1178069E+00
          1   -1    0    0  502    0 -0.00000000000E+00  0.00000000000E+00  0.21992422787E+03  0.21992422787E+03  0.00000000000E+00 0. -1.
         21   -1    0    0  501  502  0.00000000000E+00 -0.00000000000E+00 -0.36036285825E+03  0.36036285825E+03  0.00000000000E+00 0. -1.
         23    2    1    2    0    0  0.27562817447E+02  0.10632469614E+03  0.75094793508E+02  0.16299388823E+03  0.94144196171E+02 0.  0.
         23    2    1    2    0    0 -0.16187432239E+03  0.81655609190E+01 -0.96274014252E+02  0.20428989719E+03  0.78712792108E+02 0.  0.
        -11    1    4    4    0    0 -0.14887989792E+03 -0.75452820574E+01 -0.56172766269E+02  0.15930327981E+03  0.00000000000E+00 0. -1.
         11    1    4    4    0    0 -0.12994424466E+02  0.15710842976E+02 -0.40101247982E+02  0.44986617387E+02  0.00000000000E+00 0.  1.
        -13    1    3    3    0    0  0.34634632375E+02  0.12751885346E+02 -0.78707778358E+01  0.37737481147E+02  0.00000000000E+00 0.  1.
         13    1    3    3    0    0 -0.70718149277E+01  0.93572810798E+02  0.82965571344E+02  0.12525640708E+03  0.00000000000E+00 0. -1.
          1    1    1    2  501    0  0.13431150494E+03 -0.11449025706E+03 -0.11925940963E+03  0.21300330070E+03  0.00000000000E+00 0. -1.
<scales pt_clust_5="13000.00000" pt_clust_6="13000.00000" pt_clust_7="13000.00000" pt_clust_8="13000.00000" pt_clust_9="160.87334"></scales>
<clustering>
<clus scale="   78.713">  5  6 -1 -1</clus>
<clus scale="   94.144">  7  8 -1 -1</clus>
<clus scale="  144.664">  1  7  2 -1</clus>
<clus scale="  160.873">  2  9  1 -1</clus>
<clus scale="  160.873">  2  5  1 -1</clus>
</clustering>
</event>
<event>
 9    1  0.1426358E-005  0.1635003E+03  0.7546771E-02  0.1185314E+00
          2   -1    0    0  502    0 -0.00000000000E+00  0.00000000000E+00  0.12838732980E+04  0.12838732980E+04  0.00000000000E+00 0. -1.
         21   -1    0    0  501  502  0.00000000000E+00 -0.00000000000E+00 -0.13452101763E+03  0.13452101763E+03  0.00000000000E+00 0. -1.
         23    2    1    2    0    0  0.92796782730E+02 -0.65606142799E+02  0.72397708516E+03  0.73918217616E+03  0.96602592425E+02 0.  0.
         23    2    1    2    0    0 -0.15333615393E+03  0.87548505281E+02  0.52436212239E+03  0.56112363664E+03  0.93420465193E+02 0.  0.
        -11    1    4    4    0    0 -0.57306006534E+02  0.84708851543E+02  0.23693076411E+03  0.25806153316E+03  0.00000000000E+00 0. -1.
         11    1    4    4    0    0 -0.96030147392E+02  0.28396537385E+01  0.28743135828E+03  0.30306210348E+03  0.00000000000E+00 0.  1.
        -11    1    3    3    0    0  0.20000719439E+02 -0.71376119536E+02  0.30421454055E+03  0.31311510008E+03  0.00000000000E+00 0.  1.
         11    1    3    3    0    0  0.72796063291E+02  0.57699767368E+01  0.41976254461E+03  0.42606707608E+03  0.00000000000E+00 0. -1.
          2    1    1    2  501    0  0.60539371195E+02 -0.21942362482E+02 -0.98986927205E+02  0.11808850280E+03  0.00000000000E+00 0. -1.
<scales pt_clust_5="13000.00000" pt_clust_6="13000.00000" pt_clust_7="13000.00000" pt_clust_8="13000.00000" pt_clust_9="64.39319"></scales>
<clustering>
<clus scale="   64.393">  2  9  1 -1</clus>
<clus scale="   93.420">  5  6 -1 -1</clus>
<clus scale="   96.603">  7  8 -1 -1</clus>
<clus scale="  161.641">  2  5  1 -1</clus>
<clus scale="   64.393">  2  5  1 -1</clus>
</clustering>
</event>
<event>
 9    1  0.1426358E-005  0.1215722E+03  0.7546771E-02  0.1245083E+00
         21   -1    0    0  501  502  0.00000000000E+00  0.00000000000E+00  0.91574715761E+02  0.91574715761E+02  0.00000000000E+00 0.  1.
         -1   -1    0    0    0  501 -0.00000000000E+00 -0.00000000000E+00 -0.37352179101E+03  0.37352179101E+03  0.00000000000E+00 0.  1.
         23    2    1    2    0    0 -0.42903974120E+01 -0.60382229600E+02 -0.14664555410E+03  0.19006811231E+03  0.10467352874E+03 0.  0.
         23    2    1    2    0    0 -0.83575407938E+02  0.39455564497E+02 -0.13061360760E+03  0.18458337472E+03  0.92029980729E+02 0.  0.
        -13    1    4    4    0    0 -0.99686230087E+02  0.18562142043E+02 -0.11723029034E+03  0.15499947923E+03  0.00000000000E+00 0.  1.
         13    1    4    4    0    0  0.16110822149E+02  0.20893422453E+02 -0.13383317252E+02  0.29583895497E+02  0.00000000000E+00 0. -1.
        -13    1    3    3    0    0 -0.19572394223E+02  0.20088442058E+02 -0.82237638480E+01  0.29227630964E+02  0.00000000000E+00 0.  1.
         13    1    3    3    0    0  0.15281996811E+02 -0.80470671658E+02 -0.13842179025E+03  0.16084048135E+03  0.00000000000E+00 0. -1.
         -1    1    1    2    0  502  0.87865805350E+02  0.20926665103E+02 -0.46879135577E+01  0.90445019740E+02  0.00000000000E+00 0.  1.
<scales pt_clust_5="13000.00000" pt_clust_6="13000.00000" pt_clust_7="13000.00000" pt_clust_8="13000.00000" pt_clust_9="90.32345"></scales>
<clustering>
<clus scale="   90.323">  1  9  2 -1</clus>
<clus scale="   92.030">  5  6 -1 -1</clus>
<clus scale="  104.674">  7  8 -1 -1</clus>
<clus scale="  110.873">  1  5  2 -1</clus>
<clus scale="   90.323">  1  5  2 -1</clus>
</clustering>
</event>
<event>
 9    1  0.1426358E-005  0.1383753E+03  0.7546771E-02  0.1215970E+00
         21   -1    0    0  501  502  0.00000000000E+00  0.00000000000E+00  0.14102646669E+03  0.14102646669E+03  0.00000000000E+00 0.  1.
         -2   -1    0    0    0  501 -0.00000000000E+00 -0.00000000000E+00 -0.35197004799E+03  0.35197004799E+03  0.00000000000E+00 0. -1.
         23    2    1    2    0    0  0.11106888201E+03 -0.66189871710E+01 -0.25450494976E+03  0.29159752199E+03  0.88748170880E+02 0.  0.
         23    2    1    2    0    0 -0.85963148669E+02  0.11789384871E+01 -0.25644491852E+02  0.12757932677E+03  0.90707176300E+02 0.  0.
        -11    1    4    4    0    0 -0.55549990985E+02  0.44532594731E+02 -0.74584471458E+01  0.71586185299E+02  0.00000000000E+00 0. -1.
         11    1    4    4    0    0 -0.30413157684E+02 -0.43353656244E+02 -0.18186044707E+02  0.55993141474E+02  0.00000000000E+00 0.  1.
        -13    1    3    3    0    0  0.11635879874E+03  0.17408724412E+02 -0.21381388704E+03  0.24404674146E+03  0.00000000000E+00 0.  1.
         13    1    3    3    0    0 -0.52899167253E+01 -0.24027711583E+02 -0.40691062722E+02  0.47550780523E+02  0.00000000000E+00 0. -1.
         -2    1    1    2    0  502 -0.25105733344E+02  0.54400486838E+01  0.69205860309E+02  0.73819665927E+02  0.00000000000E+00 0. -1.
<scales pt_clust_5="13000.00000" pt_clust_6="13000.00000" pt_clust_7="13000.00000" pt_clust_8="13000.00000" pt_clust_9="25.68836"></scales>
<clustering>
<clus scale="   25.688">  1  9  2 -1</clus>
<clus scale="   88.748">  7  8 -1 -1</clus>
<clus scale="   90.707">  5  6 -1 -1</clus>
<clus scale="  137.099">  2  7  1 -1</clus>
<clus scale="   25.688">  1  5  2 -1</clus>
</clustering>
</event>
<event>
 9    1  0.1426358E-005  0.1029500E+03  0.7546771E-02  0.1274399E+00
          2   -1    0    0  502    0 -0.00000000000E+00  0.00000000000E+00  0.18037412872E+03  0.18037412872E+03  0.00000000000E+00 0. -1.
         21   -1    0    0  501  502  0.00000000000E+00 -0.00000000000E+00 -0.26421789073E+03  0.26421789073E+03  0.00000000000E+00 0. -1.
         23    2    1    2    0    0 -0.92277558038E+01  0.31313381166E+02  0.53312421029E+02  0.11129686824E+03  0.92082024993E+02 0.  0.
         23    2    1    2    0    0  0.27254017633E+02 -0.52382421294E+02  0.66134294636E+02  0.12812237308E+03  0.92492691711E+02 0.  0.
        -13    1    4    4    0    0 -0.29062952501E+02 -0.43134821314E+02  0.38511107398E+02  0.64717643737E+02  0.00000000000E+00 0.  1.
         13    1    4    4    0    0  0.56316970133E+02 -0.92475999800E+01  0.27623187238E+02  0.63404729347E+02  0.00000000000E+00 0. -1.
        -13    1    3    3    0    0 -0.20205762509E+02  0.53095119517E+01 -0.22318239203E+02  0.30570697684E+02  0.00000000000E+00 0.  1.
         13    1    3    3    0    0  0.10978006706E+02  0.26003869214E+02  0.75630660232E+02  0.80726170555E+02  0.00000000000E+00 0. -1.
          2    1    1    2  501    0 -0.18026261829E+02  0.21069040128E+02 -0.20329047768E+03  0.20517277813E+03  0.00000000000E+00 0. -1.
<scales pt_clust_5="13000.00000" pt_clust_6="13000.00000" pt_clust_7="13000.00000" pt_clust_8="13000.00000" pt_clust_9="27.72815"></scales>
<clustering>
<clus scale="   27.728">  2  9  1 -1</clus>
<clus scale="   92.082">  7  8 -1 -1</clus>
<clus scale="   92.493">  5  6 -1 -1</clus>
<clus scale="  102.581">  1  7  2 -1</clus>
<clus scale="   27.728">  2  5  1 -1</clus>
</clustering>
</event>
<event>
 9    1  0.1426358E-005  0.1296067E+03  0.7546771E-02  0.1240356E+00
         21   -1    0    0  501  502  0.00000000000E+00  0.00000000000E+00  0.83794869356E+02  0.83794869356E+02  0.00000000000E+00 0.  1.
         -1   -1    0    0    0  501 -0.00000000000E+00 -0.00000000000E+00 -0.39013458693E+03  0.39013458693E+03  0.00000000000E+00 0.  1.
         23    2    1    2    0    0 -0.65406118368E+02 -0.22216347508E+01 -0.16974165702E+03  0.19822354136E+03  0.78723860680E+02 0.  0.
         23    2    1    2    0    0  0.49578506050E+02  0.49795303154E+02 -0.16952794576E+03  0.21572137878E+03  0.11339483407E+03 0.  0.
        -11    1    4    4    0    0  0.61958439382E+02  0.24351837955E+02 -0.29417272892E+02  0.72782114333E+02  0.00000000000E+00 0. -1.
         11    1    4    4    0    0 -0.12379933332E+02  0.25443465199E+02 -0.14011067286E+03  0.14293926445E+03  0.00000000000E+00 0.  1.
        -13    1    3    3    0    0  0.14453603786E+01  0.27309209658E+02 -0.64865927020E+02  0.70395102720E+02  0.00000000000E+00 0. -1.
         13    1    3    3    0    0 -0.66851478747E+02 -0.29530844408E+02 -0.10487573000E+03  0.12782843864E+03  0.00000000000E+00 0.  1.
         -1    1    1    2    0  502  0.15827612318E+02 -0.47573668403E+02  0.32929885202E+02  0.59984536144E+02  0.00000000000E+00 0.  1.
<scales pt_clust_5="13000.00000" pt_clust_6="13000.00000" pt_clust_7="13000.00000" pt_clust_8="13000.00000" pt_clust_9="50.13748"></scales>
<clustering>
<clus scale="   50.137">  1  9  2 -1</clus>
<clus scale="   78.724">  7  8 -1 -1</clus>
<clus scale="  100.682">  2  7  1 -1</clus>
<clus scale="  113.395">  5  6 -1 -1</clus>
<clus scale="   50.137">  1  5  2 -1</clus>
</clustering>
</event>
<event>
 9    1  0.1426358E-005  0.9691224E+02  0.7546771E-02  0.1287519E+00
         21   -1    0    0  501  502  0.00000000000E+00  0.00000000000E+00  0.14582337720E+03  0.14582337720E+03  0.00000000000E+00 0. -1.
          1   -1    0    0  502    0 -0.00000000000E+00 -0.00000000000E+00 -0.30232335481E+03  0.30232335481E+03  0.00000000000E+00 0. -1.
         23    2    1    2    0    0  0.38173606548E+02 -0.88864125580E+01 -0.14179626452E+03  0.17312554535E+03  0.91269278811E+02 0.  0.
         23    2    1    2    0    0 -0.26676949172E+02 -0.14956504049E+02 -0.12753118034E+03  0.15913031053E+03  0.90127116570E+02 0.  0.
        -11    1    4    4    0    0  0.11123263150E+02  0.28393088050E+02 -0.17983922771E+02  0.35402202055E+02  0.00000000000E+00 0.  1.
         11    1    4    4    0    0 -0.37800212322E+02 -0.43349592100E+02 -0.10954725757E+03  0.12372810848E+03  0.00000000000E+00 0. -1.
        -11    1    3    3    0    0  0.41216003124E+01 -0.29628104886E+02 -0.12719372270E+03  0.13066390199E+03  0.00000000000E+00 0. -1.
         11    1    3    3    0    0  0.34052006236E+02  0.20741692328E+02 -0.14602541824E+02  0.42461643362E+02  0.00000000000E+00 0.  1.
          1    1    1    2  501    0 -0.11496657376E+02  0.23842916607E+02  0.11282746726E+03  0.11589087613E+03  0.00000000000E+00 0. -1.
<scales pt_clust_5="13000.00000" pt_clust_6="13000.00000" pt_clust_7="13000.00000" pt_clust_8="13000.00000" pt_clust_9="26.46994"></scales>
<clustering>
<clus scale="   26.470">  1  9  2 -1</clus>
<clus scale="   90.127">  5  6 -1 -1</clus>
<clus scale="   91.269">  7  8 -1 -1</clus>
<clus scale="   95.837">  1  5  2 -1</clus>
<clus scale="   26.470">  1  5  2 -1</clus>
</clustering>
</event>
<event>
 9    1  0.1426358E-005  0.1149289E+03  0.7546771E-02  0.1252047E+00
          1   -1    0    0  502    0 -0.00000000000E+00  0.00000000000E+00  0.54612602360E+03  0.54612602360E+03  0.00000000000E+00 0. -1.
         21   -1    0    0  501  502  0.00000000000E+00 -0.00000000000E+00 -0.12262776553E+03  0.12262776553E+03  0.00000000000E+00 0. -1.
         23    2    1    2    0    0  0.49680735951E+02 -0.46564834199E+02  0.39374211073E+03  0.40949205522E+03  0.89523372479E+02 0.  0.
         23    2    1    2    0    0 -0.79600529309E+01  0.10511999552E+03  0.89925362817E+02  0.16550856437E+03  0.90514850164E+02 0.  0.
        -11    1    4    4    0    0 -0.45915026153E+02  0.79173807137E+02  0.48291657536E+02  0.10348316554E+03  0.00000000000E+00 0.  1.
         11    1    4    4    0    0  0.37954973222E+02  0.25946188385E+02  0.41633705282E+02  0.62025398825E+02  0.00000000000E+00 0. -1.
        -13    1    3    3    0    0 -0.25255941559E+02 -0.11334985036E+02  0.68684574125E+02  0.74053461719E+02  0.00000000000E+00 0.  1.
         13    1    3    3    0    0  0.74936677510E+02 -0.35229849163E+02  0.32505753661E+03  0.33543859350E+03  0.00000000000E+00 0. -1.
          1    1    1    2  501    0 -0.41720683020E+02 -0.58555161323E+02 -0.60169215477E+02  0.93753169548E+02  0.00000000000E+00 0. -1.
<scales pt_clust_5="13000.00000" pt_clust_6="13000.00000" pt_clust_7="13000.00000" pt_clust_8="13000.00000" pt_clust_9="71.89800"></scales>
<clustering>
<clus scale="   71.898">  2  9  1 -1</clus>
<clus scale="   89.523">  7  8 -1 -1</clus>
<clus scale="   90.515">  5  6 -1 -1</clus>
<clus scale="  114.150">  1  7  2 -1</clus>
<clus scale="   71.898">  2  5  1 -1</clus>
</clustering>
</event>
<event>
 9    1  0.1426358E-005  0.9361938E+02  0.7546771E-02  0.1295150E+00
         21   -1    0    0  501  502  0.00000000000E+00  0.00000000000E+00  0.53304494357E+02  0.53304494357E+02  0.00000000000E+00 0.  1.
         -3   -1    0    0    0  501 -0.00000000000E+00 -0.00000000000E+00 -0.57607230904E+03  0.57607230904E+03  0.00000000000E+00 0.  1.
         23    2    1    2    0    0  0.68448634859E+01  0.14919381259E+02 -0.28204914284E+03  0.29729918658E+03  0.92550782122E+02 0.  0.
         23    2    1    2    0    0 -0.19946242196E+02  0.29287411036E+02 -0.26321317568E+03  0.28077567424E+03  0.91094447508E+02 0.  0.
        -11    1    3    3    0    0  0.68144642599E+01  0.42746531322E+02 -0.25445328997E+03  0.25810885231E+03  0.00000000000E+00 0.  1.
         11    1    3    3    0    0  0.30399226026E-01 -0.27827150063E+02 -0.27595852869E+02  0.39190334272E+02  0.00000000000E+00 0. -1.
        -13    1    4    4    0    0 -0.55858864051E+02  0.20032797964E+02 -0.13882095581E+03  0.15097279046E+03  0.00000000000E+00 0.  1.
         13    1    4    4    0    0  0.35912621855E+02  0.92546130715E+01 -0.12439221987E+03  0.12980288378E+03  0.00000000000E+00 0. -1.
         -3    1    1    2    0  502  0.13101378710E+02 -0.44206792295E+02  0.22494503843E+02  0.51301942577E+02  0.00000000000E+00 0.  1.
<scales pt_clust_5="13000.00000" pt_clust_6="13000.00000" pt_clust_7="13000.00000" pt_clust_8="13000.00000" pt_clust_9="46.10734"></scales>
<clustering>
<clus scale="   46.107">  1  9  2 -1</clus>
<clus scale="   91.094">  7  8 -1 -1</clus>
<clus scale="   92.180">  1  7  2 -1</clus>
<clus scale="   92.551">  5  6 -1 -1</clus>
<clus scale="   46.107">  1  5  2 -1</clus>
</clustering>
</event>
<event>
 9    1  0.1426358E-005  0.1004528E+03  0.7546771E-02  0.1280648E+00
         21   -1    0    0  501  502  0.00000000000E+00  0.00000000000E+00  0.59876218133E+02  0.59876218133E+02  0.00000000000E+00 0.  1.
         -1   -1    0    0    0  501 -0.00000000000E+00 -0.00000000000E+00 -0.31840122107E+03  0.31840122107E+03  0.00000000000E+00 0.  1.
         23    2    1    2    0    0  0.38689691991E+02  0.30267974549E+02 -0.16897334143E+03  0.19900016149E+03  0.92930251317E+02 0.  0.
         23    2    1    2    0    0 -0.19890903043E+02 -0.16281349412E+02 -0.11247890849E+03  0.14649498368E+03  0.90269291705E+02 0.  0.
        -13    1    4    4    0    0 -0.35820419254E+02 -0.45358271282E+02 -0.53095452085E+02  0.78483133483E+02  0.00000000000E+00 0.  1.
         13    1    4    4    0    0  0.15929516211E+02  0.29076921870E+02 -0.59383456405E+02  0.68011850194E+02  0.00000000000E+00 0. -1.
        -13    1    3    3    0    0 -0.14357630445E+02  0.35363417651E+02 -0.12244330814E+03  0.12825395342E+03  0.00000000000E+00 0.  1.
         13    1    3    3    0    0  0.53047322436E+02 -0.50954431019E+01 -0.46530033283E+02  0.70746208063E+02  0.00000000000E+00 0. -1.
         -1    1    1    2    0  502 -0.18798788949E+02 -0.13986625137E+02  0.22927246976E+02  0.32782294040E+02  0.00000000000E+00 0.  1.
<scales pt_clust_5="13000.00000" pt_clust_6="13000.00000" pt_clust_7="13000.00000" pt_clust_8="13000.00000" pt_clust_9="23.43118"></scales>
<clustering>
<clus scale="   23.431">  1  9  2 -1</clus>
<clus scale="   90.269">  5  6 -1 -1</clus>
<clus scale="   92.930">  7  8 -1 -1</clus>
<clus scale="   97.996">  1  5  2 -1</clus>
<clus scale="   23.431">  1  5  2 -1</clus>
</clustering>
</event>
<event>
 9    1  0.1426358E-005  0.1007969E+03  0.7546771E-02  0.1282822E+00
          1   -1    0    0  502    0 -0.00000000000E+00  0.00000000000E+00  0.44593532742E+03  0.44593532742E+03  0.00000000000E+00 0. -1.
         21   -1    0    0  501  502  0.00000000000E+00 -0.00000000000E+00 -0.39079560182E+02  0.39079560182E+02  0.00000000000E+00 0. -1.
         23    2    1    2    0    0  0.25487951273E+01  0.23539717186E+02  0.17196790546E+03  0.19218032708E+03  0.82460311454E+02 0.  0.
         23    2    1    2    0    0 -0.11109480151E+02 -0.73874519501E+02  0.19590360337E+03  0.22859555325E+03  0.91086991225E+02 0.  0.
        -13    1    3    3    0    0  0.32228450250E+00  0.52578423070E+02  0.80176660923E+02  0.95879567149E+02  0.00000000000E+00 0. -1.
         13    1    3    3    0    0  0.22265106248E+01 -0.29038705884E+02  0.91791244538E+02  0.96300759928E+02  0.00000000000E+00 0.  1.
        -13    1    4    4    0    0 -0.41205069299E+02 -0.55108841829E+02  0.71489682607E+02  0.99225082025E+02  0.00000000000E+00 0. -1.
         13    1    4    4    0    0  0.30095589148E+02 -0.18765677672E+02  0.12441392077E+03  0.12937047123E+03  0.00000000000E+00 0.  1.
          1    1    1    2  501    0  0.85606850232E+01  0.50334802314E+02  0.38984258401E+02  0.64239007271E+02  0.00000000000E+00 0. -1.
<scales pt_clust_5="13000.00000" pt_clust_6="13000.00000" pt_clust_7="13000.00000" pt_clust_8="13000.00000" pt_clust_9="51.05759"></scales>
<clustering>
<clus scale="   51.058">  2  9  1 -1</clus>
<clus scale="   82.460">  5  6 -1 -1</clus>
<clus scale="   91.087">  7  8 -1 -1</clus>
<clus scale="   93.075">  1  5  2 -1</clus>
<clus scale="   51.058">  2  5  1 -1</clus>
</clustering>
</event>
<event>
 9    1  0.1426358E-005  0.1647441E+03  0.7546771E-02  0.1184999E+00
          1   -1    0    0  502    0 -0.00000000000E+00  0.00000000000E+00  0.75499482314E+03  0.75499482314E+03  0.00000000000E+00 0. -1.
         21   -1    0    0  501  502  0.00000000000E+00 -0.00000000000E+00 -0.85143416245E+02  0.85143416245E+02  0.00000000000E+00 0.  1.
         23    2    1    2    0    0 -0.14163822136E+03 -0.16189690378E+02  0.41379779382E+03  0.44877839430E+03  0.99246869943E+02 0.  0.
         23    2    1    2    0    0  0.11988835134E+03  0.11238227675E+02  0.30369152006E+03  0.33875809596E+03  0.89604652094E+02 0.  0.
        -11    1    4    4    0    0  0.12272918244E+03 -0.12669935244E+02  0.27424784497E+03  0.30072389322E+03  0.00000000000E+00 0. -1.
         11    1    4    4    0    0 -0.28408311089E+01  0.23908162919E+02  0.29443675093E+02  0.38034202746E+02  0.00000000000E+00 0.  1.
        -13    1    3    3    0    0 -0.28684562989E+02  0.33652459394E+02  0.16791979306E+03  0.17364431773E+03  0.00000000000E+00 0. -1.
         13    1    3    3    0    0 -0.11295365837E+03 -0.49842149771E+02  0.24587800076E+03  0.27513407657E+03  0.00000000000E+00 0.  1.
          1    1    1    2  501    0  0.21749870026E+02  0.49514627025E+01 -0.47637906985E+02  0.52601749125E+02  0.00000000000E+00 0. -1.
<scales pt_clust_5="13000.00000" pt_clust_6="13000.00000" pt_clust_7="13000.00000" pt_clust_8="13000.00000" pt_clust_9="22.30636"></scales>
<clustering>
<clus scale="   22.306">  2  9  1 -1</clus>
<clus scale="   89.605">  5  6 -1 -1</clus>
<clus scale="   99.247">  7  8 -1 -1</clus>
<clus scale="  159.122">  2  5  1 -1</clus>
<clus scale="   22.306">  2  5  1 -1</clus>
</clustering>
</event>
<event>
 9    1  0.1426358E-005  0.1356526E+03  0.7546771E-02  0.1228237E+00
          1   -1    0    0  502    0 -0.00000000000E+00  0.00000000000E+00  0.18222908562E+03  0.18222908562E+03  0.00000000000E+00 0. -1.
         21   -1    0    0  501  502  0.00000000000E+00 -0.00000000000E+00 -0.17213415865E+03  0.17213415865E+03  0.00000000000E+00 0. -1.
         23    2    1    2    0    0  0.64225349665E+02 -0.47342084132E+02  0.41577515603E+02  0.14651473250E+03  0.11563610408E+03 0.  0.
         23    2    1    2    0    0 -0.74305008993E+02 -0.15779183559E+02  0.29484781682E+02  0.11951440617E+03  0.87430680755E+02 0.  0.
        -11    1    4    4    0    0 -0.47966313689E+02 -0.23845006097E+02  0.58627367710E+02  0.79413599649E+02  0.00000000000E+00 0. -1.
         11    1    4    4    0    0 -0.26338695305E+02  0.80658225381E+01 -0.29142586029E+02  0.40100806526E+02  0.00000000000E+00 0.  1.
        -13    1    3    3    0    0  0.72108490906E+02  0.16304647954E+02  0.35745348936E+02  0.82117026104E+02  0.00000000000E+00 0.  1.
         13    1    3    3    0    0 -0.78831412401E+01 -0.63646732086E+02  0.58321666671E+01  0.64397706396E+02  0.00000000000E+00 0. -1.
          1    1    1    2  501    0  0.10079659328E+02  0.63121267691E+02 -0.60967370321E+02  0.88334105593E+02  0.00000000000E+00 0. -1.
<scales pt_clust_5="13000.00000" pt_clust_6="13000.00000" pt_clust_7="13000.00000" pt_clust_8="13000.00000" pt_clust_9="63.92100"></scales>
<clustering>
<clus scale="   63.921">  2  9  1 -1</clus>
<clus scale="   87.431">  5  6 -1 -1</clus>
<clus scale="  112.579">  2  5  1 -1</clus>
<clus scale="  115.636">  7  8 -1 -1</clus>
<clus scale="   63.921">  2  5  1 -1</clus>
</clustering>
</event>
<event>
 9    1  0.1426358E-005  0.1298818E+03  0.7546771E-02  0.1227808E+00
         21   -1    0    0  501  502  0.00000000000E+00  0.00000000000E+00  0.36195719169E+02  0.36195719169E+02  0.00000000000E+00 0. -1.
          2   -1    0    0  502    0 -0.00000000000E+00 -0.00000000000E+00 -0.66205405380E+03  0.66205405380E+03  0.00000000000E+00 0. -1.
         23    2    1    2    0    0 -0.47951356656E+02 -0.77681961605E+02 -0.38113636338E+03  0.40248850820E+03  0.91641977174E+02 0.  0.
         23    2    1    2    0    0  0.21209147520E+02  0.94740474859E+02 -0.18162805594E+03  0.22514270649E+03  0.90966488696E+02 0.  0.
        -13    1    4    4    0    0  0.47652111002E+01  0.11000030702E+03 -0.15780779175E+03  0.19242160461E+03  0.00000000000E+00 0. -1.
         13    1    4    4    0    0  0.16443936419E+02 -0.15259832160E+02 -0.23820264186E+02  0.32721101883E+02  0.00000000000E+00 0.  1.
        -13    1    3    3    0    0 -0.96712739882E+00 -0.58646355334E+02 -0.30778544784E+03  0.31332445201E+03  0.00000000000E+00 0.  1.
         13    1    3    3    0    0 -0.46984229257E+02 -0.19035606270E+02 -0.73350915543E+02  0.89164056188E+02  0.00000000000E+00 0. -1.
          2    1    1    2  501    0  0.26742209136E+02 -0.17058513255E+02 -0.63093915314E+02  0.70618558280E+02  0.00000000000E+00 0. -1.
<scales pt_clust_5="13000.00000" pt_clust_6="13000.00000" pt_clust_7="13000.00000" pt_clust_8="13000.00000" pt_clust_9="31.71969"></scales>
<clustering>
<clus scale="   31.720">  1  9  2 -1</clus>
<clus scale="   90.966">  5  6 -1 -1</clus>
<clus scale="   91.642">  7  8 -1 -1</clus>
<clus scale="  129.406">  1  5  2 -1</clus>
<clus scale="   31.720">  1  5  2 -1</clus>
</clustering>
</event>
<event>
 9    1  0.1426358E-005  0.1104613E+03  0.7546771E-02  0.1260909E+00
         21   -1    0    0  501  502  0.00000000000E+00  0.00000000000E+00  0.74012096403E+02  0.74012096403E+02  0.00000000000E+00 0. -1.
          1   -1    0    0  502    0 -0.00000000000E+00 -0.00000000000E+00 -0.32625594914E+03  0.32625594914E+03  0.00000000000E+00 0. -1.
         23    2    1    2    0    0  0.23339962738E+02 -0.55876102405E+02 -0.17449205792E+03  0.20521060353E+03  0.89426063552E+02 0.  0.
         23    2    1    2    0    0 -0.53848611478E+02  0.38502378145E+02 -0.10168471688E+03  0.15256734080E+03  0.92492733510E+02 0.  0.
        -11    1    3    3    0    0 -0.95548820189E+01 -0.53244255827E+02 -0.41484543186E+02  0.68170476544E+02  0.00000000000E+00 0.  1.
         11    1    3    3    0    0  0.32894844757E+02 -0.26318465784E+01 -0.13300751473E+03  0.13704012698E+03  0.00000000000E+00 0. -1.
        -13    1    4    4    0    0 -0.54968641499E+02  0.62494060133E+02 -0.54105331238E+02  0.99269562145E+02  0.00000000000E+00 0.  1.
         13    1    4    4    0    0  0.11200300208E+01 -0.23991681988E+02 -0.47579385642E+02  0.53297778659E+02  0.00000000000E+00 0. -1.
          1    1    1    2  501    0  0.30508648740E+02  0.17373724260E+02  0.23932922062E+02  0.42490101212E+02  0.00000000000E+00 0. -1.
<scales pt_clust_5="13000.00000" pt_clust_6="13000.00000" pt_clust_7="13000.00000" pt_clust_8="13000.00000" pt_clust_9="35.10874"></scales>
<clustering>
<clus scale="   35.109">  1  9  2 -1</clus>
<clus scale="   89.426">  5  6 -1 -1</clus>
<clus scale="   92.493">  7  8 -1 -1</clus>
<clus scale="  107.907">  2  5  1 -1</clus>
<clus scale="   35.109">  1  5  2 -1</clus>
</clustering>
</event>
<event>
 9    1  0.1426358E-005  0.9594914E+02  0.7546771E-02  0.1290180E+00
         21   -1    0    0  501  502  0.00000000000E+00  0.00000000000E+00  0.28789736058E+03  0.28789736058E+03  0.00000000000E+00 0. -1.
         -4   -1    0    0    0  501 -0.00000000000E+00 -0.00000000000E+00 -0.54898184706E+02  0.54898184706E+02  0.00000000000E+00 0.  1.
         23    2    1    2    0    0  0.11728546975E+02  0.28380926391E+02  0.30206305920E+02  0.10060843221E+03  0.90920844246E+02 0.  0.
         23    2    1    2    0    0  0.89642475194E+01 -0.13419210015E+02  0.10530537916E+03  0.14141084820E+03  0.92991247849E+02 0.  0.
        -11    1    4    4    0    0  0.14529578837E+02  0.38344865847E+02  0.58243944109E+02  0.71230572252E+02  0.00000000000E+00 0. -1.
         11    1    4    4    0    0 -0.55653313180E+01 -0.51764075862E+02  0.47061435053E+02  0.70180275945E+02  0.00000000000E+00 0.  1.
        -13    1    3    3    0    0  0.36841034192E+02 -0.15934423601E+02 -0.22638602065E+01  0.40203143147E+02  0.00000000000E+00 0.  1.
         13    1    3    3    0    0 -0.25112487217E+02  0.44315349992E+02  0.32470166126E+02  0.60405289068E+02  0.00000000000E+00 0. -1.
         -4    1    1    2    0  502 -0.20692794494E+02 -0.14961716376E+02  0.97487490792E+02  0.10077626487E+03  0.00000000000E+00 0.  1.
<scales pt_clust_5="13000.00000" pt_clust_6="13000.00000" pt_clust_7="13000.00000" pt_clust_8="13000.00000" pt_clust_9="25.53517"></scales>
<clustering>
<clus scale="   25.535">  1  9  2 -1</clus>
<clus scale="   90.921">  7  8 -1 -1</clus>
<clus scale="   92.991">  5  6 -1 -1</clus>
<clus scale="   93.944">  2  7  1 -1</clus>
<clus scale="   25.535">  1  5  2 -1</clus>
</clustering>
</event>
<event>
 9    1  0.1426358E-005  0.1278935E+03  0.7546771E-02  0.1246144E+00
          2   -1    0    0  502    0 -0.00000000000E+00  0.00000000000E+00  0.47970911187E+03  0.47970911187E+03  0.00000000000E+00 0. -1.
         21   -1    0    0  501  502  0.00000000000E+00 -0.00000000000E+00 -0.11360263551E+03  0.11360263551E+03  0.00000000000E+00 0. -1.
         23    2    1    2    0    0 -0.44465228121E+01 -0.23170595241E+02  0.74607314336E+02  0.11939978068E+03  0.90185410271E+02 0.  0.
         23    2    1    2    0    0 -0.29320219732E+02 -0.63989236375E+02  0.34708658321E+03  0.36515999869E+03  0.88985564828E+02 0.  0.
        -11    1    3    3    0    0  0.13365292156E+01 -0.54165291839E+02  0.68409221500E+02  0.87266756194E+02  0.00000000000E+00 0. -1.
         11    1    3    3    0    0 -0.57830520277E+01  0.30994696598E+02  0.61980928354E+01  0.32133024488E+02  0.00000000000E+00 0.  1.
        -11    1    4    4    0    0 -0.56045737144E+02 -0.15882646701E+02  0.16837291820E+03  0.17816515569E+03  0.00000000000E+00 0. -1.
         11    1    4    4    0    0  0.26725517412E+02 -0.48106589674E+02  0.17871366500E+03  0.18699484300E+03  0.00000000000E+00 0.  1.
          2    1    1    2  501    0  0.33766742544E+02  0.87159831616E+02 -0.55587421189E+02  0.10875196800E+03  0.00000000000E+00 0. -1.
<scales pt_clust_5="13000.00000" pt_clust_6="13000.00000" pt_clust_7="13000.00000" pt_clust_8="13000.00000" pt_clust_9="91.86026"></scales>
<clustering>
<clus scale="   88.986">  7  8 -1 -1</clus>
<clus scale="   90.185">  5  6 -1 -1</clus>
<clus scale="   93.220">  1  5  2 -1</clus>
<clus scale="   91.860">  2  9  1 -1</clus>
<clus scale="   91.860">  2  5  1 -1</clus>
</clustering>
</event>
<event>
 9    1  0.1426358E-005  0.1090940E+03  0.7546771E-02  0.1263948E+00
          4   -1    0    0  502    0 -0.00000000000E+00  0.00000000000E+00  0.12240142082E+03  0.12240142082E+03  0.00000000000E+00 0. -1.
         21   -1    0    0  501  502  0.00000000000E+00 -0.00000000000E+00 -0.23970778607E+03  0.23970778607E+03  0.00000000000E+00 0. -1.
         23    2    1    2    0    0 -0.39407447359E+02 -0.57627786272E+01  0.41212848696E+02  0.10990248698E+03  0.93775802971E+02 0.  0.
         23    2    1    2    0    0  0.74428024845E+02  0.55532504745E+02 -0.11721472267E+03  0.17865722987E+03  0.97753386687E+02 0.  0.
        -11    1    3    3    0    0 -0.25948121865E+02 -0.32828156292E+02 -0.16318080188E+02  0.44914058098E+02  0.00000000000E+00 0.  1.
         11    1    3    3    0    0 -0.13459325494E+02  0.27065377665E+02  0.57530928884E+02  0.64988428886E+02  0.00000000000E+00 0. -1.
        -13    1    4    4    0    0  0.14590007825E+02  0.68719423089E+02 -0.82027274934E+02  0.10799861699E+03  0.00000000000E+00 0. -1.
         13    1    4    4    0    0  0.59838017020E+02 -0.13186918345E+02 -0.35187447732E+02  0.70658612880E+02  0.00000000000E+00 0.  1.
          4    1    1    2  501    0 -0.35020577486E+02 -0.49769726117E+02 -0.41304491282E+02  0.73549490041E+02  0.00000000000E+00 0. -1.
<scales pt_clust_5="13000.00000" pt_clust_6="13000.00000" pt_clust_7="13000.00000" pt_clust_8="13000.00000" pt_clust_9="60.85611"></scales>
<clustering>
<clus scale="   60.856">  2  9  1 -1</clus>
<clus scale="   93.776">  5  6 -1 -1</clus>
<clus scale="   97.753">  7  8 -1 -1</clus>
<clus scale="  105.545">  1  5  2 -1</clus>
<clus scale="   60.856">  2  5  1 -1</clus>
</clustering>
</event>
<event>
 9    1  0.1426358E-005  0.1252508E+03  0.7546771E-02  0.1236742E+00
          2   -1    0    0  502    0 -0.00000000000E+00  0.00000000000E+00  0.43916633711E+03  0.43916633711E+03  0.00000000000E+00 0. -1.
         21   -1    0    0  501  502  0.00000000000E+00 -0.00000000000E+00 -0.91524046403E+02  0.91524046403E+02  0.00000000000E+00 0.  1.
         23    2    1    2    0    0  0.42068017796E+02 -0.83917011027E+02  0.24961346158E+03  0.28246291791E+03  0.93094773929E+02 0.  0.
         23    2    1    2    0    0 -0.66440445843E+02  0.41122054362E+02  0.14111040198E+03  0.18279471017E+03  0.86002350666E+02 0.  0.
        -11    1    3    3    0    0  0.52226554163E+02 -0.63473335517E+02  0.24597579012E+03  0.25934642200E+03  0.00000000000E+00 0. -1.
         11    1    3    3    0    0 -0.10158536368E+02 -0.20443675509E+02  0.36376714610E+01  0.23116495909E+02  0.00000000000E+00 0.  1.
        -11    1    4    4    0    0  0.91108651935E+01  0.38780475456E+02  0.59006723316E+02  0.71194989554E+02  0.00000000000E+00 0.  1.
         11    1    4    4    0    0 -0.75551311036E+02  0.23415789062E+01  0.82103678660E+02  0.11159972061E+03  0.00000000000E+00 0. -1.
          2    1    1    2  501    0  0.24372428047E+02  0.42794956665E+02 -0.43081572848E+02  0.65432755436E+02  0.00000000000E+00 0. -1.
<scales pt_clust_5="13000.00000" pt_clust_6="13000.00000" pt_clust_7="13000.00000" pt_clust_8="13000.00000" pt_clust_9="49.24859"></scales>
<clustering>
<clus scale="   49.249">  2  9  1 -1</clus>
<clus scale="   86.002">  7  8 -1 -1</clus>
<clus scale="   93.095">  5  6 -1 -1</clus>
<clus scale="  120.073">  2  7  1 -1</clus>
<clus scale="   49.249">  2  5  1 -1</clus>
</clustering>
</event>
<event>
 9    1  0.1426358E-005  0.1069892E+03  0.7546771E-02  0.1267322E+00
          2   -1    0    0  502    0 -0.00000000000E+00  0.00000000000E+00  0.17403468244E+03  0.17403468244E+03  0.00000000000E+00 0. -1.
         21   -1    0    0  501  502  0.00000000000E+00 -0.00000000000E+00 -0.95745957157E+02  0.95745957157E+02  0.00000000000E+00 0.  1.
         23    2    1    2    0    0 -0.15971001623E+02 -0.59955040885E+02  0.72113407999E+02  0.13230061135E+03  0.91942527326E+02 0.  0.
         23    2    1    2    0    0  0.18603376113E+02  0.24829058653E+02 -0.74903165179E+01  0.99697577679E+02  0.94450698235E+02 0.  0.
        -11    1    3    3    0    0  0.11437823309E+02  0.20966297235E+02  0.70255453400E+01  0.24895134246E+02  0.00000000000E+00 0.  1.
         11    1    3    3    0    0 -0.27408824932E+02 -0.80921338120E+02  0.65087862659E+02  0.10740547711E+03  0.00000000000E+00 0. -1.
        -13    1    4    4    0    0 -0.25025966741E+02  0.44421527264E+02 -0.93436516329E+01  0.51835074242E+02  0.00000000000E+00 0.  1.
         13    1    4    4    0    0  0.43629342854E+02 -0.19592468611E+02  0.18533351150E+01  0.47862503437E+02  0.00000000000E+00 0. -1.
          2    1    1    2  501    0 -0.26323744896E+01  0.35125982231E+02  0.13665633798E+02  0.37782450559E+02  0.00000000000E+00 0. -1.
<scales pt_clust_5="13000.00000" pt_clust_6="13000.00000" pt_clust_7="13000.00000" pt_clust_8="13000.00000" pt_clust_9="35.22450"></scales>
<clustering>
<clus scale="   35.224">  2  9  1 -1</clus>
<clus scale="   91.943">  5  6 -1 -1</clus>
<clus scale="   94.451">  7  8 -1 -1</clus>
<clus scale="  104.782">  1  5  2 -1</clus>
<clus scale="   35.224">  2  5  1 -1</clus>
</clustering>
</event>
<event>
 9    1  0.1426358E-005  0.1058885E+03  0.7546771E-02  0.1269396E+00
          1   -1    0    0  502    0 -0.00000000000E+00  0.00000000000E+00  0.61786701597E+03  0.61786701597E+03  0.00000000000E+00 0. -1.
         21   -1    0    0  501  502  0.00000000000E+00 -0.00000000000E+00 -0.18536095248E+03  0.18536095248E+03  0.00000000000E+00 0. -1.
         23    2    1    2    0    0 -0.33902146490E+02 -0.50978578870E+02  0.33138446172E+03  0.34830972545E+03  0.88067203499E+02 0.  0.
         23    2    1    2    0    0  0.56036553532E+02  0.11330871589E+02  0.26450473137E+03  0.28534253805E+03  0.90493796055E+02 0.  0.
        -11    1    3    3    0    0 -0.59382993376E+02 -0.14245126231E+02  0.21914220644E+03  0.22749191232E+03  0.00000000000E+00 0.  1.
         11    1    3    3    0    0  0.25480846886E+02 -0.36733452639E+02  0.11224225528E+03  0.12081781314E+03  0.00000000000E+00 0. -1.
        -13    1    4    4    0    0  0.50755847946E+02 -0.28198264789E+02  0.20952903657E+03  0.21742519496E+03  0.00000000000E+00 0. -1.
         13    1    4    4    0    0  0.52807055857E+01  0.39529136378E+02  0.54975694797E+02  0.67917343092E+02  0.00000000000E+00 0.  1.
          1    1    1    2  501    0 -0.22134407042E+02  0.39647707281E+02 -0.16338312961E+03  0.16957570495E+03  0.00000000000E+00 0. -1.
<scales pt_clust_5="13000.00000" pt_clust_6="13000.00000" pt_clust_7="13000.00000" pt_clust_8="13000.00000" pt_clust_9="45.40785"></scales>
<clustering>
<clus scale="   45.408">  2  9  1 -1</clus>
<clus scale="   88.067">  5  6 -1 -1</clus>
<clus scale="   90.494">  7  8 -1 -1</clus>
<clus scale="  103.822">  1  5  2 -1</clus>
<clus scale="   45.408">  2  5  1 -1</clus>
</clustering>
</event>
<event>
 9    1  0.1426358E-005  0.1112178E+03  0.7546771E-02  0.1258510E+00
          2   -1    0    0  502    0 -0.00000000000E+00  0.00000000000E+00  0.21868447379E+03  0.21868447379E+03  0.00000000000E+00 0. -1.
         21   -1    0    0  501  502  0.00000000000E+00 -0.00000000000E+00 -0.32707008202E+03  0.32707008202E+03  0.00000000000E+00 0. -1.
         23    2    1    2    0    0 -0.37812871376E+02  0.45757996651E+02  0.17066684714E+03  0.20288485087E+03  0.92257696162E+02 0.  0.
         23    2    1    2    0    0  0.40174876064E+02 -0.75423650521E+02 -0.97383547932E+02  0.15877944985E+03  0.91785677332E+02 0.  0.
        -13    1    4    4    0    0  0.34551053466E+02 -0.52546493478E+02 -0.46047497091E+01  0.63056427050E+02  0.00000000000E+00 0. -1.
         13    1    4    4    0    0  0.56238225989E+01 -0.22877157043E+02 -0.92778798223E+02  0.95723022804E+02  0.00000000000E+00 0.  1.
        -13    1    3    3    0    0 -0.14664352729E+01  0.66281831995E+02  0.12130881595E+03  0.13824348271E+03  0.00000000000E+00 0.  1.
         13    1    3    3    0    0 -0.36346436103E+02 -0.20523835344E+02  0.49358031193E+02  0.64641368162E+02  0.00000000000E+00 0. -1.
          2    1    1    2  501    0 -0.23620046884E+01  0.29665653870E+02 -0.18166890744E+03  0.18409025508E+03  0.00000000000E+00 0. -1.
<scales pt_clust_5="13000.00000" pt_clust_6="13000.00000" pt_clust_7="13000.00000" pt_clust_8="13000.00000" pt_clust_9="29.75954"></scales>
<clustering>
<clus scale="   29.760">  2  9  1 -1</clus>
<clus scale="   91.786">  5  6 -1 -1</clus>
<clus scale="   92.258">  7  8 -1 -1</clus>
<clus scale="  110.827">  2  5  1 -1</clus>
<clus scale="   29.760">  2  5  1 -1</clus>
</clustering>
</event>
<event>
 9    1  0.1426358E-005  0.9557707E+02  0.7546771E-02  0.1291147E+00
         21   -1    0    0  501  502  0.00000000000E+00  0.00000000000E+00  0.57414937502E+02  0.57414937502E+02  0.00000000000E+00 0.  1.
         -1   -1    0    0    0  501 -0.00000000000E+00 -0.00000000000E+00 -0.29280232245E+03  0.29280232245E+03  0.00000000000E+00 0.  1.
         23    2    1    2    0    0 -0.18757305490E+02 -0.22843530914E+02 -0.14052224892E+03  0.17104604252E+03  0.92933216905E+02 0.  0.
         23    2    1    2    0    0  0.20116711191E+02 -0.16999516428E+01 -0.11470932923E+03  0.14757972295E+03  0.90630968824E+02 0.  0.
        -13    1    4    4    0    0 -0.35876002491E+02  0.37193160096E+01 -0.37274952901E+02  0.51868516271E+02  0.00000000000E+00 0. -1.
         13    1    4    4    0    0  0.55992713682E+02 -0.54192676524E+01 -0.77434376325E+02  0.95711206680E+02  0.00000000000E+00 0.  1.
        -13    1    3    3    0    0 -0.28655015093E+02 -0.54830200629E+02 -0.10742385516E+03  0.12396509770E+03  0.00000000000E+00 0.  1.
         13    1    3    3    0    0  0.98977096028E+01  0.31986669715E+02 -0.33098393761E+02  0.47080944812E+02  0.00000000000E+00 0. -1.
         -1    1    1    2    0  502 -0.13594057010E+01  0.24543482556E+02  0.19844193203E+02  0.31591494484E+02  0.00000000000E+00 0.  1.
<scales pt_clust_5="13000.00000" pt_clust_6="13000.00000" pt_clust_7="13000.00000" pt_clust_8="13000.00000" pt_clust_9="24.58110"></scales>
<clustering>
<clus scale="   24.581">  1  9  2 -1</clus>
<clus scale="   90.631">  5  6 -1 -1</clus>
<clus scale="   92.933">  7  8 -1 -1</clus>
<clus scale="   93.340">  1  5  2 -1</clus>
<clus scale="   24.581">  1  5  2 -1</clus>
</clustering>
</event>
<event>
 9    1  0.1426358E-005  0.9539503E+02  0.7546771E-02  0.1291852E+00
          2   -1    0    0  502    0 -0.00000000000E+00  0.00000000000E+00  0.30306968132E+03  0.30306968132E+03  0.00000000000E+00 0. -1.
         21   -1    0    0  501  502  0.00000000000E+00 -0.00000000000E+00 -0.15967009969E+03  0.15967009969E+03  0.00000000000E+00 0. -1.
         23    2    1    2    0    0  0.20670304698E+02  0.47244043933E+01  0.21634301903E+03  0.23690074729E+03  0.94170487370E+02 0.  0.
         23    2    1    2    0    0  0.16477438013E+02  0.55652039454E+02  0.18820679248E+02  0.10988247778E+03  0.91385368067E+02 0.  0.
        -11    1    3    3    0    0 -0.19555190032E+02 -0.24955551412E+02  0.15278081800E+03  0.15603577587E+03  0.00000000000E+00 0.  1.
         11    1    3    3    0    0  0.40225494730E+02  0.29679955805E+02  0.63562201029E+02  0.80864971418E+02  0.00000000000E+00 0. -1.
        -11    1    4    4    0    0 -0.29079700999E+02  0.33320470938E+02  0.35247653073E+02  0.56553336249E+02  0.00000000000E+00 0.  1.
         11    1    4    4    0    0  0.45557139012E+02  0.22331568515E+02 -0.16426973825E+02  0.53329141530E+02  0.00000000000E+00 0. -1.
          2    1    1    2  501    0 -0.37147742711E+02 -0.60376443847E+02 -0.91764116649E+02  0.11595655594E+03  0.00000000000E+00 0. -1.
<scales pt_clust_5="13000.00000" pt_clust_6="13000.00000" pt_clust_7="13000.00000" pt_clust_8="13000.00000" pt_clust_9="70.88914"></scales>
<clustering>
<clus scale="   70.889">  2  9  1 -1</clus>
<clus scale="   91.385">  7  8 -1 -1</clus>
<clus scale="   92.647">  2  7  1 -1</clus>
<clus scale="   94.170">  5  6 -1 -1</clus>
<clus scale="   70.889">  2  5  1 -1</clus>
</clustering>
</event>
<event>
 9    1  0.1426358E-005  0.9345784E+02  0.7546771E-02  0.1310677E+00
         21   -1    0    0  501  502  0.00000000000E+00  0.00000000000E+00  0.12087121870E+03  0.12087121870E+03  0.00000000000E+00 0. -1.
         -3   -1    0    0    0  501 -0.00000000000E+00 -0.00000000000E+00 -0.10037421744E+03  0.10037421744E+03  0.00000000000E+00 0.  1.
         23    2    1    2    0    0 -0.10284706274E+02 -0.14151668526E+02 -0.25978152425E+02  0.94630837307E+02  0.89297738273E+02 0.  0.
         23    2    1    2    0    0  0.31447437736E+02  0.23467126294E+02  0.40729038953E+00  0.75069599217E+02  0.63997120908E+02 0.  0.
        -11    1    3    3    0    0  0.28432575333E+02 -0.26008205636E+02  0.10705399083E+02  0.39993045270E+02  0.00000000000E+00 0. -1.
         11    1    3    3    0    0 -0.38717281607E+02  0.11856537111E+02 -0.36683551509E+02  0.54637792036E+02  0.00000000000E+00 0.  1.
        -11    1    4    4    0    0 -0.19879847526E+02  0.66015433456E+01  0.17997750130E+01  0.21024459620E+02  0.00000000000E+00 0.  1.
         11    1    4    4    0    0  0.51327285263E+02  0.16865582949E+02 -0.13924846235E+01  0.54045139597E+02  0.00000000000E+00 0. -1.
         -3    1    1    2    0  502 -0.21162731462E+02 -0.93154577688E+01  0.46067863296E+02  0.51544999612E+02  0.00000000000E+00 0.  1.
<scales pt_clust_5="13000.00000" pt_clust_6="13000.00000" pt_clust_7="13000.00000" pt_clust_8="13000.00000" pt_clust_9="23.12226"></scales>
<clustering>
<clus scale="   23.122">  1  9  2 -1</clus>
<clus scale="   63.997">  7  8 -1 -1</clus>
<clus scale="   69.684">  1  7  2 -1</clus>
<clus scale="   89.298">  5  6 -1 -1</clus>
<clus scale="   23.122">  1  5  2 -1</clus>
</clustering>
</event>
<event>
 9    1  0.1426358E-005  0.1401922E+03  0.7546771E-02  0.1215566E+00
         21   -1    0    0  501  502  0.00000000000E+00  0.00000000000E+00  0.68390452741E+03  0.68390452741E+03  0.00000000000E+00 0.  1.
          1   -1    0    0  502    0 -0.00000000000E+00 -0.00000000000E+00 -0.76497452027E+02  0.76497452027E+02  0.00000000000E+00 0. -1.
         23    2    1    2    0    0 -0.26442206690E+02  0.92682239803E+02  0.26699937958E+02  0.13545951803E+03  0.91363047609E+02 0.  0.
         23    2    1    2    0    0  0.70399824107E+02 -0.80633603606E+02  0.55127752676E+03  0.57068802613E+03  0.10158739289E+03 0.  0.
        -11    1    3    3    0    0 -0.24025346815E+02  0.33983787808E+02 -0.31933445064E+02  0.52458174168E+02  0.00000000000E+00 0. -1.
         11    1    3    3    0    0 -0.24168598754E+01  0.58698451995E+02  0.58633383023E+02  0.83001343863E+02  0.00000000000E+00 0.  1.
        -13    1    4    4    0    0 -0.19966090252E+02  0.74828834835E+01  0.84136182072E+02  0.86795941373E+02  0.00000000000E+00 0. -1.
         13    1    4    4    0    0  0.90365914358E+02 -0.88116487090E+02  0.46714134469E+03  0.48389208476E+03  0.00000000000E+00 0.  1.
          1    1    1    2  501    0 -0.43957617417E+02 -0.12048636197E+02  0.29429610664E+02  0.54254435275E+02  0.00000000000E+00 0. -1.
<scales pt_clust_5="13000.00000" pt_clust_6="13000.00000" pt_clust_7="13000.00000" pt_clust_8="13000.00000" pt_clust_9="45.57898"></scales>
<clustering>
<clus scale="   45.579">  1  9  2 -1</clus>
<clus scale="   91.363">  5  6 -1 -1</clus>
<clus scale="  101.587">  7  8 -1 -1</clus>
<clus scale="  132.970">  2  5  1 -1</clus>
<clus scale="   45.579">  1  5  2 -1</clus>
</clustering>
</event>
<event>
 9    1  0.1426358E-005  0.1012149E+03  0.7546771E-02  0.1278921E+00
         21   -1    0    0  501  502  0.00000000000E+00  0.00000000000E+00  0.34266995735E+03  0.34266995735E+03  0.00000000000E+00 0. -1.
         -2   -1    0    0    0  501 -0.00000000000E+00 -0.00000000000E+00 -0.76938261367E+02  0.76938261367E+02  0.00000000000E+00 0.  1.
         23    2    1    2    0    0  0.83911878103E+01  0.43077552361E+02 -0.24631184793E+02  0.10454811389E+03  0.91638012327E+02 0.  0.
         23    2    1    2    0    0 -0.28057340633E+02 -0.31580708240E+02  0.24893189766E+03  0.26777943908E+03  0.89186225535E+02 0.  0.
        -13    1    4    4    0    0 -0.50408612480E+02 -0.40137011945E+02  0.22455746014E+03  0.23361947874E+03  0.00000000000E+00 0. -1.
         13    1    4    4    0    0  0.22351271847E+02  0.85563037054E+01  0.24374437515E+02  0.34159960340E+02  0.00000000000E+00 0.  1.
        -13    1    3    3    0    0  0.19459335770E+02 -0.25181289311E+02 -0.13228848744E+02  0.34463974221E+02  0.00000000000E+00 0. -1.
         13    1    3    3    0    0 -0.11068147960E+02  0.68258841673E+02 -0.11402336049E+02  0.70084139669E+02  0.00000000000E+00 0.  1.
         -2    1    1    2    0  502  0.19666152823E+02 -0.11496844121E+02  0.41430983120E+02  0.47280665751E+02  0.00000000000E+00 0.  1.
<scales pt_clust_5="13000.00000" pt_clust_6="13000.00000" pt_clust_7="13000.00000" pt_clust_8="13000.00000" pt_clust_9="22.78014"></scales>
<clustering>
<clus scale="   22.780">  1  9  2 -1</clus>
<clus scale="   89.186">  5  6 -1 -1</clus>
<clus scale="   91.638">  7  8 -1 -1</clus>
<clus scale="   99.001">  1  5  2 -1</clus>
<clus scale="   22.780">  1  5  2 -1</clus>
</clustering>
</event>
<event>
 9    1  0.1426358E-005  0.1122923E+03  0.7546771E-02  0.1265516E+00
          3   -1    0    0  502    0 -0.00000000000E+00  0.00000000000E+00  0.36376606075E+02  0.36376606075E+02  0.00000000000E+00 0. -1.
         21   -1    0    0  501  502  0.00000000000E+00 -0.00000000000E+00 -0.43023483526E+03  0.43023483526E+03  0.00000000000E+00 0.  1.
         23    2    1    2    0    0 -0.10197556529E+02  0.58285649833E+02 -0.11207146412E+03  0.16090621910E+03  0.99144294540E+02 0.  0.
         23    2    1    2    0    0  0.27509319497E+02 -0.37012106539E+02 -0.20018086879E+03  0.21961350900E+03  0.77659863601E+02 0.  0.
        -11    1    4    4    0    0 -0.14724760087E+02 -0.26489977235E+02 -0.25549625483E+02  0.39639889201E+02  0.00000000000E+00 0. -1.
         11    1    4    4    0    0  0.42234079584E+02 -0.10522129304E+02 -0.17463124331E+03  0.17997361980E+03  0.00000000000E+00 0.  1.
        -11    1    3    3    0    0  0.44240217495E+02  0.25921022943E+02 -0.40522623705E+02  0.65354260047E+02  0.00000000000E+00 0.  1.
         11    1    3    3    0    0 -0.54437774023E+02  0.32364626890E+02 -0.71548840420E+02  0.95551959057E+02  0.00000000000E+00 0. -1.
          3    1    1    2  501    0 -0.17311762968E+02 -0.21273543293E+02 -0.81605896267E+02  0.86091713230E+02  0.00000000000E+00 0. -1.
<scales pt_clust_5="13000.00000" pt_clust_6="13000.00000" pt_clust_7="13000.00000" pt_clust_8="13000.00000" pt_clust_9="27.42737"></scales>
<clustering>
<clus scale="   27.427">  2  9  1 -1</clus>
<clus scale="   77.660">  5  6 -1 -1</clus>
<clus scale="   93.867">  2  5  1 -1</clus>
<clus scale="   99.144">  7  8 -1 -1</clus>
<clus scale="   27.427">  2  5  1 -1</clus>
</clustering>
</event>
<event>
 9    1  0.1426358E-005  0.9685576E+02  0.7546771E-02  0.1287315E+00
          1   -1    0    0  502    0 -0.00000000000E+00  0.00000000000E+00  0.27870695762E+03  0.27870695762E+03  0.00000000000E+00 0. -1.
         21   -1    0    0  501  502  0.00000000000E+00 -0.00000000000E+00 -0.10858638926E+03  0.10858638926E+03  0.00000000000E+00 0. -1.
         23    2    1    2    0    0 -0.28092006497E+02  0.16674900753E+02  0.11892735866E+03  0.15373664533E+03  0.91782494706E+02 0.  0.
         23    2    1    2    0    0 -0.12097641279E+02 -0.43943690491E+02  0.11476510195E+03  0.15355557551E+03  0.91273683429E+02 0.  0.
        -11    1    3    3    0    0  0.32722142934E+02  0.98130828473E+01  0.58419563063E+02  0.67674814973E+02  0.00000000000E+00 0.  1.
         11    1    3    3    0    0 -0.60814149431E+02  0.68618179058E+01  0.60507795602E+02  0.86061830358E+02  0.00000000000E+00 0. -1.
        -13    1    4    4    0    0 -0.39789084796E+02 -0.30254796820E+02  0.11187095243E+03  0.12253013506E+03  0.00000000000E+00 0. -1.
         13    1    4    4    0    0  0.27691443517E+02 -0.13688893671E+02  0.28941495206E+01  0.31025440455E+02  0.00000000000E+00 0.  1.
          1    1    1    2  501    0  0.40189647776E+02  0.27268789738E+02 -0.63571892251E+02  0.80001126032E+02  0.00000000000E+00 0. -1.
<scales pt_clust_5="13000.00000" pt_clust_6="13000.00000" pt_clust_7="13000.00000" pt_clust_8="13000.00000" pt_clust_9="48.56742"></scales>
<clustering>
<clus scale="   48.567">  2  9  1 -1</clus>
<clus scale="   91.274">  7  8 -1 -1</clus>
<clus scale="   91.782">  5  6 -1 -1</clus>
<clus scale="   96.374">  2  7  1 -1</clus>
<clus scale="   48.567">  2  5  1 -1</clus>
</clustering>
</event>
<event>
 9    1  0.1426358E-005  0.1062146E+03  0.7546771E-02  0.1270159E+00
         21   -1    0    0  501  502  0.00000000000E+00  0.00000000000E+00  0.87755558411E+02  0.87755558411E+02  0.00000000000E+00 0.  1.
         -3   -1    0    0    0  501 -0.00000000000E+00 -0.00000000000E+00 -0.29992682326E+03  0.29992682326E+03  0.00000000000E+00 0.  1.
         23    2    1    2    0    0 -0.19183510354E+02  0.43845534323E+02 -0.20071419463E+03  0.22810302671E+03  0.97233558611E+02 0.  0.
         23    2    1    2    0    0 -0.30152223975E+02 -0.32047179937E+02  0.13943802048E+02  0.10284823334E+03  0.91908384458E+02 0.  0.
        -11    1    3    3    0    0  0.23270963480E+01  0.70936857969E+02 -0.15746407164E+03  0.17272054613E+03  0.00000000000E+00 0.  1.
         11    1    3    3    0    0 -0.21510606702E+02 -0.27091323646E+02 -0.43250122991E+02  0.55382480590E+02  0.00000000000E+00 0. -1.
        -11    1    4    4    0    0 -0.38868994703E+02  0.21979737439E+02 -0.50099002953E+01  0.44933358522E+02  0.00000000000E+00 0.  1.
         11    1    4    4    0    0  0.87167707280E+01 -0.54026917375E+02  0.18953702343E+02  0.57914874821E+02  0.00000000000E+00 0. -1.
         -3    1    1    2    0  502  0.49335734329E+02 -0.11798354387E+02 -0.25400872269E+02  0.56731121618E+02  0.00000000000E+00 0.  1.
<scales pt_clust_5="13000.00000" pt_clust_6="13000.00000" pt_clust_7="13000.00000" pt_clust_8="13000.00000" pt_clust_9="50.72688"></scales>
<clustering>
<clus scale="   50.727">  1  9  2 -1</clus>
<clus scale="   91.908">  7  8 -1 -1</clus>
<clus scale="   97.234">  5  6 -1 -1</clus>
<clus scale="  101.362">  1  7  2 -1</clus>
<clus scale="   50.727">  1  5  2 -1</clus>
</clustering>
</event>
<event>
 9    1  0.1426358E-005  0.1504198E+03  0.7546771E-02  0.1200201E+00
         21   -1    0    0  501  502  0.00000000000E+00  0.00000000000E+00  0.57678010916E+03  0.57678010916E+03  0.00000000000E+00 0. -1.
         -1   -1    0    0    0  501 -0.00000000000E+00 -0.00000000000E+00 -0.59521147331E+02  0.59521147331E+02  0.00000000000E+00 0.  1.
         23    2    1    2    0    0 -0.57927430269E+02  0.13049161493E+03  0.15450099965E+03  0.22901629265E+03  0.90522122505E+02 0.  0.
         23    2    1    2    0    0  0.18177010811E+02 -0.89761790586E+02  0.23815315939E+03  0.27029820785E+03  0.89199837817E+02 0.  0.
        -11    1    4    4    0    0 -0.31039224246E+02 -0.85826625808E+01  0.48601974286E+02  0.58303065471E+02  0.00000000000E+00 0. -1.
         11    1    4    4    0    0  0.49216235057E+02 -0.81179128006E+02  0.18955118511E+03  0.21199514238E+03  0.00000000000E+00 0.  1.
        -13    1    3    3    0    0 -0.32489026611E+02  0.97132302004E+02  0.45221180450E+02  0.11196060068E+03  0.00000000000E+00 0.  1.
         13    1    3    3    0    0 -0.25438403658E+02  0.33359312928E+02  0.10927981920E+03  0.11705569198E+03  0.00000000000E+00 0. -1.
         -1    1    1    2    0  502  0.39750419459E+02 -0.40729824346E+02  0.12460480279E+03  0.13698675599E+03  0.00000000000E+00 0.  1.
<scales pt_clust_5="13000.00000" pt_clust_6="13000.00000" pt_clust_7="13000.00000" pt_clust_8="13000.00000" pt_clust_9="56.91234"></scales>
<clustering>
<clus scale="   56.912">  1  9  2 -1</clus>
<clus scale="   89.200">  5  6 -1 -1</clus>
<clus scale="   90.522">  7  8 -1 -1</clus>
<clus scale="  149.628">  1  5  2 -1</clus>
<clus scale="   56.912">  1  5  2 -1</clus>
</clustering>
</event>
<event>
 9    1  0.1426358E-005  0.1234548E+03  0.7546771E-02  0.1247559E+00
          1   -1    0    0  502    0 -0.00000000000E+00  0.00000000000E+00  0.57371706359E+03  0.57371706359E+03  0.00000000000E+00 0. -1.
         21   -1    0    0  501  502  0.00000000000E+00 -0.00000000000E+00 -0.96440030471E+02  0.96440030471E+02  0.00000000000E+00 0.  1.
         23    2    1    2    0    0 -0.48847896547E+02  0.28360984410E+01  0.49639288227E+03  0.51169485919E+03  0.11415592366E+03 0.  0.
         23    2    1    2    0    0  0.38097674870E+02  0.19825563001E+02  0.29960687762E+02  0.10334758491E+03  0.89098791890E+02 0.  0.
        -11    1    3    3    0    0  0.12942512094E+02  0.45939820362E+02  0.15990536695E+03  0.16687630777E+03  0.00000000000E+00 0.  1.
         11    1    3    3    0    0 -0.61790408640E+02 -0.43103721921E+02  0.33648751532E+03  0.34481855142E+03  0.00000000000E+00 0. -1.
        -13    1    4    4    0    0  0.38534414828E+02  0.40888029524E+02 -0.11032646823E+02  0.57257762622E+02  0.00000000000E+00 0.  1.
         13    1    4    4    0    0 -0.43673995843E+00 -0.21062466523E+02  0.40993334586E+02  0.46089822285E+02  0.00000000000E+00 0. -1.
          1    1    1    2  501    0  0.10750221677E+02 -0.22661661442E+02 -0.49076536910E+02  0.55114649962E+02  0.00000000000E+00 0. -1.
<scales pt_clust_5="13000.00000" pt_clust_6="13000.00000" pt_clust_7="13000.00000" pt_clust_8="13000.00000" pt_clust_9="25.08223"></scales>
<clustering>
<clus scale="   25.082">  2  9  1 -1</clus>
<clus scale="   89.099">  7  8 -1 -1</clus>
<clus scale="  100.738">  2  7  1 -1</clus>
<clus scale="  114.156">  5  6 -1 -1</clus>
<clus scale="   25.082">  2  5  1 -1</clus>
</clustering>
</event>
<event>
 9    1  0.1426358E-005  0.9908638E+02  0.7546771E-02  0.1283140E+00
         21   -1    0    0  501  502  0.00000000000E+00  0.00000000000E+00  0.12062810331E+03  0.12062810331E+03  0.00000000000E+00 0. -1.
          2   -1    0    0  502    0 -0.00000000000E+00 -0.00000000000E+00 -0.39080027852E+03  0.39080027852E+03  0.00000000000E+00 0. -1.
         23    2    1    2    0    0  0.27398533948E+02 -0.34490734120E+02 -0.18866451345E+03  0.21319387058E+03  0.88977735502E+02 0.  0.
         23    2    1    2    0    0 -0.38154362670E+02  0.96681813577E+01 -0.17491733126E+03  0.20098630647E+03  0.90830575753E+02 0.  0.
        -11    1    4    4    0    0  0.16799155064E+02  0.25264433728E+02 -0.11186160824E+03  0.11590307425E+03  0.00000000000E+00 0.  1.
         11    1    4    4    0    0 -0.54953517734E+02 -0.15596252370E+02 -0.63055723015E+02  0.85083232216E+02  0.00000000000E+00 0. -1.
        -13    1    3    3    0    0  0.31391113442E+02 -0.58116404981E+02 -0.89854252658E+02  0.11151997692E+03  0.00000000000E+00 0. -1.
         13    1    3    3    0    0 -0.39925794946E+01  0.23625670861E+02 -0.98810260794E+02  0.10167389366E+03  0.00000000000E+00 0.  1.
          2    1    1    2  501    0  0.10755828722E+02  0.24822552762E+02  0.93409669504E+02  0.97248204785E+02  0.00000000000E+00 0. -1.
<scales pt_clust_5="13000.00000" pt_clust_6="13000.00000" pt_clust_7="13000.00000" pt_clust_8="13000.00000" pt_clust_9="27.05267"></scales>
<clustering>
<clus scale="   27.053">  1  9  2 -1</clus>
<clus scale="   88.978">  7  8 -1 -1</clus>
<clus scale="   90.831">  5  6 -1 -1</clus>
<clus scale="   97.391">  2  7  1 -1</clus>
<clus scale="   27.053">  1  5  2 -1</clus>
</clustering>
</event>
<event>
 9    1  0.1426358E-005  0.1393009E+03  0.7546771E-02  0.1238583E+00
         -2   -1    0    0    0  501 -0.00000000000E+00  0.00000000000E+00  0.27467986886E+03  0.27467986886E+03  0.00000000000E+00 0.  1.
         21   -1    0    0  501  502  0.00000000000E+00 -0.00000000000E+00 -0.14053120045E+03  0.14053120045E+03  0.00000000000E+00 0. -1.
         23    2    1    2    0    0  0.49437607383E+02 -0.65472665537E+01  0.37017152080E+02  0.91855375423E+02  0.67677150671E+02 0.  0.
         23    2    1    2    0    0 -0.35065544730E+02  0.11021114592E+03  0.14623678446E+03  0.20775256490E+03  0.91650651835E+02 0.  0.
        -11    1    4    4    0    0  0.41113040333E+01  0.79776693212E+02  0.37526836943E+02  0.88258070972E+02  0.00000000000E+00 0.  1.
         11    1    4    4    0    0 -0.39176848764E+02  0.30434452711E+02  0.10870994752E+03  0.11949449393E+03  0.00000000000E+00 0. -1.
        -13    1    3    3    0    0  0.48709792042E+02 -0.29285453331E+02  0.39136765134E+02  0.69007014156E+02  0.00000000000E+00 0.  1.
         13    1    3    3    0    0  0.72781534076E+00  0.22738186778E+02 -0.21196130539E+01  0.22848361267E+02  0.00000000000E+00 0. -1.
         -2    1    1    2    0  502 -0.14372062652E+02 -0.10366387937E+03 -0.49105268128E+02  0.11560312897E+03  0.00000000000E+00 0.  1.
<scales pt_clust_5="13000.00000" pt_clust_6="13000.00000" pt_clust_7="13000.00000" pt_clust_8="13000.00000" pt_clust_9="104.90421"></scales>
<clustering>
<clus scale="   67.677">  7  8 -1 -1</clus>
<clus scale="   84.066">  1  7  2 -1</clus>
<clus scale="   91.651">  5  6 -1 -1</clus>
<clus scale="  104.904">  2  9  1 -1</clus>
<clus scale="  104.904">  2  5  1 -1</clus>
</clustering>
</event>
<event>
 9    1  0.1426358E-005  0.1009890E+03  0.7546771E-02  0.1282171E+00
         21   -1    0    0  501  502  0.00000000000E+00  0.00000000000E+00  0.16628363697E+03  0.16628363697E+03  0.00000000000E+00 0. -1.
         -2   -1    0    0    0  501 -0.00000000000E+00 -0.00000000000E+00 -0.11815260100E+03  0.11815260100E+03  0.00000000000E+00 0.  1.
         23    2    1    2    0    0  0.23628998613E+02 -0.14125433526E+02  0.80657338295E+01  0.10247074901E+03  0.98373476566E+02 0.  0.
         23    2    1    2    0    0 -0.23366757223E+01 -0.51389935525E+02  0.46892133910E+01  0.10452458084E+03  0.90868111854E+02 0.  0.
        -13    1    4    4    0    0  0.41107840496E+02 -0.42951489358E+02  0.87015554144E+01  0.60086621264E+02  0.00000000000E+00 0. -1.
         13    1    4    4    0    0 -0.43444516219E+02 -0.84384461666E+01 -0.40123420235E+01  0.44437959581E+02  0.00000000000E+00 0.  1.
        -13    1    3    3    0    0 -0.10617793711E+02 -0.25211524153E+02  0.43869586179E+02  0.51700087862E+02  0.00000000000E+00 0. -1.
         13    1    3    3    0    0  0.34246792324E+02  0.11086090627E+02 -0.35803852350E+02  0.50770661143E+02  0.00000000000E+00 0.  1.
         -2    1    1    2    0  502 -0.21292322891E+02  0.65515369051E+02  0.35376088744E+02  0.77440908122E+02  0.00000000000E+00 0.  1.
<scales pt_clust_5="13000.00000" pt_clust_6="13000.00000" pt_clust_7="13000.00000" pt_clust_8="13000.00000" pt_clust_9="68.88851"></scales>
<clustering>
<clus scale="   68.889">  1  9  2 -1</clus>
<clus scale="   90.868">  5  6 -1 -1</clus>
<clus scale="   93.693">  1  5  2 -1</clus>
<clus scale="   98.373">  7  8 -1 -1</clus>
<clus scale="   68.889">  1  5  2 -1</clus>
</clustering>
</event>
<event>
 9    1  0.1543865E-005  0.1691708E+03  0.7546771E-02  0.1194788E+00
          1   -1    0    0  502    0 -0.00000000000E+00  0.00000000000E+00  0.22683854313E+03  0.22683854313E+03  0.00000000000E+00 0. -1.
         21   -1    0    0  501  502  0.00000000000E+00 -0.00000000000E+00 -0.70171223676E+03  0.70171223676E+03  0.00000000000E+00 0. -1.
         23    2    1    2    0    0  0.74288313474E+02 -0.30075884961E+00 -0.11597190923E+03  0.16571145963E+03  0.92151832024E+02 0.  0.
         23    2    1    2    0    0  0.49042939416E+02 -0.81238398354E+02  0.17010459698E+03  0.21356071734E+03  0.87565511505E+02 0.  0.
        -13    1    3    3    0    0  0.95755220193E+02 -0.53061289009E+00 -0.10296772545E+03  0.14061186376E+03  0.00000000000E+00 0. -1.
         13    1    3    3    0    0 -0.21466906720E+02  0.22985404048E+00 -0.13004183784E+02  0.25099595871E+02  0.00000000000E+00 0.  1.
        -13    1    4    4    0    0 -0.15652910937E+02 -0.23304135116E+02  0.93953119681E+02  0.98057559791E+02  0.00000000000E+00 0.  1.
         13    1    4    4    0    0  0.64695850353E+02 -0.57934263238E+02  0.76151477297E+02  0.11550315755E+03  0.00000000000E+00 0. -1.
          1    1    1    2  501    0 -0.12333125289E+03  0.81539157204E+02 -0.52900638137E+03  0.54927860292E+03  0.00000000000E+00 0. -1.
<scales pt_clust_5="13000.00000" pt_clust_6="13000.00000" pt_clust_7="13000.00000" pt_clust_8="13000.00000" pt_clust_9="144.74476"></scales>
<clustering>
<clus scale="   87.566">  7  8 -1 -1</clus>
<clus scale="   92.152">  5  6 -1 -1</clus>
<clus scale="  118.367">  1  5  2 -1</clus>
<clus scale="  144.745">  2  9  1 -1</clus>
<clus scale="  144.745">  2  5  1 -1</clus>
</clustering>
</event>
<event>
 9    1  0.1426358E-005  0.1282379E+03  0.7546771E-02  0.1245757E+00
          1   -1    0    0  502    0 -0.00000000000E+00  0.00000000000E+00  0.82766146455E+03  0.82766146455E+03  0.00000000000E+00 0. -1.
         21   -1    0    0  501  502  0.00000000000E+00 -0.00000000000E+00 -0.56149660158E+02  0.56149660158E+02  0.00000000000E+00 0. -1.
         23    2    1    2    0    0 -0.19204152020E+02 -0.14762673484E+02  0.13314442355E+02  0.94140014637E+02  0.89990732842E+02 0.  0.
         23    2    1    2    0    0  0.20724599547E+02 -0.82103030865E+02  0.43030052008E+03  0.44776232778E+03  0.90344606356E+02 0.  0.
        -13    1    3    3    0    0 -0.15126920569E+02  0.31907464373E+02 -0.16115391192E+02  0.38815149644E+02  0.00000000000E+00 0.  1.
         13    1    3    3    0    0 -0.40772314511E+01 -0.46670137857E+02  0.29429833547E+02  0.55324864993E+02  0.00000000000E+00 0. -1.
        -13    1    4    4    0    0 -0.34289014893E+02 -0.35379219005E+02  0.13319655495E+03  0.14201671708E+03  0.00000000000E+00 0.  1.
         13    1    4    4    0    0  0.55013614440E+02 -0.46723811860E+02  0.29710396513E+03  0.30574561071E+03  0.00000000000E+00 0. -1.
          1    1    1    2  501    0 -0.15204475272E+01  0.96865704349E+02  0.32789684196E+03  0.34190878229E+03  0.00000000000E+00 0. -1.
<scales pt_clust_5="13000.00000" pt_clust_6="13000.00000" pt_clust_7="13000.00000" pt_clust_8="13000.00000" pt_clust_9="91.01003"></scales>
<clustering>
<clus scale="   89.991">  5  6 -1 -1</clus>
<clus scale="   90.345">  7  8 -1 -1</clus>
<clus scale="   93.194">  1  5  2 -1</clus>
<clus scale="   91.010">  2  9  1 -1</clus>
<clus scale="   91.010">  2  5  1 -1</clus>
</clustering>
</event>
<event>
 9    1  0.1426358E-005  0.1028637E+03  0.7546771E-02  0.1279644E+00
         21   -1    0    0  501  502  0.00000000000E+00  0.00000000000E+00  0.11197555562E+03  0.11197555562E+03  0.00000000000E+00 0. -1.
          1   -1    0    0  502    0 -0.00000000000E+00 -0.00000000000E+00 -0.19945556538E+03  0.19945556538E+03  0.00000000000E+00 0. -1.
         23    2    1    2    0    0  0.57014669758E+01  0.11926621294E+02 -0.93885949793E+02  0.13874373670E+03  0.10129413549E+03 0.  0.
         23    2    1    2    0    0 -0.27404271657E+02 -0.58723156858E+01 -0.52956564691E+02  0.10919271276E+03  0.91286212430E+02 0.  0.
        -11    1    3    3    0    0 -0.51479012080E+01 -0.41887727547E+02 -0.62779369336E+02  0.75646095868E+02  0.00000000000E+00 0.  1.
         11    1    3    3    0    0  0.10849368184E+02  0.53814348841E+02 -0.31106580457E+02  0.63097640834E+02  0.00000000000E+00 0. -1.
        -13    1    4    4    0    0  0.24977526492E+02  0.61882798713E+01 -0.48937202947E+02  0.55290337942E+02  0.00000000000E+00 0.  1.
         13    1    4    4    0    0 -0.52381798148E+02 -0.12060595557E+02 -0.40193617439E+01  0.53902374820E+02  0.00000000000E+00 0. -1.
          1    1    1    2  501    0  0.21702804681E+02 -0.60543056079E+01  0.59362504719E+02  0.63494671539E+02  0.00000000000E+00 0. -1.
<scales pt_clust_5="13000.00000" pt_clust_6="13000.00000" pt_clust_7="13000.00000" pt_clust_8="13000.00000" pt_clust_9="22.53145"></scales>
<clustering>
<clus scale="   22.531">  1  9  2 -1</clus>
<clus scale="   91.286">  7  8 -1 -1</clus>
<clus scale="   93.025">  1  7  2 -1</clus>
<clus scale="  101.294">  5  6 -1 -1</clus>
<clus scale="   22.531">  1  5  2 -1</clus>
</clustering>
</event>
<event>
 9    1  0.1426358E-005  0.9706184E+02  0.7546771E-02  0.1291464E+00
         21   -1    0    0  501  502  0.00000000000E+00  0.00000000000E+00  0.22839439617E+03  0.22839439617E+03  0.00000000000E+00 0. -1.
          2   -1    0    0  502    0 -0.00000000000E+00 -0.00000000000E+00 -0.12684616592E+03  0.12684616592E+03  0.00000000000E+00 0. -1.
         23    2    1    2    0    0  0.26917405271E+02  0.52389211326E+01 -0.86077426977E+02  0.12917245597E+03  0.92326631837E+02 0.  0.
         23    2    1    2    0    0 -0.51490610057E+02 -0.29271678855E+01  0.16807981079E+03  0.19458435302E+03  0.83381031471E+02 0.  0.
        -11    1    4    4    0    0 -0.67716112408E+02 -0.20618852101E+02  0.10097388116E+03  0.12331396360E+03  0.00000000000E+00 0. -1.
         11    1    4    4    0    0  0.16225502352E+02  0.17691684215E+02  0.67105929628E+02  0.71270389420E+02  0.00000000000E+00 0.  1.
        -13    1    3    3    0    0 -0.31270385820E+02 -0.15000163949E+02 -0.32390661856E+02  0.47455209654E+02  0.00000000000E+00 0.  1.
         13    1    3    3    0    0  0.58187791091E+02  0.20239085082E+02 -0.53686765121E+02  0.81717246320E+02  0.00000000000E+00 0. -1.
          2    1    1    2  501    0  0.24573204786E+02 -0.23117532471E+01  0.19545846441E+02  0.31483753106E+02  0.00000000000E+00 0. -1.
<scales pt_clust_5="13000.00000" pt_clust_6="13000.00000" pt_clust_7="13000.00000" pt_clust_8="13000.00000" pt_clust_9="24.68171"></scales>
<clustering>
<clus scale="   24.682">  1  9  2 -1</clus>
<clus scale="   83.381">  5  6 -1 -1</clus>
<clus scale="   88.596">  1  5  2 -1</clus>
<clus scale="   92.327">  7  8 -1 -1</clus>
<clus scale="   24.682">  1  5  2 -1</clus>
</clustering>
</event>
<event>
 9    1  0.1426358E-005  0.1281783E+03  0.7546771E-02  0.1230949E+00
         21   -1    0    0  501  502  0.00000000000E+00  0.00000000000E+00  0.14661508688E+03  0.14661508688E+03  0.00000000000E+00 0. -1.
          1   -1    0    0  502    0 -0.00000000000E+00 -0.00000000000E+00 -0.21081291329E+03  0.21081291329E+03  0.00000000000E+00 0. -1.
         23    2    1    2    0    0  0.78641817402E+02  0.40747618484E+02 -0.11244674869E+03  0.16792793051E+03  0.87810105910E+02 0.  0.
         23    2    1    2    0    0 -0.67435022606E+02 -0.79112462187E+02  0.55846126080E+02  0.14881627697E+03  0.90671001686E+02 0.  0.
        -11    1    4    4    0    0 -0.42177172001E+02 -0.14524796470E+02  0.65030850248E+02  0.78859971053E+02  0.00000000000E+00 0.  1.
         11    1    4    4    0    0 -0.25257850605E+02 -0.64587665717E+02 -0.91847241677E+01  0.69956305920E+02  0.00000000000E+00 0. -1.
        -11    1    3    3    0    0  0.54461730867E+02  0.68733345912E+02 -0.81072337376E+02  0.11942812423E+03  0.00000000000E+00 0.  1.
         11    1    3    3    0    0  0.24180086535E+02 -0.27985727428E+02 -0.31374411312E+02  0.48499806285E+02  0.00000000000E+00 0. -1.
          1    1    1    2  501    0 -0.11206794796E+02  0.38364843702E+02 -0.75972038018E+01  0.40683792689E+02  0.00000000000E+00 0. -1.
<scales pt_clust_5="13000.00000" pt_clust_6="13000.00000" pt_clust_7="13000.00000" pt_clust_8="13000.00000" pt_clust_9="39.96818"></scales>
<clustering>
<clus scale="   39.968">  1  9  2 -1</clus>
<clus scale="   87.810">  7  8 -1 -1</clus>
<clus scale="   90.671">  5  6 -1 -1</clus>
<clus scale="  126.171">  2  7  1 -1</clus>
<clus scale="   39.968">  1  5  2 -1</clus>
</clustering>
</event>
<event>
 9    1  0.1426358E-005  0.1533421E+03  0.7546771E-02  0.1203910E+00
         21   -1    0    0  501  502  0.00000000000E+00  0.00000000000E+00  0.98936164353E+03  0.98936164353E+03  0.00000000000E+00 0.  1.
         -4   -1    0    0    0  501 -0.00000000000E+00 -0.00000000000E+00 -0.98257659834E+02  0.98257659834E+02  0.00000000000E+00 0.  1.
         23    2    1    2    0    0  0.17793037363E+01  0.93874978004E+02 -0.16744820910E+02  0.13141123376E+03  0.90403793691E+02 0.  0.
         23    2    1    2    0    0 -0.72889036665E+02  0.59642248916E+02  0.40187682467E+03  0.42269914038E+03  0.91101984352E+02 0.  0.
        -11    1    4    4    0    0 -0.92042870857E+02  0.40091536603E+02  0.27118431306E+03  0.28917149416E+03  0.00000000000E+00 0.  1.
         11    1    4    4    0    0  0.19153834192E+02  0.19550712312E+02  0.13069251161E+03  0.13352764622E+03  0.00000000000E+00 0. -1.
        -13    1    3    3    0    0 -0.35063939399E+02  0.56315154077E+02 -0.35887023126E+02  0.75423834785E+02  0.00000000000E+00 0. -1.
         13    1    3    3    0    0  0.36843243135E+02  0.37559823927E+02  0.19142202216E+02  0.55987398973E+02  0.00000000000E+00 0.  1.
         -4    1    1    2    0  502  0.71109732929E+02 -0.15351722692E+03  0.50597197993E+03  0.53350892922E+03  0.00000000000E+00 0.  1.
<scales pt_clust_5="13000.00000" pt_clust_6="13000.00000" pt_clust_7="13000.00000" pt_clust_8="13000.00000" pt_clust_9="123.34600"></scales>
<clustering>
<clus scale="   90.404">  7  8 -1 -1</clus>
<clus scale="   91.102">  5  6 -1 -1</clus>
<clus scale="  130.340">  2  7  1 -1</clus>
<clus scale="  123.346">  1  9  2 -1</clus>
<clus scale="  123.346">  1  5  2 -1</clus>
</clustering>
</event>
<event>
 9    1  0.1426358E-005  0.9400013E+02  0.7546771E-02  0.1294492E+00
          4   -1    0    0  502    0 -0.00000000000E+00  0.00000000000E+00  0.11251141219E+03  0.11251141219E+03  0.00000000000E+00 0. -1.
         21   -1    0    0  501  502  0.00000000000E+00 -0.00000000000E+00 -0.19125434251E+03  0.19125434251E+03  0.00000000000E+00 0.  1.
         23    2    1    2    0    0  0.49981178438E+02  0.10160452937E+02  0.15263123086E+02  0.10361097306E+03  0.88887107103E+02 0.  0.
         23    2    1    2    0    0  0.67474248042E+01 -0.96486562819E+01 -0.13843961201E+01  0.91540013950E+02  0.90769120805E+02 0.  0.
        -13    1    3    3    0    0  0.22385440755E+02  0.26090165786E+02 -0.31764169805E+02  0.46805632053E+02  0.00000000000E+00 0.  1.
         13    1    3    3    0    0  0.27595737682E+02 -0.15929712849E+02  0.47027292891E+02  0.56805341002E+02  0.00000000000E+00 0. -1.
        -13    1    4    4    0    0  0.44587144738E+02 -0.15898198004E+01  0.18190700389E+02  0.48181350993E+02  0.00000000000E+00 0.  1.
         13    1    4    4    0    0 -0.37839719933E+02 -0.80588364815E+01 -0.19575096509E+02  0.43358662957E+02  0.00000000000E+00 0. -1.
          4    1    1    2  501    0 -0.56728603242E+02 -0.51179665514E+00 -0.92621657285E+02  0.10861476769E+03  0.00000000000E+00 0. -1.
<scales pt_clust_5="13000.00000" pt_clust_6="13000.00000" pt_clust_7="13000.00000" pt_clust_8="13000.00000" pt_clust_9="56.73091"></scales>
<clustering>
<clus scale="   56.731">  2  9  1 -1</clus>
<clus scale="   88.887">  5  6 -1 -1</clus>
<clus scale="   90.769">  7  8 -1 -1</clus>
<clus scale="   92.184">  1  5  2 -1</clus>
<clus scale="   56.731">  2  5  1 -1</clus>
</clustering>
</event>
<event>
 9    1  0.1426358E-005  0.1139090E+03  0.7546771E-02  0.1258047E+00
          1   -1    0    0  502    0 -0.00000000000E+00  0.00000000000E+00  0.72710768055E+02  0.72710768055E+02  0.00000000000E+00 0. -1.
         21   -1    0    0  501  502  0.00000000000E+00 -0.00000000000E+00 -0.35846474798E+03  0.35846474798E+03  0.00000000000E+00 0.  1.
         23    2    1    2    0    0 -0.50868954413E+02 -0.29655110172E+02 -0.83213483317E+01  0.10990161965E+03  0.92423184766E+02 0.  0.
         23    2    1    2    0    0  0.83593095571E+02  0.46838534697E+02 -0.20700520191E+03  0.24173672052E+03  0.80023961835E+02 0.  0.
        -11    1    3    3    0    0 -0.14361245494E+02  0.21238563851E+02 -0.33680924832E+02  0.42328792377E+02  0.00000000000E+00 0.  1.
         11    1    3    3    0    0 -0.36507708919E+02 -0.50893674023E+02  0.25359576500E+02  0.67572827278E+02  0.00000000000E+00 0. -1.
        -11    1    4    4    0    0  0.47676356721E+02  0.55659575577E+02 -0.75869768032E+02  0.10548575755E+03  0.00000000000E+00 0. -1.
         11    1    4    4    0    0  0.35916738850E+02 -0.88210408796E+01 -0.13113543388E+03  0.13625096297E+03  0.00000000000E+00 0.  1.
          1    1    1    2  501    0 -0.32724141158E+02 -0.17183424526E+02 -0.70427429680E+02  0.79537175863E+02  0.00000000000E+00 0. -1.
<scales pt_clust_5="13000.00000" pt_clust_6="13000.00000" pt_clust_7="13000.00000" pt_clust_8="13000.00000" pt_clust_9="36.96132"></scales>
<clustering>
<clus scale="   36.961">  2  9  1 -1</clus>
<clus scale="   80.024">  7  8 -1 -1</clus>
<clus scale="   92.423">  5  6 -1 -1</clus>
<clus scale="  104.101">  2  7  1 -1</clus>
<clus scale="   36.961">  2  5  1 -1</clus>
</clustering>
</event>
<event>
 9    1  0.1426358E-005  0.2012641E+03  0.7546771E-02  0.1148979E+00
          2   -1    0    0  502    0 -0.00000000000E+00  0.00000000000E+00  0.12427879161E+04  0.12427879161E+04  0.00000000000E+00 0. -1.
         21   -1    0    0  501  502  0.00000000000E+00 -0.00000000000E+00 -0.39774434428E+02  0.39774434428E+02  0.00000000000E+00 0. -1.
         23    2    1    2    0    0  0.87247092377E+02 -0.15639189620E+03  0.61019191968E+03  0.64277843116E+03  0.93591946242E+02 0.  0.
         23    2    1    2    0    0 -0.10639395415E+03  0.14274723386E+03  0.57909314046E+03  0.61255803674E+03  0.90454611785E+02 0.  0.
        -11    1    3    3    0    0  0.36767206128E+02 -0.64023943846E+02  0.11601310520E+03  0.13751339357E+03  0.00000000000E+00 0.  1.
         11    1    3    3    0    0  0.50479886249E+02 -0.92367952354E+02  0.49417881448E+03  0.50526503759E+03  0.00000000000E+00 0. -1.
        -13    1    4    4    0    0 -0.10473424127E+03  0.68556198105E+02  0.34684615962E+03  0.36874309761E+03  0.00000000000E+00 0.  1.
         13    1    4    4    0    0 -0.16597128819E+01  0.74191035758E+02  0.23224698084E+03  0.24381493913E+03  0.00000000000E+00 0. -1.
          2    1    1    2  501    0  0.19146861774E+02  0.13644662336E+02  0.13728421503E+02  0.27225882594E+02  0.00000000000E+00 0. -1.
<scales pt_clust_5="13000.00000" pt_clust_6="13000.00000" pt_clust_7="13000.00000" pt_clust_8="13000.00000" pt_clust_9="23.51126"></scales>
<clustering>
<clus scale="   23.511">  2  9  1 -1</clus>
<clus scale="   90.455">  7  8 -1 -1</clus>
<clus scale="   93.592">  5  6 -1 -1</clus>
<clus scale="  199.824">  2  7  1 -1</clus>
<clus scale="   23.511">  2  5  1 -1</clus>
</clustering>
</event>
<event>
 9    1  0.1426358E-005  0.9399409E+02  0.7546771E-02  0.1294005E+00
          1   -1    0    0  502    0 -0.00000000000E+00  0.00000000000E+00  0.14459213522E+03  0.14459213522E+03  0.00000000000E+00 0. -1.
         21   -1    0    0  501  502  0.00000000000E+00 -0.00000000000E+00 -0.96299077353E+02  0.96299077353E+02  0.00000000000E+00 0.  1.
         23    2    1    2    0    0 -0.16428806903E+02  0.12157155556E+02  0.68644448089E+02  0.11665651322E+03  0.92081375401E+02 0.  0.
         23    2    1    2    0    0  0.44779911619E+01  0.11896749480E+02 -0.68109655521E+01  0.94155546363E+02  0.93044573223E+02 0.  0.
        -11    1    3    3    0    0 -0.50032619837E+02 -0.15249857062E+01  0.62143885806E+02  0.79796310518E+02  0.00000000000E+00 0.  1.
         11    1    3    3    0    0  0.33603812934E+02  0.13682141262E+02  0.65005622831E+01  0.36860202702E+02  0.00000000000E+00 0. -1.
        -13    1    4    4    0    0  0.27670563510E+02 -0.29400639491E+02 -0.19905875509E+02  0.45014459535E+02  0.00000000000E+00 0.  1.
         13    1    4    4    0    0 -0.23192572348E+02  0.41297388971E+02  0.13094909956E+02  0.49141086829E+02  0.00000000000E+00 0. -1.
          1    1    1    2  501    0  0.11950815742E+02 -0.24053905036E+02 -0.13540424670E+02  0.30079152990E+02  0.00000000000E+00 0. -1.
<scales pt_clust_5="13000.00000" pt_clust_6="13000.00000" pt_clust_7="13000.00000" pt_clust_8="13000.00000" pt_clust_9="26.85912"></scales>
<clustering>
<clus scale="   26.859">  2  9  1 -1</clus>
<clus scale="   92.081">  5  6 -1 -1</clus>
<clus scale="   93.041">  1  5  2 -1</clus>
<clus scale="   93.045">  7  8 -1 -1</clus>
<clus scale="   26.859">  2  5  1 -1</clus>
</clustering>
</event>
<event>
 9    1  0.1426358E-005  0.1006191E+03  0.7546771E-02  0.1279390E+00
         21   -1    0    0  501  502  0.00000000000E+00  0.00000000000E+00  0.10563627488E+03  0.10563627488E+03  0.00000000000E+00 0.  1.
          2   -1    0    0  502    0 -0.00000000000E+00 -0.00000000000E+00 -0.13610396329E+03  0.13610396329E+03  0.00000000000E+00 0. -1.
         23    2    1    2    0    0  0.20026810509E+02 -0.36610961308E+02 -0.30027719991E+02  0.10444508212E+03  0.90915760918E+02 0.  0.
         23    2    1    2    0    0 -0.43863550147E+02  0.17461396838E+02  0.12826537492E+02  0.10396504722E+03  0.91734941913E+02 0.  0.
        -11    1    4    4    0    0 -0.57514128488E+02 -0.18319360252E+02  0.22579948511E+02  0.64446318828E+02  0.00000000000E+00 0. -1.
         11    1    4    4    0    0  0.13650578341E+02  0.35780757090E+02 -0.97534110183E+01  0.39518728389E+02  0.00000000000E+00 0.  1.
        -13    1    3    3    0    0  0.22178096600E+02  0.12499885067E+02  0.21432533590E+02  0.33278650688E+02  0.00000000000E+00 0.  1.
         13    1    3    3    0    0 -0.21512860912E+01 -0.49110846375E+02 -0.51460253582E+02  0.71166431428E+02  0.00000000000E+00 0. -1.
          2    1    1    2  501    0  0.23836739638E+02  0.19149564470E+02 -0.13266505914E+02  0.33330108838E+02  0.00000000000E+00 0. -1.
<scales pt_clust_5="13000.00000" pt_clust_6="13000.00000" pt_clust_7="13000.00000" pt_clust_8="13000.00000" pt_clust_9="30.57608"></scales>
<clustering>
<clus scale="   30.576">  1  9  2 -1</clus>
<clus scale="   90.916">  7  8 -1 -1</clus>
<clus scale="   91.735">  5  6 -1 -1</clus>
<clus scale="   99.873">  2  7  1 -1</clus>
<clus scale="   30.576">  1  5  2 -1</clus>
</clustering>
</event>
<event>
 9    1  0.1426358E-005  0.9210058E+02  0.7546771E-02  0.1298446E+00
          2   -1    0    0  502    0 -0.00000000000E+00  0.00000000000E+00  0.74490427346E+03  0.74490427346E+03  0.00000000000E+00 0. -1.
         21   -1    0    0  501  502  0.00000000000E+00 -0.00000000000E+00 -0.24916573494E+02  0.24916573494E+02  0.00000000000E+00 0.  1.
         23    2    1    2    0    0  0.57499061035E+01  0.37209491551E+02  0.38421586192E+03  0.39641057375E+03  0.90010592398E+02 0.  0.
         23    2    1    2    0    0 -0.43264790021E+01  0.16196570230E+02  0.28519070165E+03  0.29983932147E+03  0.91043039753E+02 0.  0.
        -11    1    4    4    0    0 -0.28641218090E+02 -0.20834606900E+02  0.20667859648E+03  0.20969130278E+03  0.00000000000E+00 0.  1.
         11    1    4    4    0    0  0.24314739088E+02  0.37031177130E+02  0.78512105164E+02  0.90148018691E+02  0.00000000000E+00 0. -1.
        -13    1    3    3    0    0  0.28079352729E+02  0.59488692072E+02  0.27242828844E+03  0.28025796488E+03  0.00000000000E+00 0. -1.
         13    1    3    3    0    0 -0.22329446625E+02 -0.22279200521E+02  0.11178757348E+03  0.11615260887E+03  0.00000000000E+00 0.  1.
          2    1    1    2  501    0 -0.14234271014E+01 -0.53406061781E+02  0.50581136392E+02  0.73570951729E+02  0.00000000000E+00 0. -1.
<scales pt_clust_5="13000.00000" pt_clust_6="13000.00000" pt_clust_7="13000.00000" pt_clust_8="13000.00000" pt_clust_9="53.42503"></scales>
<clustering>
<clus scale="   53.425">  2  9  1 -1</clus>
<clus scale="   90.011">  7  8 -1 -1</clus>
<clus scale="   91.043">  5  6 -1 -1</clus>
<clus scale="   91.080">  1  7  2 -1</clus>
<clus scale="   53.425">  2  5  1 -1</clus>
</clustering>
</event>
<event>
 9    1  0.1426358E-005  0.1047144E+03  0.7546771E-02  0.1271441E+00
         -1   -1    0    0    0  501 -0.00000000000E+00  0.00000000000E+00  0.18598613187E+03  0.18598613187E+03  0.00000000000E+00 0.  1.
         21   -1    0    0  501  502  0.00000000000E+00 -0.00000000000E+00 -0.10530186108E+03  0.10530186108E+03  0.00000000000E+00 0. -1.
         23    2    1    2    0    0 -0.38332907788E+02 -0.45184560404E+01  0.67806143520E+00  0.99211894196E+02  0.91393172164E+02 0.  0.
         23    2    1    2    0    0  0.58486244192E+02 -0.67570205982E+01  0.14212659211E+01  0.11016830502E+03  0.93106054295E+02 0.  0.
        -11    1    3    3    0    0  0.66951609041E+01  0.25509604531E+02  0.28101053655E+02  0.38538737906E+02  0.00000000000E+00 0. -1.
         11    1    3    3    0    0 -0.45028068692E+02 -0.30028060572E+02 -0.27422992220E+02  0.60673156290E+02  0.00000000000E+00 0.  1.
        -13    1    4    4    0    0  0.27207213717E+02  0.41153117847E+02 -0.13286332062E+02  0.51091469018E+02  0.00000000000E+00 0.  1.
         13    1    4    4    0    0  0.31279030475E+02 -0.47910138445E+02  0.14707597983E+02  0.59076835999E+02  0.00000000000E+00 0. -1.
         -1    1    1    2    0  502 -0.20153336404E+02  0.11275476639E+02  0.78584943425E+02  0.81907793736E+02  0.00000000000E+00 0.  1.
<scales pt_clust_5="13000.00000" pt_clust_6="13000.00000" pt_clust_7="13000.00000" pt_clust_8="13000.00000" pt_clust_9="23.09316"></scales>
<clustering>
<clus scale="   23.093">  2  9  1 -1</clus>
<clus scale="   91.393">  5  6 -1 -1</clus>
<clus scale="   93.106">  7  8 -1 -1</clus>
<clus scale="  103.194">  1  5  2 -1</clus>
<clus scale="   23.093">  2  5  1 -1</clus>
</clustering>
</event>
<event>
 9    1  0.1426358E-005  0.2653253E+03  0.7546771E-02  0.1104222E+00
         21   -1    0    0  501  502  0.00000000000E+00  0.00000000000E+00  0.30006065322E+03  0.30006065322E+03  0.00000000000E+00 0.  1.
          3   -1    0    0  502    0 -0.00000000000E+00 -0.00000000000E+00 -0.57311528309E+03  0.57311528309E+03  0.00000000000E+00 0. -1.
         23    2    1    2    0    0  0.14907298496E+03 -0.17949252690E+03 -0.35011415931E+03  0.43038327405E+03  0.90606379341E+02 0.  0.
         23    2    1    2    0    0 -0.22618268941E+03  0.23363927004E+03  0.81392841574E+02  0.34847111696E+03  0.95191423978E+02 0.  0.
        -13    1    4    4    0    0 -0.18482743997E+03  0.12698506218E+03  0.48296525682E+02  0.22938819275E+03  0.00000000000E+00 0.  1.
         13    1    4    4    0    0 -0.41355249446E+02  0.10665420787E+03  0.33096315892E+02  0.11908292421E+03  0.00000000000E+00 0. -1.
        -13    1    3    3    0    0  0.13767375312E+03 -0.10091763677E+03 -0.24691382882E+03  0.30017473340E+03  0.00000000000E+00 0. -1.
         13    1    3    3    0    0  0.11399231843E+02 -0.78574890135E+02 -0.10320033049E+03  0.13020854065E+03  0.00000000000E+00 0.  1.
          3    1    1    2  501    0  0.77109704451E+02 -0.54146743142E+02 -0.43333121326E+01  0.94321545298E+02  0.00000000000E+00 0. -1.
<scales pt_clust_5="13000.00000" pt_clust_6="13000.00000" pt_clust_7="13000.00000" pt_clust_8="13000.00000" pt_clust_9="94.22195"></scales>
<clustering>
<clus scale="   90.606">  7  8 -1 -1</clus>
<clus scale="   94.222">  1  9  2 -1</clus>
<clus scale="   95.191">  5  6 -1 -1</clus>
<clus scale="  263.715">  2  7  1 -1</clus>
<clus scale="   94.222">  1  5  2 -1</clus>
</clustering>
</event>
<event>
 9    1  0.1426358E-005  0.1010882E+03  0.7546771E-02  0.1279564E+00
          1   -1    0    0  502    0 -0.00000000000E+00  0.00000000000E+00  0.65578282071E+02  0.65578282071E+02  0.00000000000E+00 0. -1.
         21   -1    0    0  501  502  0.00000000000E+00 -0.00000000000E+00 -0.46598947077E+03  0.46598947077E+03  0.00000000000E+00 0. -1.
         23    2    1    2    0    0  0.10309344297E+02  0.62895413259E+02 -0.34064508069E+02  0.11665274953E+03  0.91571598620E+02 0.  0.
         23    2    1    2    0    0 -0.97648232850E+01  0.13123517293E+02 -0.10324539683E+03  0.14105105928E+03  0.94700638208E+02 0.  0.
        -11    1    3    3    0    0 -0.17994319752E+02 -0.11942398965E+02  0.11613188293E+02  0.24521063980E+02  0.00000000000E+00 0.  1.
         11    1    3    3    0    0  0.28303664049E+02  0.74837812224E+02 -0.45677696363E+02  0.92131685549E+02  0.00000000000E+00 0. -1.
        -13    1    4    4    0    0 -0.46008254961E+02  0.30366157120E+02 -0.68800979076E+02  0.88161430028E+02  0.00000000000E+00 0.  1.
         13    1    4    4    0    0  0.36243431676E+02 -0.17242639826E+02 -0.34444417758E+02  0.52889629253E+02  0.00000000000E+00 0. -1.
          1    1    1    2  501    0 -0.54452101231E+00 -0.76018930552E+02 -0.26310128379E+03  0.27386394403E+03  0.00000000000E+00 0. -1.
<scales pt_clust_5="13000.00000" pt_clust_6="13000.00000" pt_clust_7="13000.00000" pt_clust_8="13000.00000" pt_clust_9="76.02088"></scales>
<clustering>
<clus scale="   76.021">  2  9  1 -1</clus>
<clus scale="   91.572">  5  6 -1 -1</clus>
<clus scale="   94.701">  7  8 -1 -1</clus>
<clus scale="   98.163">  1  5  2 -1</clus>
<clus scale="   76.021">  2  5  1 -1</clus>
</clustering>
</event>
<event>
 9    1  0.1426358E-005  0.1555170E+03  0.7546771E-02  0.1194135E+00
         21   -1    0    0  501  502  0.00000000000E+00  0.00000000000E+00  0.25550805180E+02  0.25550805180E+02  0.00000000000E+00 0.  1.
          1   -1    0    0  502    0 -0.00000000000E+00 -0.00000000000E+00 -0.11024256845E+04  0.11024256845E+04  0.00000000000E+00 0. -1.
         23    2    1    2    0    0 -0.10765525211E+03 -0.49237531934E+02 -0.49021768503E+03  0.51223360167E+03  0.89754643893E+02 0.  0.
         23    2    1    2    0    0  0.11446877178E+03  0.71872672147E+02 -0.50222237245E+03  0.52806157437E+03  0.91394388384E+02 0.  0.
        -11    1    3    3    0    0 -0.19203708580E+02 -0.17199748307E+02 -0.19812698401E+02  0.32513947515E+02  0.00000000000E+00 0.  1.
         11    1    3    3    0    0 -0.88451543534E+02 -0.32037783627E+02 -0.47040498663E+03  0.47971965415E+03  0.00000000000E+00 0. -1.
        -11    1    4    4    0    0  0.32041450193E+02 -0.20780164077E+02 -0.95478431268E+02  0.10283287698E+03  0.00000000000E+00 0. -1.
         11    1    4    4    0    0  0.82427321583E+02  0.92652836224E+02 -0.40674394118E+03  0.42522869740E+03  0.00000000000E+00 0.  1.
          1    1    1    2  501    0 -0.68135196609E+01 -0.22635140213E+02 -0.84434821849E+02  0.87681313649E+02  0.00000000000E+00 0. -1.
<scales pt_clust_5="13000.00000" pt_clust_6="13000.00000" pt_clust_7="13000.00000" pt_clust_8="13000.00000" pt_clust_9="23.63840"></scales>
<clustering>
<clus scale="   23.638">  1  9  2 -1</clus>
<clus scale="   89.755">  5  6 -1 -1</clus>
<clus scale="   91.394">  7  8 -1 -1</clus>
<clus scale="  154.559">  2  5  1 -1</clus>
<clus scale="   23.638">  1  5  2 -1</clus>
</clustering>
</event>
<event>
 9    1  0.1426358E-005  0.1646986E+03  0.7546771E-02  0.1183793E+00
         21   -1    0    0  501  502  0.00000000000E+00  0.00000000000E+00  0.65908627231E+02  0.65908627231E+02  0.00000000000E+00 0.  1.
          1   -1    0    0  502    0 -0.00000000000E+00 -0.00000000000E+00 -0.91788903395E+03  0.91788903395E+03  0.00000000000E+00 0. -1.
         23    2    1    2    0    0 -0.13137969269E+03 -0.17573704921E+02 -0.69437206445E+03  0.71282830535E+03  0.91663352846E+02 0.  0.
         23    2    1    2    0    0  0.14826351196E+03  0.12958007975E+01 -0.17018389409E+03  0.24435774147E+03  0.93618373905E+02 0.  0.
        -11    1    4    4    0    0  0.43808626706E+01 -0.23758541671E+02 -0.48799233784E+02  0.54452047510E+02  0.00000000000E+00 0. -1.
         11    1    4    4    0    0  0.14388264929E+03  0.25054342468E+02 -0.12138466031E+03  0.18990569396E+03  0.00000000000E+00 0.  1.
        -13    1    3    3    0    0 -0.31296687822E+02  0.15507413174E+02 -0.57386737056E+02  0.67180355178E+02  0.00000000000E+00 0.  1.
         13    1    3    3    0    0 -0.10008300487E+03 -0.33081118095E+02 -0.63698532740E+03  0.64564795017E+03  0.00000000000E+00 0. -1.
          1    1    1    2  501    0 -0.16883819264E+02  0.16277904124E+02  0.12575551819E+02  0.26611614366E+02  0.00000000000E+00 0. -1.
<scales pt_clust_5="13000.00000" pt_clust_6="13000.00000" pt_clust_7="13000.00000" pt_clust_8="13000.00000" pt_clust_9="23.45279"></scales>
<clustering>
<clus scale="   23.453">  1  9  2 -1</clus>
<clus scale="   91.663">  7  8 -1 -1</clus>
<clus scale="   93.618">  5  6 -1 -1</clus>
<clus scale="  163.595">  2  7  1 -1</clus>
<clus scale="   23.453">  1  5  2 -1</clus>
</clustering>
</event>
<event>
 9    1  0.1426358E-005  0.1766082E+03  0.7546771E-02  0.1171216E+00
          1   -1    0    0  502    0 -0.00000000000E+00  0.00000000000E+00  0.18284852058E+03  0.18284852058E+03  0.00000000000E+00 0. -1.
         21   -1    0    0  501  502  0.00000000000E+00 -0.00000000000E+00 -0.32193947063E+03  0.32193947063E+03  0.00000000000E+00 0.  1.
         23    2    1    2    0    0 -0.57230168679E+02 -0.14115254748E+03  0.75860478298E+02  0.19238963705E+03  0.89775422068E+02 0.  0.
         23    2    1    2    0    0  0.82508535032E+02  0.12665421073E+03 -0.22101212091E+03  0.28263378515E+03  0.90479563837E+02 0.  0.
        -11    1    3    3    0    0 -0.77605652046E+02 -0.85029770834E+02  0.63300051484E+02  0.13137578040E+03  0.00000000000E+00 0. -1.
         11    1    3    3    0    0  0.20375483367E+02 -0.56122776651E+02  0.12560426814E+02  0.61013856649E+02  0.00000000000E+00 0.  1.
        -13    1    4    4    0    0  0.42147281936E+02  0.12009745956E+01 -0.35749169835E+02  0.55279642351E+02  0.00000000000E+00 0. -1.
         13    1    4    4    0    0  0.40361253096E+02  0.12545323614E+03 -0.18526295107E+03  0.22735414280E+03  0.00000000000E+00 0.  1.
          1    1    1    2  501    0 -0.25278366353E+02  0.14498336751E+02  0.60606925518E+01  0.29764569008E+02  0.00000000000E+00 0. -1.
<scales pt_clust_5="13000.00000" pt_clust_6="13000.00000" pt_clust_7="13000.00000" pt_clust_8="13000.00000" pt_clust_9="29.14101"></scales>
<clustering>
<clus scale="   29.141">  2  9  1 -1</clus>
<clus scale="   89.775">  5  6 -1 -1</clus>
<clus scale="   90.480">  7  8 -1 -1</clus>
<clus scale="  176.249">  1  5  2 -1</clus>
<clus scale="   29.141">  2  5  1 -1</clus>
</clustering>
</event>
<event>
 9    1  0.1426358E-005  0.1022479E+03  0.7546771E-02  0.1275968E+00
         -1   -1    0    0    0  501 -0.00000000000E+00  0.00000000000E+00  0.64233282015E+03  0.64233282015E+03  0.00000000000E+00 0.  1.
         21   -1    0    0  501  502  0.00000000000E+00 -0.00000000000E+00 -0.23411256470E+02  0.23411256470E+02  0.00000000000E+00 0. -1.
         23    2    1    2    0    0 -0.36103962690E+02 -0.23895697653E+02  0.26753427708E+03  0.28616600588E+03  0.91879774838E+02 0.  0.
         23    2    1    2    0    0  0.12331709786E+02  0.51801791260E+02  0.28175562639E+03  0.30088602429E+03  0.91162876062E+02 0.  0.
        -13    1    3    3    0    0  0.14980300938E+02  0.13506406005E+02  0.13284655945E+02  0.24151904748E+02  0.00000000000E+00 0. -1.
         13    1    3    3    0    0 -0.51084263629E+02 -0.37402103658E+02  0.25424962113E+03  0.26201410113E+03  0.00000000000E+00 0.  1.
        -13    1    4    4    0    0 -0.34431380775E+02  0.18522577608E+01  0.64891045909E+02  0.73483322462E+02  0.00000000000E+00 0.  1.
         13    1    4    4    0    0  0.46763090560E+02  0.49949533500E+02  0.21686458048E+03  0.22740270183E+03  0.00000000000E+00 0. -1.
         -1    1    1    2    0  502  0.23772252904E+02 -0.27906093607E+02  0.69631660218E+02  0.78692046442E+02  0.00000000000E+00 0.  1.
<scales pt_clust_5="13000.00000" pt_clust_6="13000.00000" pt_clust_7="13000.00000" pt_clust_8="13000.00000" pt_clust_9="36.65883"></scales>
<clustering>
<clus scale="   36.659">  2  9  1 -1</clus>
<clus scale="   91.163">  7  8 -1 -1</clus>
<clus scale="   91.880">  5  6 -1 -1</clus>
<clus scale="  101.604">  2  7  1 -1</clus>
<clus scale="   36.659">  2  5  1 -1</clus>
</clustering>
</event>
<event>
 9    1  0.1426358E-005  0.1051083E+03  0.7546771E-02  0.1270880E+00
          1   -1    0    0  502    0 -0.00000000000E+00  0.00000000000E+00  0.43649087838E+03  0.43649087838E+03  0.00000000000E+00 0. -1.
         21   -1    0    0  501  502  0.00000000000E+00 -0.00000000000E+00 -0.82269055781E+02  0.82269055781E+02  0.00000000000E+00 0.  1.
         23    2    1    2    0    0  0.94880549735E+01  0.29459819942E+02  0.18558016818E+03  0.20968673482E+03  0.92577663392E+02 0.  0.
         23    2    1    2    0    0 -0.47586537918E+01 -0.73411568027E+02  0.21529772739E+03  0.24480102388E+03  0.90346703145E+02 0.  0.
        -11    1    4    4    0    0 -0.78789610169E+01  0.18671898017E+02  0.18232317691E+02  0.27260506427E+02  0.00000000000E+00 0.  1.
         11    1    4    4    0    0  0.31203072252E+01 -0.92083466044E+02  0.19706540970E+03  0.21754051745E+03  0.00000000000E+00 0. -1.
        -13    1    3    3    0    0 -0.23822096582E+02 -0.25771259180E+01  0.66249952045E+01  0.24860097044E+02  0.00000000000E+00 0.  1.
         13    1    3    3    0    0  0.33310151556E+02  0.32036945860E+02  0.17895517297E+03  0.18482663777E+03  0.00000000000E+00 0. -1.
          1    1    1    2  501    0 -0.47294011817E+01  0.43951748085E+02 -0.46656072961E+02  0.64272175468E+02  0.00000000000E+00 0. -1.
<scales pt_clust_5="13000.00000" pt_clust_6="13000.00000" pt_clust_7="13000.00000" pt_clust_8="13000.00000" pt_clust_9="44.20547"></scales>
<clustering>
<clus scale="   44.205">  2  9  1 -1</clus>
<clus scale="   90.347">  5  6 -1 -1</clus>
<clus scale="   92.578">  7  8 -1 -1</clus>
<clus scale="  103.149">  2  5  1 -1</clus>
<clus scale="   44.205">  2  5  1 -1</clus>
</clustering>
</event>
<event>
 9    1  0.1426358E-005  0.1017146E+03  0.7546771E-02  0.1277473E+00
         21   -1    0    0  501  502  0.00000000000E+00  0.00000000000E+00  0.50082231228E+03  0.50082231228E+03  0.00000000000E+00 0. -1.
         -4   -1    0    0    0  501 -0.00000000000E+00 -0.00000000000E+00 -0.38343526401E+02  0.38343526401E+02  0.00000000000E+00 0.  1.
         23    2    1    2    0    0  0.36616026668E+02  0.25834982175E+02  0.59971377232E+02  0.11870946599E+03  0.92125954631E+02 0.  0.
         23    2    1    2    0    0 -0.21600828302E+02 -0.57869556006E+01  0.30997604646E+03  0.32459484474E+03  0.93683398832E+02 0.  0.
        -11    1    4    4    0    0 -0.38733476945E+02  0.29512937655E+02  0.23478219474E+03  0.23977901220E+03  0.00000000000E+00 0.  1.
         11    1    4    4    0    0  0.17132648643E+02 -0.35299893256E+02  0.75193851721E+02  0.84815832543E+02  0.00000000000E+00 0. -1.
        -11    1    3    3    0    0  0.62486390877E+02 -0.40939932625E+01  0.32551144281E+02  0.70575398119E+02  0.00000000000E+00 0. -1.
         11    1    3    3    0    0 -0.25870364210E+02  0.29928975438E+02  0.27420232951E+02  0.48134067875E+02  0.00000000000E+00 0.  1.
         -4    1    1    2    0  502 -0.15015198366E+02 -0.20048026575E+02  0.92531362195E+02  0.95861527951E+02  0.00000000000E+00 0.  1.
<scales pt_clust_5="13000.00000" pt_clust_6="13000.00000" pt_clust_7="13000.00000" pt_clust_8="13000.00000" pt_clust_9="25.04755"></scales>
<clustering>
<clus scale="   25.048">  1  9  2 -1</clus>
<clus scale="   92.126">  7  8 -1 -1</clus>
<clus scale="   93.683">  5  6 -1 -1</clus>
<clus scale="  100.282">  2  7  1 -1</clus>
<clus scale="   25.048">  1  5  2 -1</clus>
</clustering>
</event>
<event>
 9    1  0.1426358E-005  0.1092671E+03  0.7546771E-02  0.1262798E+00
         -3   -1    0    0    0  501 -0.00000000000E+00  0.00000000000E+00  0.13028096686E+03  0.13028096686E+03  0.00000000000E+00 0.  1.
         21   -1    0    0  501  502  0.00000000000E+00 -0.00000000000E+00 -0.13871058140E+03  0.13871058140E+03  0.00000000000E+00 0. -1.
         23    2    1    2    0    0 -0.51368269136E+02 -0.23100175856E+02  0.36056150945E+02  0.11103001695E+03  0.88630138463E+02 0.  0.
         23    2    1    2    0    0  0.74319507212E+02  0.36081220308E+01 -0.49501466592E+02  0.12743520252E+03  0.90845627029E+02 0.  0.
        -13    1    4    4    0    0  0.32665231377E+02  0.34402561726E+02  0.10064107109E+02  0.48495771426E+02  0.00000000000E+00 0.  1.
         13    1    4    4    0    0  0.41654275835E+02 -0.30794439696E+02 -0.59565573701E+02  0.78939431096E+02  0.00000000000E+00 0. -1.
        -13    1    3    3    0    0 -0.11954672935E+02  0.18359852487E+02  0.47845608786E+02  0.52623195156E+02  0.00000000000E+00 0. -1.
         13    1    3    3    0    0 -0.39413596201E+02 -0.41460028343E+02 -0.11789457840E+02  0.58406821793E+02  0.00000000000E+00 0.  1.
         -3    1    1    2    0  502 -0.22951238076E+02  0.19492053825E+02  0.50157011046E+01  0.30526328785E+02  0.00000000000E+00 0.  1.
<scales pt_clust_5="13000.00000" pt_clust_6="13000.00000" pt_clust_7="13000.00000" pt_clust_8="13000.00000" pt_clust_9="30.11147"></scales>
<clustering>
<clus scale="   30.111">  2  9  1 -1</clus>
<clus scale="   88.630">  7  8 -1 -1</clus>
<clus scale="   90.846">  5  6 -1 -1</clus>
<clus scale="  107.432">  1  7  2 -1</clus>
<clus scale="   30.111">  2  5  1 -1</clus>
</clustering>
</event>
<event>
 9    1  0.1426358E-005  0.9274390E+02  0.7546771E-02  0.1299107E+00
         -3   -1    0    0    0  501 -0.00000000000E+00  0.00000000000E+00  0.10410814424E+03  0.10410814424E+03  0.00000000000E+00 0.  1.
         21   -1    0    0  501  502  0.00000000000E+00 -0.00000000000E+00 -0.13221282788E+03  0.13221282788E+03  0.00000000000E+00 0. -1.
         23    2    1    2    0    0 -0.28528816138E+01  0.12403016183E+02  0.33937537938E+02  0.94446406031E+02  0.87214639751E+02 0.  0.
         23    2    1    2    0    0  0.27501009060E+02  0.26231079163E+01 -0.59484711773E+02  0.11289430645E+03  0.91888559137E+02 0.  0.
        -11    1    4    4    0    0 -0.17757071121E+02  0.17239744941E+02  0.11626962838E+02  0.27344261651E+02  0.00000000000E+00 0.  1.
         11    1    4    4    0    0  0.45258080181E+02 -0.14616637025E+02 -0.71111674611E+02  0.85550044801E+02  0.00000000000E+00 0. -1.
        -13    1    3    3    0    0  0.16191493648E+02  0.39457958948E+02  0.42562594232E+02  0.60255036459E+02  0.00000000000E+00 0. -1.
         13    1    3    3    0    0 -0.19044375262E+02 -0.27054942765E+02 -0.86250562937E+01  0.34191369572E+02  0.00000000000E+00 0.  1.
         -3    1    1    2    0  502 -0.24648127446E+02 -0.15026124099E+02 -0.25575098058E+01  0.28980259634E+02  0.00000000000E+00 0.  1.
<scales pt_clust_5="13000.00000" pt_clust_6="13000.00000" pt_clust_7="13000.00000" pt_clust_8="13000.00000" pt_clust_9="28.86720"></scales>
<clustering>
<clus scale="   28.867">  2  9  1 -1</clus>
<clus scale="   87.215">  7  8 -1 -1</clus>
<clus scale="   88.115">  1  7  2 -1</clus>
<clus scale="   91.889">  5  6 -1 -1</clus>
<clus scale="   28.867">  2  5  1 -1</clus>
</clustering>
</event>
<event>
 9    1  0.1754247E-005  0.9486939E+02  0.7546771E-02  0.1293020E+00
         21   -1    0    0  501  502  0.00000000000E+00  0.00000000000E+00  0.72272021297E+02  0.72272021297E+02  0.00000000000E+00 0. -1.
          1   -1    0    0  502    0 -0.00000000000E+00 -0.00000000000E+00 -0.65038120266E+03  0.65038120266E+03  0.00000000000E+00 0. -1.
         23    2    1    2    0    0  0.26083658611E+02  0.92865943149E+01 -0.42629989483E+03  0.43669243068E+03  0.90565338841E+02 0.  0.
         23    2    1    2    0    0  0.50097621073E+02 -0.33942462889E+02 -0.17065791816E+03  0.20370041312E+03  0.93315973188E+02 0.  0.
        -11    1    4    4    0    0 -0.24775001548E+02 -0.15521568165E+02 -0.23284584374E+02  0.37375013706E+02  0.00000000000E+00 0.  1.
         11    1    4    4    0    0  0.74872622621E+02 -0.18420894724E+02 -0.14737333378E+03  0.16632539942E+03  0.00000000000E+00 0. -1.
        -13    1    3    3    0    0 -0.30064484398E+02 -0.14518866044E+02 -0.13382001252E+03  0.13792195780E+03  0.00000000000E+00 0.  1.
         13    1    3    3    0    0  0.56148143009E+02  0.23805460359E+02 -0.29247988231E+03  0.29877047288E+03  0.00000000000E+00 0. -1.
          1    1    1    2  501    0 -0.76181279683E+02  0.24655868574E+02  0.18848631625E+02  0.82260380156E+02  0.00000000000E+00 0. -1.
<scales pt_clust_5="13000.00000" pt_clust_6="13000.00000" pt_clust_7="13000.00000" pt_clust_8="13000.00000" pt_clust_9="80.07184"></scales>
<clustering>
<clus scale="   80.072">  1  9  2 -1</clus>
<clus scale="   90.565">  7  8 -1 -1</clus>
<clus scale="   92.165">  2  7  1 -1</clus>
<clus scale="   93.316">  5  6 -1 -1</clus>
<clus scale="   80.072">  1  5  2 -1</clus>
</clustering>
</event>
<event>
 9    1  0.1426358E-005  0.1003467E+03  0.7546771E-02  0.1280135E+00
         -4   -1    0    0    0  501 -0.00000000000E+00  0.00000000000E+00  0.40139524277E+03  0.40139524277E+03  0.00000000000E+00 0.  1.
         21   -1    0    0  501  502  0.00000000000E+00 -0.00000000000E+00 -0.59133054394E+02  0.59133054394E+02  0.00000000000E+00 0.  1.
         23    2    1    2    0    0 -0.54406934843E+02 -0.18352407602E+02  0.27108756619E+03  0.29171656894E+03  0.91176546479E+02 0.  0.
         23    2    1    2    0    0 -0.46899114213E+00  0.18820834126E+02  0.67027313183E+02  0.11377731310E+03  0.89989846721E+02 0.  0.
        -11    1    3    3    0    0 -0.78160085011E+02 -0.26640032726E+02  0.20997343308E+03  0.22562697718E+03  0.00000000000E+00 0.  1.
         11    1    3    3    0    0  0.23753150168E+02  0.82876251249E+01  0.61114133118E+02  0.66089591767E+02  0.00000000000E+00 0. -1.
        -13    1    4    4    0    0 -0.35548442814E+02  0.21652726884E+02  0.42916637452E+01  0.41844363368E+02  0.00000000000E+00 0.  1.
         13    1    4    4    0    0  0.35079451671E+02 -0.28318927575E+01  0.62735649438E+02  0.71932949728E+02  0.00000000000E+00 0. -1.
         -4    1    1    2    0  502  0.54875925985E+02 -0.46842652452E+00  0.41473089996E+01  0.55034415124E+02  0.00000000000E+00 0.  1.
<scales pt_clust_5="13000.00000" pt_clust_6="13000.00000" pt_clust_7="13000.00000" pt_clust_8="13000.00000" pt_clust_9="54.87793"></scales>
<clustering>
<clus scale="   54.878">  2  9  1 -1</clus>
<clus scale="   89.990">  7  8 -1 -1</clus>
<clus scale="   91.177">  5  6 -1 -1</clus>
<clus scale="   99.270">  2  7  1 -1</clus>
<clus scale="   54.878">  2  5  1 -1</clus>
</clustering>
</event>
<event>
 9    1  0.1426358E-005  0.1523054E+03  0.7546771E-02  0.1219698E+00
          1   -1    0    0  502    0 -0.00000000000E+00  0.00000000000E+00  0.20619145393E+03  0.20619145393E+03  0.00000000000E+00 0. -1.
         21   -1    0    0  501  502  0.00000000000E+00 -0.00000000000E+00 -0.54921857720E+03  0.54921857720E+03  0.00000000000E+00 0. -1.
         23    2    1    2    0    0 -0.16090595865E+02  0.18766256199E+02  0.12996000199E+03  0.16100874739E+03  0.91777638735E+02 0.  0.
         23    2    1    2    0    0 -0.10512133896E+03  0.12801117749E+02 -0.42134365436E+02  0.14571104215E+03  0.90785673613E+02 0.  0.
        -11    1    3    3    0    0 -0.37265476873E+02 -0.24225091232E+02  0.81632908053E+02  0.92948924087E+02  0.00000000000E+00 0. -1.
         11    1    3    3    0    0  0.21174881008E+02  0.42991347431E+02  0.48327093937E+02  0.68059823303E+02  0.00000000000E+00 0.  1.
        -13    1    4    4    0    0 -0.81114213315E+02  0.13154889984E+02 -0.70695086488E+02  0.10839908665E+03  0.00000000000E+00 0.  1.
         13    1    4    4    0    0 -0.24007125645E+02 -0.35377223479E+00  0.28560721052E+02  0.37311955504E+02  0.00000000000E+00 0. -1.
          1    1    1    2  501    0  0.12121193483E+03 -0.31567373948E+02 -0.43085275983E+03  0.44869024159E+03  0.00000000000E+00 0. -1.
<scales pt_clust_5="13000.00000" pt_clust_6="13000.00000" pt_clust_7="13000.00000" pt_clust_8="13000.00000" pt_clust_9="122.29015"></scales>
<clustering>
<clus scale="   90.786">  7  8 -1 -1</clus>
<clus scale="   91.778">  5  6 -1 -1</clus>
<clus scale="   95.048">  1  5  2 -1</clus>
<clus scale="  122.290">  2  9  1 -1</clus>
<clus scale="  122.290">  2  5  1 -1</clus>
</clustering>
</event>
<event>
 9    1  0.1426358E-005  0.9684549E+02  0.7546771E-02  0.1289205E+00
         21   -1    0    0  501  502  0.00000000000E+00  0.00000000000E+00  0.39309230449E+03  0.39309230449E+03  0.00000000000E+00 0.  1.
         -4   -1    0    0    0  501 -0.00000000000E+00 -0.00000000000E+00 -0.26946314502E+03  0.26946314502E+03  0.00000000000E+00 0.  1.
         23    2    1    2    0    0 -0.11241847456E+02 -0.26979360180E+02 -0.22389235438E+03  0.24238408330E+03  0.88136215463E+02 0.  0.
         23    2    1    2    0    0 -0.31766899219E+02  0.68308044220E+02  0.33978267599E+03  0.36002403022E+03  0.92140711130E+02 0.  0.
        -13    1    3    3    0    0  0.34713836673E+02 -0.81924624445E+01 -0.14375666991E+03  0.14811531670E+03  0.00000000000E+00 0.  1.
         13    1    3    3    0    0 -0.45955684129E+02 -0.18786897736E+02 -0.80135684468E+02  0.94268766595E+02  0.00000000000E+00 0. -1.
        -13    1    4    4    0    0 -0.19910406425E+02 -0.20041282250E+02  0.10963312531E+03  0.11321439592E+03  0.00000000000E+00 0. -1.
         13    1    4    4    0    0 -0.11856492794E+02  0.88349326470E+02  0.23014955068E+03  0.24680963430E+03  0.00000000000E+00 0.  1.
         -4    1    1    2    0  502  0.43008746675E+02 -0.41328684039E+02  0.77388378619E+01  0.60147335988E+02  0.00000000000E+00 0.  1.
<scales pt_clust_5="13000.00000" pt_clust_6="13000.00000" pt_clust_7="13000.00000" pt_clust_8="13000.00000" pt_clust_9="59.64743"></scales>
<clustering>
<clus scale="   59.647">  1  9  2 -1</clus>
<clus scale="   88.136">  5  6 -1 -1</clus>
<clus scale="   92.141">  7  8 -1 -1</clus>
<clus scale="   93.044">  2  5  1 -1</clus>
<clus scale="   59.647">  1  5  2 -1</clus>
</clustering>
</event>
<event>
 9    1  0.1426358E-005  0.1065307E+03  0.7546771E-02  0.1271723E+00
          2   -1    0    0  502    0 -0.00000000000E+00  0.00000000000E+00  0.27841629303E+03  0.27841629303E+03  0.00000000000E+00 0. -1.
         21   -1    0    0  501  502  0.00000000000E+00 -0.00000000000E+00 -0.13367372702E+03  0.13367372702E+03  0.00000000000E+00 0. -1.
         23    2    1    2    0    0  0.21243726241E+02  0.10911600990E+02  0.15736348179E+03  0.18790511721E+03  0.99873463616E+02 0.  0.
         23    2    1    2    0    0 -0.65257221760E+02 -0.74565792885E+01  0.69165335190E+02  0.13124343840E+03  0.90149270462E+02 0.  0.
        -11    1    4    4    0    0 -0.67106384601E+02  0.29976522174E+02  0.51926733567E+02  0.89990246109E+02  0.00000000000E+00 0.  1.
         11    1    4    4    0    0  0.18491628416E+01 -0.37433101463E+02  0.17238601623E+02  0.41253192292E+02  0.00000000000E+00 0. -1.
        -13    1    3    3    0    0  0.23166853351E+02  0.52170930343E+02  0.63676863092E+02  0.85517553522E+02  0.00000000000E+00 0.  1.
         13    1    3    3    0    0 -0.19231271109E+01 -0.41259329353E+02  0.93686618695E+02  0.10238756369E+03  0.00000000000E+00 0. -1.
          2    1    1    2  501    0  0.44013495519E+02 -0.34550217013E+01 -0.81786250973E+02  0.92941464433E+02  0.00000000000E+00 0. -1.
<scales pt_clust_5="13000.00000" pt_clust_6="13000.00000" pt_clust_7="13000.00000" pt_clust_8="13000.00000" pt_clust_9="44.14890"></scales>
<clustering>
<clus scale="   44.149">  2  9  1 -1</clus>
<clus scale="   90.149">  5  6 -1 -1</clus>
<clus scale="   97.473">  2  5  1 -1</clus>
<clus scale="   99.873">  7  8 -1 -1</clus>
<clus scale="   44.149">  2  5  1 -1</clus>
</clustering>
</event>
<event>
 9    1  0.1426358E-005  0.1119850E+03  0.7546771E-02  0.1256984E+00
         21   -1    0    0  501  502  0.00000000000E+00  0.00000000000E+00  0.75711836584E+02  0.75711836584E+02  0.00000000000E+00 0.  1.
          2   -1    0    0  502    0 -0.00000000000E+00 -0.00000000000E+00 -0.25439245405E+03  0.25439245405E+03  0.00000000000E+00 0. -1.
         23    2    1    2    0    0  0.22738138078E+02 -0.58920399314E+02 -0.14709329280E+03  0.18476879752E+03  0.92273698144E+02 0.  0.
         23    2    1    2    0    0 -0.46236048248E+02  0.49525689010E+02 -0.15683324461E+02  0.11544653886E+03  0.92148633413E+02 0.  0.
        -11    1    4    4    0    0  0.27589995964E+02  0.19375545678E+02 -0.11389605648E+02  0.35585710115E+02  0.00000000000E+00 0. -1.
         11    1    4    4    0    0 -0.73826044213E+02  0.30150143332E+02 -0.42937188132E+01  0.79860828748E+02  0.00000000000E+00 0.  1.
        -13    1    3    3    0    0  0.38046186113E+02 -0.40446965612E+02 -0.15061013385E+03  0.16052065824E+03  0.00000000000E+00 0. -1.
         13    1    3    3    0    0 -0.15308048035E+02 -0.18473433702E+02  0.35168410421E+01  0.24248139275E+02  0.00000000000E+00 0.  1.
          2    1    1    2  501    0  0.23497910171E+02  0.93947103043E+01 -0.15904000204E+02  0.29888954257E+02  0.00000000000E+00 0. -1.
<scales pt_clust_5="13000.00000" pt_clust_6="13000.00000" pt_clust_7="13000.00000" pt_clust_8="13000.00000" pt_clust_9="25.30637"></scales>
<clustering>
<clus scale="   25.306">  1  9  2 -1</clus>
<clus scale="   92.149">  5  6 -1 -1</clus>
<clus scale="   92.274">  7  8 -1 -1</clus>
<clus scale="  111.882">  1  5  2 -1</clus>
<clus scale="   25.306">  1  5  2 -1</clus>
</clustering>
</event>
<event>
 9    1  0.1426358E-005  0.1011194E+03  0.7546771E-02  0.1280928E+00
         21   -1    0    0  501  502  0.00000000000E+00  0.00000000000E+00  0.21345516315E+03  0.21345516315E+03  0.00000000000E+00 0. -1.
          1   -1    0    0  502    0 -0.00000000000E+00 -0.00000000000E+00 -0.15011914770E+03  0.15011914770E+03  0.00000000000E+00 0. -1.
         23    2    1    2    0    0 -0.49781935823E+02  0.21774616062E+02 -0.60696763281E+02  0.12035675478E+03  0.88596141617E+02 0.  0.
         23    2    1    2    0    0  0.10462117156E+02 -0.30628471284E+01 -0.16039398958E+02  0.96532882716E+02  0.94564783078E+02 0.  0.
        -13    1    4    4    0    0  0.14648964523E+02  0.44706361284E+02 -0.11019292430E+02  0.48318482038E+02  0.00000000000E+00 0. -1.
         13    1    4    4    0    0 -0.41868473669E+01 -0.47769208412E+02 -0.50201065281E+01  0.48214400678E+02  0.00000000000E+00 0.  1.
        -13    1    3    3    0    0  0.19541864075E+02 -0.14689762615E+02 -0.22438538632E+02  0.33183754959E+02  0.00000000000E+00 0.  1.
         13    1    3    3    0    0 -0.69323799897E+02  0.36464378677E+02 -0.38258224648E+02  0.87172999821E+02  0.00000000000E+00 0. -1.
          1    1    1    2  501    0  0.39319818667E+02 -0.18711768933E+02  0.14007217769E+03  0.14668467336E+03  0.00000000000E+00 0. -1.
<scales pt_clust_5="13000.00000" pt_clust_6="13000.00000" pt_clust_7="13000.00000" pt_clust_8="13000.00000" pt_clust_9="43.54513"></scales>
<clustering>
<clus scale="   43.545">  1  9  2 -1</clus>
<clus scale="   88.596">  7  8 -1 -1</clus>
<clus scale="   94.565">  5  6 -1 -1</clus>
<clus scale="   95.561">  2  7  1 -1</clus>
<clus scale="   43.545">  1  5  2 -1</clus>
</clustering>
</event>
<event>
 9    1  0.1426358E-005  0.9355239E+02  0.7546771E-02  0.1295646E+00
          2   -1    0    0  502    0 -0.00000000000E+00  0.00000000000E+00  0.35938691453E+03  0.35938691453E+03  0.00000000000E+00 0. -1.
         21   -1    0    0  501  502  0.00000000000E+00 -0.00000000000E+00 -0.62257313139E+02  0.62257313139E+02  0.00000000000E+00 0.  1.
         23    2    1    2    0    0 -0.46007467663E+01 -0.11506009624E+02  0.28205884391E+03  0.29728589531E+03  0.93102937627E+02 0.  0.
         23    2    1    2    0    0  0.13074120494E+02 -0.16333803802E+02  0.17822712034E+02  0.95127757133E+02  0.91070935756E+02 0.  0.
        -11    1    4    4    0    0 -0.99017396906E+01 -0.43198556745E+02  0.34381958507E+02  0.56091700139E+02  0.00000000000E+00 0. -1.
         11    1    4    4    0    0  0.22975860185E+02  0.26864752942E+02 -0.16559246473E+02  0.39036056994E+02  0.00000000000E+00 0.  1.
        -13    1    3    3    0    0  0.40267296848E+02 -0.19818167556E+02  0.17964386998E+03  0.18516515596E+03  0.00000000000E+00 0. -1.
         13    1    3    3    0    0 -0.44868043614E+02  0.83121579321E+01  0.10241497393E+03  0.11212073935E+03  0.00000000000E+00 0.  1.
          2    1    1    2  501    0 -0.84733737279E+01  0.27839813426E+02 -0.27519545557E+01  0.29230575222E+02  0.00000000000E+00 0. -1.
<scales pt_clust_5="13000.00000" pt_clust_6="13000.00000" pt_clust_7="13000.00000" pt_clust_8="13000.00000" pt_clust_9="29.10074"></scales>
<clustering>
<clus scale="   29.101">  2  9  1 -1</clus>
<clus scale="   91.071">  5  6 -1 -1</clus>
<clus scale="   91.530">  2  5  1 -1</clus>
<clus scale="   93.103">  7  8 -1 -1</clus>
<clus scale="   29.101">  2  5  1 -1</clus>
</clustering>
</event>
<event>
 9    1  0.1426358E-005  0.1405522E+03  0.7546771E-02  0.1212588E+00
          2   -1    0    0  502    0 -0.00000000000E+00  0.00000000000E+00  0.51339924024E+03  0.51339924024E+03  0.00000000000E+00 0. -1.
         21   -1    0    0  501  502  0.00000000000E+00 -0.00000000000E+00 -0.69714037347E+02  0.69714037347E+02  0.00000000000E+00 0. -1.
         23    2    1    2    0    0 -0.35560436902E+02 -0.10114869194E+03  0.29116338642E+03  0.32314814848E+03  0.90293996053E+02 0.  0.
         23    2    1    2    0    0 -0.20841719170E+02  0.11807887842E+03  0.94947651514E+02  0.17760847245E+03  0.90292381579E+02 0.  0.
        -11    1    4    4    0    0 -0.46217879036E+02  0.24603789627E+02  0.42662260549E+02  0.67538931600E+02  0.00000000000E+00 0.  1.
         11    1    4    4    0    0  0.25376159866E+02  0.93475088794E+02  0.52285390965E+02  0.11006954085E+03  0.00000000000E+00 0. -1.
        -13    1    3    3    0    0  0.22184589179E+02 -0.33451594931E+02  0.39907473246E+02  0.56601869416E+02  0.00000000000E+00 0.  1.
         13    1    3    3    0    0 -0.57745026081E+02 -0.67697097013E+02  0.25125591317E+03  0.26654627907E+03  0.00000000000E+00 0. -1.
          2    1    1    2  501    0  0.56402156072E+02 -0.16930186477E+02  0.57574164958E+02  0.82356656649E+02  0.00000000000E+00 0. -1.
<scales pt_clust_5="13000.00000" pt_clust_6="13000.00000" pt_clust_7="13000.00000" pt_clust_8="13000.00000" pt_clust_9="58.88832"></scales>
<clustering>
<clus scale="   58.888">  2  9  1 -1</clus>
<clus scale="   90.292">  5  6 -1 -1</clus>
<clus scale="   90.294">  7  8 -1 -1</clus>
<clus scale="  140.551">  2  5  1 -1</clus>
<clus scale="   58.888">  2  5  1 -1</clus>
</clustering>
</event>
<event>
 9    1  0.1426358E-005  0.9456000E+02  0.7546771E-02  0.1293320E+00
          1   -1    0    0  502    0 -0.00000000000E+00  0.00000000000E+00  0.47620892831E+03  0.47620892831E+03  0.00000000000E+00 0. -1.
         21   -1    0    0  501  502  0.00000000000E+00 -0.00000000000E+00 -0.25125586560E+02  0.25125586560E+02  0.00000000000E+00 0.  1.
         23    2    1    2    0    0  0.12483346643E+02 -0.20935604511E+01  0.19455539304E+03  0.21560705460E+03  0.92056417986E+02 0.  0.
         23    2    1    2    0    0 -0.16698138644E+02  0.30973879028E+02  0.19511649311E+03  0.21773331235E+03  0.89995224360E+02 0.  0.
        -11    1    3    3    0    0 -0.26592636082E+02 -0.14796019510E+02  0.20319715588E+02  0.36592093801E+02  0.00000000000E+00 0.  1.
         11    1    3    3    0    0  0.39075982726E+02  0.12702459058E+02  0.17423567745E+03  0.17901496079E+03  0.00000000000E+00 0. -1.
        -11    1    4    4    0    0 -0.27651150574E+02  0.49392633920E+02  0.66437087387E+02  0.87281756364E+02  0.00000000000E+00 0.  1.
         11    1    4    4    0    0  0.10953011930E+02 -0.18418754891E+02  0.12867940573E+03  0.13045155599E+03  0.00000000000E+00 0. -1.
          1    1    1    2  501    0  0.42147920005E+01 -0.28880318577E+02  0.61411455602E+02  0.67994147924E+02  0.00000000000E+00 0. -1.
<scales pt_clust_5="13000.00000" pt_clust_6="13000.00000" pt_clust_7="13000.00000" pt_clust_8="13000.00000" pt_clust_9="29.18627"></scales>
<clustering>
<clus scale="   29.186">  2  9  1 -1</clus>
<clus scale="   89.995">  7  8 -1 -1</clus>
<clus scale="   92.056">  5  6 -1 -1</clus>
<clus scale="   92.555">  2  7  1 -1</clus>
<clus scale="   29.186">  2  5  1 -1</clus>
</clustering>
</event>
<event>
 9    1  0.1426358E-005  0.9968677E+02  0.7546771E-02  0.1282217E+00
         21   -1    0    0  501  502  0.00000000000E+00  0.00000000000E+00  0.12804256700E+03  0.12804256700E+03  0.00000000000E+00 0. -1.
          2   -1    0    0  502    0 -0.00000000000E+00 -0.00000000000E+00 -0.22594046092E+03  0.22594046092E+03  0.00000000000E+00 0. -1.
         23    2    1    2    0    0  0.19864128612E+02 -0.39243447259E+02 -0.17166177440E+03  0.19845083393E+03  0.89332731625E+02 0.  0.
         23    2    1    2    0    0  0.24232326056E+01  0.17355644006E+02  0.23675996500E+02  0.96501705902E+02  0.91896332879E+02 0.  0.
        -11    1    3    3    0    0 -0.19454177429E+02  0.16427111069E+02 -0.20692160200E+02  0.32809762134E+02  0.00000000000E+00 0.  1.
         11    1    3    3    0    0  0.39318306041E+02 -0.55670558328E+02 -0.15096961420E+03  0.16564107180E+03  0.00000000000E+00 0. -1.
        -13    1    4    4    0    0  0.33896839430E+02  0.40971453984E+02  0.65128309260E+01  0.53573059756E+02  0.00000000000E+00 0.  1.
         13    1    4    4    0    0 -0.31473606824E+02 -0.23615809978E+02  0.17163165574E+02  0.42928646147E+02  0.00000000000E+00 0. -1.
          2    1    1    2  501    0 -0.22287361218E+02  0.21887803253E+02  0.50087883980E+02  0.59030488079E+02  0.00000000000E+00 0. -1.
<scales pt_clust_5="13000.00000" pt_clust_6="13000.00000" pt_clust_7="13000.00000" pt_clust_8="13000.00000" pt_clust_9="31.23784"></scales>
<clustering>
<clus scale="   31.238">  1  9  2 -1</clus>
<clus scale="   89.333">  5  6 -1 -1</clus>
<clus scale="   91.896">  7  8 -1 -1</clus>
<clus scale="   97.329">  2  5  1 -1</clus>
<clus scale="   31.238">  1  5  2 -1</clus>
</clustering>
</event>
<event>
 9    1  0.1426358E-005  0.9705341E+02  0.7546771E-02  0.1286894E+00
         21   -1    0    0  501  502  0.00000000000E+00  0.00000000000E+00  0.11999911457E+03  0.11999911457E+03  0.00000000000E+00 0.  1.
          1   -1    0    0  502    0 -0.00000000000E+00 -0.00000000000E+00 -0.14221527648E+03  0.14221527648E+03  0.00000000000E+00 0. -1.
         23    2    1    2    0    0  0.16817259227E+02 -0.34607417651E+02 -0.27486795069E+02  0.10277826615E+03  0.91254339762E+02 0.  0.
         23    2    1    2    0    0  0.36254220788E+02  0.25951731633E+02 -0.12491527050E+02  0.10280576884E+03  0.91788490338E+02 0.  0.
        -11    1    3    3    0    0  0.53950192965E+02 -0.12456946595E+02 -0.10687438326E+02  0.56391667624E+02  0.00000000000E+00 0.  1.
         11    1    3    3    0    0 -0.37132933737E+02 -0.22150471057E+02 -0.16799356744E+02  0.46386598528E+02  0.00000000000E+00 0. -1.
        -13    1    4    4    0    0  0.21726873606E+02  0.46246169404E+02  0.25690215343E+02  0.57190492091E+02  0.00000000000E+00 0.  1.
         13    1    4    4    0    0  0.14527347181E+02 -0.20294437771E+02 -0.38181742392E+02  0.45615276747E+02  0.00000000000E+00 0. -1.
          1    1    1    2  501    0 -0.53071480015E+02  0.86556860186E+01  0.17762160211E+02  0.56630356054E+02  0.00000000000E+00 0. -1.
<scales pt_clust_5="13000.00000" pt_clust_6="13000.00000" pt_clust_7="13000.00000" pt_clust_8="13000.00000" pt_clust_9="53.77270"></scales>
<clustering>
<clus scale="   53.773">  1  9  2 -1</clus>
<clus scale="   91.254">  5  6 -1 -1</clus>
<clus scale="   91.788">  7  8 -1 -1</clus>
<clus scale="   96.548">  2  5  1 -1</clus>
<clus scale="   53.773">  1  5  2 -1</clus>
</clustering>
</event>
<event>
 9    1  0.1426358E-005  0.9571021E+02  0.7546771E-02  0.1289680E+00
          2   -1    0    0  502    0 -0.00000000000E+00  0.00000000000E+00  0.35675724643E+03  0.35675724643E+03  0.00000000000E+00 0. -1.
         21   -1    0    0  501  502  0.00000000000E+00 -0.00000000000E+00 -0.10862085402E+03  0.10862085402E+03  0.00000000000E+00 0. -1.
         23    2    1    2    0    0  0.23899349716E+02  0.29856653234E+02  0.20930095635E+03  0.23142213917E+03  0.91031409465E+02 0.  0.
         23    2    1    2    0    0 -0.14199454376E+02 -0.83909922018E+01  0.11874968340E+03  0.15064239996E+03  0.91211907694E+02 0.  0.
        -11    1    4    4    0    0 -0.36316298990E+02 -0.38365476121E+02  0.86575563389E+02  0.10142046887E+03  0.00000000000E+00 0.  1.
         11    1    4    4    0    0  0.22116844614E+02  0.29974483920E+02  0.32174120007E+02  0.49221931090E+02  0.00000000000E+00 0. -1.
        -11    1    3    3    0    0 -0.21828815647E+02  0.36571165105E+02  0.15172984843E+03  0.15759408052E+03  0.00000000000E+00 0. -1.
         11    1    3    3    0    0  0.45728165362E+02 -0.67145118702E+01  0.57571107922E+02  0.73828058652E+02  0.00000000000E+00 0.  1.
          2    1    1    2  501    0 -0.96998953393E+01 -0.21465661033E+02 -0.79914247331E+02  0.83313561319E+02  0.00000000000E+00 0. -1.
<scales pt_clust_5="13000.00000" pt_clust_6="13000.00000" pt_clust_7="13000.00000" pt_clust_8="13000.00000" pt_clust_9="23.55552"></scales>
<clustering>
<clus scale="   23.556">  2  9  1 -1</clus>
<clus scale="   91.031">  7  8 -1 -1</clus>
<clus scale="   91.212">  5  6 -1 -1</clus>
<clus scale="   95.538">  1  7  2 -1</clus>
<clus scale="   23.556">  2  5  1 -1</clus>
</clustering>
</event>
<event>
 9    1  0.1426358E-005  0.1085550E+03  0.7546771E-02  0.1263361E+00
         -1   -1    0    0    0  501 -0.00000000000E+00  0.00000000000E+00  0.22107275117E+03  0.22107275117E+03  0.00000000000E+00 0.  1.
         21   -1    0    0  501  502  0.00000000000E+00 -0.00000000000E+00 -0.19119359637E+03  0.19119359637E+03  0.00000000000E+00 0.  1.
         23    2    1    2    0    0  0.62205570418E+02  0.30478972338E+01  0.17130961021E+03  0.20384413154E+03  0.91250341052E+02 0.  0.
         23    2    1    2    0    0 -0.24072454317E+02 -0.33436065996E+02 -0.11620281471E+03  0.15352222329E+03  0.91479644346E+02 0.  0.
        -11    1    3    3    0    0  0.15291807922E+02  0.42662846901E+02  0.99677621737E+02  0.10949696877E+03  0.00000000000E+00 0.  1.
         11    1    3    3    0    0  0.46913762496E+02 -0.39614949667E+02  0.71631988476E+02  0.94347162764E+02  0.00000000000E+00 0. -1.
        -11    1    4    4    0    0 -0.54689194654E+02 -0.38615630362E+02 -0.63050895862E+02  0.91964614875E+02  0.00000000000E+00 0. -1.
         11    1    4    4    0    0  0.30616740336E+02  0.51795643661E+01 -0.53151918849E+02  0.61557608410E+02  0.00000000000E+00 0.  1.
         -1    1    1    2    0  502 -0.38133116100E+02  0.30388168763E+02 -0.25227640706E+02  0.54899992713E+02  0.00000000000E+00 0.  1.
<scales pt_clust_5="13000.00000" pt_clust_6="13000.00000" pt_clust_7="13000.00000" pt_clust_8="13000.00000" pt_clust_9="48.76039"></scales>
<clustering>
<clus scale="   48.760">  2  9  1 -1</clus>
<clus scale="   91.250">  5  6 -1 -1</clus>
<clus scale="   91.480">  7  8 -1 -1</clus>
<clus scale="  108.362">  1  5  2 -1</clus>
<clus scale="   48.760">  2  5  1 -1</clus>
</clustering>
</event>
<event>
 9    1  0.1426358E-005  0.2511486E+03  0.7546771E-02  0.1153113E+00
         21   -1    0    0  501  502  0.00000000000E+00  0.00000000000E+00  0.56420286632E+03  0.56420286632E+03  0.00000000000E+00 0.  1.
         -2   -1    0    0    0  501 -0.00000000000E+00 -0.00000000000E+00 -0.21140057073E+03  0.21140057073E+03  0.00000000000E+00 0.  1.
         23    2    1    2    0    0 -0.88881522653E+01 -0.18311699841E+02 -0.81132926597E+02  0.12361236577E+03  0.91011799184E+02 0.  0.
         23    2    1    2    0    0 -0.22430512669E+03 -0.48297016827E+01  0.16944347667E+03  0.29862085003E+03  0.10063401218E+03 0.  0.
        -11    1    4    4    0    0 -0.18227225974E+03  0.75293841896E+01  0.80352524559E+02  0.19933990193E+03  0.00000000000E+00 0.  1.
         11    1    4    4    0    0 -0.42032866954E+02 -0.12359085872E+02  0.89090952113E+02  0.99280948104E+02  0.00000000000E+00 0. -1.
        -13    1    3    3    0    0 -0.49891653184E+02 -0.13989963222E+02 -0.41006727812E+02  0.66079103007E+02  0.00000000000E+00 0.  1.
         13    1    3    3    0    0  0.41003500918E+02 -0.43217366190E+01 -0.40126198785E+02  0.57533262761E+02  0.00000000000E+00 0. -1.
         -2    1    1    2    0  502  0.23319327896E+03  0.23141401524E+02  0.26449174552E+03  0.35337022125E+03  0.00000000000E+00 0.  1.
<scales pt_clust_5="13000.00000" pt_clust_6="13000.00000" pt_clust_7="13000.00000" pt_clust_8="13000.00000" pt_clust_9="230.10521"></scales>
<clustering>
<clus scale="   91.012">  7  8 -1 -1</clus>
<clus scale="   93.260">  2  7  1 -1</clus>
<clus scale="  100.634">  5  6 -1 -1</clus>
<clus scale="  230.105">  1  9  2 -1</clus>
<clus scale="  230.105">  1  5  2 -1</clus>
</clustering>
</event>
<event>
 9    1  0.1426358E-005  0.9522459E+02  0.7546771E-02  0.1293813E+00
         21   -1    0    0  501  502  0.00000000000E+00  0.00000000000E+00  0.50398951164E+02  0.50398951164E+02  0.00000000000E+00 0. -1.
         -3   -1    0    0    0  501 -0.00000000000E+00 -0.00000000000E+00 -0.61050373188E+03  0.61050373188E+03  0.00000000000E+00 0.  1.
         23    2    1    2    0    0  0.23773285050E+02 -0.15837422295E+02 -0.38086921464E+03  0.39293169984E+03  0.92292844027E+02 0.  0.
         23    2    1    2    0    0  0.37753826057E+02  0.39094610937E+02 -0.17417229835E+03  0.20200039199E+03  0.86685805448E+02 0.  0.
        -13    1    3    3    0    0  0.46744776874E+02 -0.38800312781E+02 -0.19493304489E+03  0.20417989721E+03  0.00000000000E+00 0.  1.
         13    1    3    3    0    0 -0.22971491823E+02  0.22962890486E+02 -0.18593616975E+03  0.18875180263E+03  0.00000000000E+00 0. -1.
        -13    1    4    4    0    0  0.56495497477E+02  0.54135379682E+02 -0.13088938337E+03  0.15249397119E+03  0.00000000000E+00 0.  1.
         13    1    4    4    0    0 -0.18741671420E+02 -0.15040768745E+02 -0.43282914975E+02  0.49506420804E+02  0.00000000000E+00 0. -1.
         -3    1    1    2    0  502 -0.61527111107E+02 -0.23257188642E+02 -0.50632677365E+01  0.65970591212E+02  0.00000000000E+00 0.  1.
<scales pt_clust_5="13000.00000" pt_clust_6="13000.00000" pt_clust_7="13000.00000" pt_clust_8="13000.00000" pt_clust_9="65.77600"></scales>
<clustering>
<clus scale="   65.776">  1  9  2 -1</clus>
<clus scale="   86.686">  7  8 -1 -1</clus>
<clus scale="   89.801">  1  7  2 -1</clus>
<clus scale="   92.293">  5  6 -1 -1</clus>
<clus scale="   65.776">  1  5  2 -1</clus>
</clustering>
</event>
<event>
 9    1  0.1426358E-005  0.1516549E+03  0.7546771E-02  0.1200460E+00
          1   -1    0    0  502    0 -0.00000000000E+00  0.00000000000E+00  0.56614575022E+03  0.56614575022E+03  0.00000000000E+00 0. -1.
         21   -1    0    0  501  502  0.00000000000E+00 -0.00000000000E+00 -0.13720635668E+03  0.13720635668E+03  0.00000000000E+00 0. -1.
         23    2    1    2    0    0 -0.75252443213E+02 -0.62059537957E+02  0.23730714274E+03  0.27514470814E+03  0.99376123682E+02 0.  0.
         23    2    1    2    0    0  0.11074342052E+03  0.75106108063E+02  0.28513102371E+03  0.32735184364E+03  0.89187982372E+02 0.  0.
        -11    1    3    3    0    0 -0.70527082313E+02  0.26617260670E+01  0.91567870062E+02  0.11561067837E+03  0.00000000000E+00 0.  1.
         11    1    3    3    0    0 -0.47253608998E+01 -0.64721264024E+02  0.14573927268E+03  0.15953402977E+03  0.00000000000E+00 0. -1.
        -11    1    4    4    0    0  0.77981184677E+02  0.80681207132E+02  0.14506260757E+03  0.18339488124E+03  0.00000000000E+00 0.  1.
         11    1    4    4    0    0  0.32762235843E+02 -0.55750990684E+01  0.14006841614E+03  0.14395696241E+03  0.00000000000E+00 0. -1.
          1    1    1    2  501    0 -0.35490977307E+02 -0.13046570106E+02 -0.93498772909E+02  0.10085555511E+03  0.00000000000E+00 0. -1.
<scales pt_clust_5="13000.00000" pt_clust_6="13000.00000" pt_clust_7="13000.00000" pt_clust_8="13000.00000" pt_clust_9="37.81299"></scales>
<clustering>
<clus scale="   37.813">  2  9  1 -1</clus>
<clus scale="   89.188">  7  8 -1 -1</clus>
<clus scale="   99.376">  5  6 -1 -1</clus>
<clus scale="  145.183">  2  7  1 -1</clus>
<clus scale="   37.813">  2  5  1 -1</clus>
</clustering>
</event>
<event>
 9    1  0.1426358E-005  0.9968781E+02  0.7546771E-02  0.1281012E+00
         21   -1    0    0  501  502  0.00000000000E+00  0.00000000000E+00  0.29508584472E+02  0.29508584472E+02  0.00000000000E+00 0.  1.
          2   -1    0    0  502    0 -0.00000000000E+00 -0.00000000000E+00 -0.46363522321E+03  0.46363522321E+03  0.00000000000E+00 0. -1.
         23    2    1    2    0    0  0.33219685669E+02 -0.80631612585E+01 -0.23962469428E+03  0.25871381905E+03  0.91347052345E+02 0.  0.
         23    2    1    2    0    0 -0.40169283698E+02  0.28662125717E+02 -0.18135613854E+03  0.20902474384E+03  0.91466965345E+02 0.  0.
        -11    1    4    4    0    0 -0.65944375070E+02  0.36289720097E+01 -0.13576566978E+03  0.15097730668E+03  0.00000000000E+00 0. -1.
         11    1    4    4    0    0  0.25775091371E+02  0.25033153707E+02 -0.45590468762E+02  0.58047437167E+02  0.00000000000E+00 0.  1.
        -13    1    3    3    0    0  0.53386175570E+02 -0.19852513174E+02 -0.22269704861E+03  0.22986557263E+03  0.00000000000E+00 0. -1.
         13    1    3    3    0    0 -0.20166489901E+02  0.11789351915E+02 -0.16927645676E+02  0.28848246422E+02  0.00000000000E+00 0.  1.
          2    1    1    2  501    0  0.69495980297E+01 -0.20598964459E+02 -0.13145805917E+02  0.25405244788E+02  0.00000000000E+00 0. -1.
<scales pt_clust_5="13000.00000" pt_clust_6="13000.00000" pt_clust_7="13000.00000" pt_clust_8="13000.00000" pt_clust_9="21.73969"></scales>
<clustering>
<clus scale="   21.740">  1  9  2 -1</clus>
<clus scale="   91.347">  7  8 -1 -1</clus>
<clus scale="   91.467">  5  6 -1 -1</clus>
<clus scale="   99.578">  2  7  1 -1</clus>
<clus scale="   21.740">  1  5  2 -1</clus>
</clustering>
</event>
<event>
 9    1  0.1426358E-005  0.9857959E+02  0.7546771E-02  0.1285876E+00
         21   -1    0    0  501  502  0.00000000000E+00  0.00000000000E+00  0.14458987935E+03  0.14458987935E+03  0.00000000000E+00 0. -1.
         -2   -1    0    0    0  501 -0.00000000000E+00 -0.00000000000E+00 -0.95386714516E+02  0.95386714516E+02  0.00000000000E+00 0.  1.
         23    2    1    2    0    0  0.11560697289E+02  0.10088563718E+02 -0.23836334373E+02  0.10043352816E+03  0.96349851594E+02 0.  0.
         23    2    1    2    0    0 -0.32365603968E+02 -0.12429674136E+02  0.61649276785E+02  0.11570901220E+03  0.91574631074E+02 0.  0.
        -11    1    4    4    0    0 -0.45372416113E+02 -0.36129253123E+02  0.66503741967E+02  0.88242431805E+02  0.00000000000E+00 0. -1.
         11    1    4    4    0    0  0.13006812145E+02  0.23699578986E+02 -0.48544651821E+01  0.27466580394E+02  0.00000000000E+00 0.  1.
        -11    1    3    3    0    0  0.53908701891E+02  0.29306965555E+01 -0.18905401699E+02  0.57202721397E+02  0.00000000000E+00 0.  1.
         11    1    3    3    0    0 -0.42348004602E+02  0.71578671621E+01 -0.49309326739E+01  0.43230806760E+02  0.00000000000E+00 0. -1.
         -2    1    1    2    0  502  0.20804906680E+02  0.23411104184E+01  0.11390222424E+02  0.23834053512E+02  0.00000000000E+00 0.  1.
<scales pt_clust_5="13000.00000" pt_clust_6="13000.00000" pt_clust_7="13000.00000" pt_clust_8="13000.00000" pt_clust_9="20.93621"></scales>
<clustering>
<clus scale="   20.936">  1  9  2 -1</clus>
<clus scale="   91.575">  5  6 -1 -1</clus>
<clus scale="   93.918">  1  5  2 -1</clus>
<clus scale="   96.350">  7  8 -1 -1</clus>
<clus scale="   20.936">  1  5  2 -1</clus>
</clustering>
</event>
<event>
 9    1  0.1426358E-005  0.1035730E+03  0.7546771E-02  0.1277764E+00
         21   -1    0    0  501  502  0.00000000000E+00  0.00000000000E+00  0.37832449072E+03  0.37832449072E+03  0.00000000000E+00 0.  1.
          1   -1    0    0  502    0 -0.00000000000E+00 -0.00000000000E+00 -0.41647886164E+02  0.41647886164E+02  0.00000000000E+00 0. -1.
         23    2    1    2    0    0 -0.10984950786E+02 -0.24777667941E+02  0.64256216268E+02  0.12115848271E+03  0.99075297787E+02 0.  0.
         23    2    1    2    0    0 -0.50372152629E+01  0.41704934694E+02  0.23136108410E+03  0.25160045726E+03  0.89499518112E+02 0.  0.
        -11    1    4    4    0    0  0.12258827596E+02  0.66840670321E+02  0.14884335289E+03  0.16362242439E+03  0.00000000000E+00 0.  1.
         11    1    4    4    0    0 -0.17296042859E+02 -0.25135735627E+02  0.82517731213E+02  0.87978032875E+02  0.00000000000E+00 0. -1.
        -11    1    3    3    0    0  0.40277232812E+02 -0.81206478547E+01  0.51294108326E+02  0.65721274740E+02  0.00000000000E+00 0.  1.
         11    1    3    3    0    0 -0.51262183597E+02 -0.16657020087E+02  0.12962107942E+02  0.55437207971E+02  0.00000000000E+00 0. -1.
          1    1    1    2  501    0  0.16022166048E+02 -0.16927266753E+02  0.41059304190E+02  0.47213436913E+02  0.00000000000E+00 0. -1.
<scales pt_clust_5="13000.00000" pt_clust_6="13000.00000" pt_clust_7="13000.00000" pt_clust_8="13000.00000" pt_clust_9="23.30756"></scales>
<clustering>
<clus scale="   23.308">  1  9  2 -1</clus>
<clus scale="   89.500">  5  6 -1 -1</clus>
<clus scale="   94.454">  1  5  2 -1</clus>
<clus scale="   99.075">  7  8 -1 -1</clus>
<clus scale="   23.308">  1  5  2 -1</clus>
</clustering>
</event>
<event>
 9    1  0.1426358E-005  0.1029884E+03  0.7546771E-02  0.1276721E+00
         -4   -1    0    0    0  501 -0.00000000000E+00  0.00000000000E+00  0.11341207251E+03  0.11341207251E+03  0.00000000000E+00 0.  1.
         21   -1    0    0  501  502  0.00000000000E+00 -0.00000000000E+00 -0.26765478008E+03  0.26765478008E+03  0.00000000000E+00 0.  1.
         23    2    1    2    0    0  0.10439153031E+02 -0.38069656919E+02  0.64171159801E+02  0.11781615379E+03  0.90578328802E+02 0.  0.
         23    2    1    2    0    0 -0.33683043607E+02  0.17296141587E+02 -0.11154370767E+03  0.15192662943E+03  0.95947892471E+02 0.  0.
        -11    1    4    4    0    0 -0.65454191152E+02  0.89481729696E+01 -0.93391533815E+02  0.11439536497E+03  0.00000000000E+00 0.  1.
         11    1    4    4    0    0  0.31771147545E+02  0.83479686179E+01 -0.18152173857E+02  0.37531264462E+02  0.00000000000E+00 0. -1.
        -13    1    3    3    0    0 -0.35933982043E+02 -0.85614000225E+00  0.98245820152E+01  0.37262668355E+02  0.00000000000E+00 0.  1.
         13    1    3    3    0    0  0.46373135074E+02 -0.37213516917E+02  0.54346577786E+02  0.80553485430E+02  0.00000000000E+00 0. -1.
         -4    1    1    2    0  502  0.23243890576E+02  0.20773515331E+02 -0.10687015970E+03  0.11132406937E+03  0.00000000000E+00 0.  1.
<scales pt_clust_5="13000.00000" pt_clust_6="13000.00000" pt_clust_7="13000.00000" pt_clust_8="13000.00000" pt_clust_9="31.17399"></scales>
<clustering>
<clus scale="   31.174">  2  9  1 -1</clus>
<clus scale="   90.578">  7  8 -1 -1</clus>
<clus scale="   95.948">  5  6 -1 -1</clus>
<clus scale="   98.005">  1  7  2 -1</clus>
<clus scale="   31.174">  2  5  1 -1</clus>
</clustering>
</event>
<event>
 9    1  0.1426358E-005  0.1130456E+03  0.7546771E-02  0.1264196E+00
         21   -1    0    0  501  502  0.00000000000E+00  0.00000000000E+00  0.30663194687E+03  0.30663194687E+03  0.00000000000E+00 0. -1.
          1   -1    0    0  502    0 -0.00000000000E+00 -0.00000000000E+00 -0.24352442806E+03  0.24352442806E+03  0.00000000000E+00 0. -1.
         23    2    1    2    0    0  0.11783378539E+02 -0.48370073091E+01 -0.14187085744E+03  0.18011129052E+03  0.11022927077E+03 0.  0.
         23    2    1    2    0    0 -0.47952450752E+02 -0.94742851810E+01 -0.48128400955E+02  0.11396686287E+03  0.91010456769E+02 0.  0.
        -13    1    3    3    0    0 -0.23947969982E+02 -0.25847518266E+02 -0.32040613341E+01  0.35381711036E+02  0.00000000000E+00 0.  1.
         13    1    3    3    0    0  0.35731348521E+02  0.21010510957E+02 -0.13866679610E+03  0.14472957949E+03  0.00000000000E+00 0. -1.
        -13    1    4    4    0    0 -0.69714812801E+02  0.13681171321E+02 -0.38266155416E+02  0.80694660436E+02  0.00000000000E+00 0.  1.
         13    1    4    4    0    0  0.21762362049E+02 -0.23155456502E+02 -0.98622455394E+01  0.33272202435E+02  0.00000000000E+00 0. -1.
          1    1    1    2  501    0  0.36169072213E+02  0.14311292490E+02  0.25310677721E+03  0.25607822154E+03  0.00000000000E+00 0. -1.
<scales pt_clust_5="13000.00000" pt_clust_6="13000.00000" pt_clust_7="13000.00000" pt_clust_8="13000.00000" pt_clust_9="38.89749"></scales>
<clustering>
<clus scale="   38.897">  1  9  2 -1</clus>
<clus scale="   91.010">  7  8 -1 -1</clus>
<clus scale="   94.402">  1  7  2 -1</clus>
<clus scale="  110.229">  5  6 -1 -1</clus>
<clus scale="   38.897">  1  5  2 -1</clus>
</clustering>
</event>
<event>
 9    1  0.1426358E-005  0.1025446E+03  0.7546771E-02  0.1276342E+00
         21   -1    0    0  501  502  0.00000000000E+00  0.00000000000E+00  0.54354363122E+02  0.54354363122E+02  0.00000000000E+00 0.  1.
         -1   -1    0    0    0  501 -0.00000000000E+00 -0.00000000000E+00 -0.36335561021E+03  0.36335561021E+03  0.00000000000E+00 0.  1.
         23    2    1    2    0    0 -0.31510206123E+02 -0.21004629345E+02 -0.22698192069E+03  0.24677610282E+03  0.89126679848E+02 0.  0.
         23    2    1    2    0    0  0.61507481043E+02  0.30111073092E+02 -0.79412463224E+02  0.13947660496E+03  0.91964868661E+02 0.  0.
        -11    1    3    3    0    0 -0.59912912373E+02 -0.13180231327E+01 -0.11641219594E+03  0.13093163719E+03  0.00000000000E+00 0.  1.
         11    1    3    3    0    0  0.28402706249E+02 -0.19686606212E+02 -0.11056972475E+03  0.11584446563E+03  0.00000000000E+00 0. -1.
        -13    1    4    4    0    0  0.70706333033E+02 -0.11754170498E+02 -0.46567575699E+02  0.85475640750E+02  0.00000000000E+00 0.  1.
         13    1    4    4    0    0 -0.91988519897E+01  0.41865243590E+02 -0.32844887524E+02  0.54000964206E+02  0.00000000000E+00 0. -1.
         -1    1    1    2    0  502 -0.29997274920E+02 -0.91064437475E+01 -0.26068631727E+01  0.31457265551E+02  0.00000000000E+00 0.  1.
<scales pt_clust_5="13000.00000" pt_clust_6="13000.00000" pt_clust_7="13000.00000" pt_clust_8="13000.00000" pt_clust_9="31.34906"></scales>
<clustering>
<clus scale="   31.349">  1  9  2 -1</clus>
<clus scale="   89.127">  5  6 -1 -1</clus>
<clus scale="   91.965">  7  8 -1 -1</clus>
<clus scale="  100.007">  2  5  1 -1</clus>
<clus scale="   31.349">  1  5  2 -1</clus>
</clustering>
</event>
<event>
 9    1  0.1426358E-005  0.9526115E+02  0.7546771E-02  0.1292066E+00
         21   -1    0    0  501  502  0.00000000000E+00  0.00000000000E+00  0.33522276918E+03  0.33522276918E+03  0.00000000000E+00 0. -1.
         -4   -1    0    0    0  501 -0.00000000000E+00 -0.00000000000E+00 -0.12161388608E+03  0.12161388608E+03  0.00000000000E+00 0.  1.
         23    2    1    2    0    0  0.13092089357E+02  0.15534698573E+02 -0.91210266462E+02  0.13206251905E+03  0.93319165052E+02 0.  0.
         23    2    1    2    0    0 -0.12419545893E+02  0.46009994831E+01  0.24007799679E+03  0.25697062957E+03  0.90669981823E+02 0.  0.
        -13    1    4    4    0    0 -0.32170203996E+01  0.40774917508E+02  0.57181108098E+02  0.70303785398E+02  0.00000000000E+00 0.  1.
         13    1    4    4    0    0 -0.92025254936E+01 -0.36173918025E+02  0.18289688869E+03  0.18666684417E+03  0.00000000000E+00 0. -1.
        -13    1    3    3    0    0  0.40806233265E+02  0.40170416168E+02 -0.65166212412E+02  0.86749329960E+02  0.00000000000E+00 0.  1.
         13    1    3    3    0    0 -0.27714143908E+02 -0.24635717595E+02 -0.26044054049E+02  0.45313189088E+02  0.00000000000E+00 0. -1.
         -4    1    1    2    0  502 -0.67254346353E+00 -0.20135698056E+02  0.64741152774E+02  0.67803506645E+02  0.00000000000E+00 0.  1.
<scales pt_clust_5="13000.00000" pt_clust_6="13000.00000" pt_clust_7="13000.00000" pt_clust_8="13000.00000" pt_clust_9="20.14693"></scales>
<clustering>
<clus scale="   20.147">  1  9  2 -1</clus>
<clus scale="   90.670">  5  6 -1 -1</clus>
<clus scale="   92.668">  1  5  2 -1</clus>
<clus scale="   93.319">  7  8 -1 -1</clus>
<clus scale="   20.147">  1  5  2 -1</clus>
</clustering>
</event>
<event>
 9    1  0.1426358E-005  0.1132393E+03  0.7546771E-02  0.1255135E+00
         21   -1    0    0  501  502  0.00000000000E+00  0.00000000000E+00  0.19605920402E+03  0.19605920402E+03  0.00000000000E+00 0.  1.
          3   -1    0    0  502    0 -0.00000000000E+00 -0.00000000000E+00 -0.11714036061E+03  0.11714036061E+03  0.00000000000E+00 0. -1.
         23    2    1    2    0    0 -0.32303636808E+02  0.60608215501E+02 -0.55090073503E+02  0.12766614842E+03  0.92449167207E+02 0.  0.
         23    2    1    2    0    0  0.38002164719E+02 -0.40343289199E+02  0.10531057746E+03  0.14994219333E+03  0.91217312546E+02 0.  0.
        -11    1    4    4    0    0  0.21721729450E+02  0.71989030720E+01 -0.93753802230E+01  0.24729647997E+02  0.00000000000E+00 0. -1.
         11    1    4    4    0    0  0.16280435269E+02 -0.47542192271E+02  0.11468595768E+03  0.12521254533E+03  0.00000000000E+00 0.  1.
        -13    1    3    3    0    0 -0.50463932044E+02  0.47934786515E+02 -0.71743855102E+02  0.99957655737E+02  0.00000000000E+00 0. -1.
         13    1    3    3    0    0  0.18160295236E+02  0.12673428986E+02  0.16653781599E+02  0.27708492685E+02  0.00000000000E+00 0.  1.
          3    1    1    2  501    0 -0.56985279108E+01 -0.20264926302E+02  0.28698339462E+02  0.35591222882E+02  0.00000000000E+00 0. -1.
<scales pt_clust_5="13000.00000" pt_clust_6="13000.00000" pt_clust_7="13000.00000" pt_clust_8="13000.00000" pt_clust_9="21.05090"></scales>
<clustering>
<clus scale="   21.051">  1  9  2 -1</clus>
<clus scale="   91.217">  5  6 -1 -1</clus>
<clus scale="   92.449">  7  8 -1 -1</clus>
<clus scale="  112.236">  1  5  2 -1</clus>
<clus scale="   21.051">  1  5  2 -1</clus>
</clustering>
</event>
<event>
 9    1  0.1426358E-005  0.9500245E+02  0.7546771E-02  0.1308783E+00
          1   -1    0    0  502    0 -0.00000000000E+00  0.00000000000E+00  0.11311587299E+03  0.11311587299E+03  0.00000000000E+00 0. -1.
         21   -1    0    0  501  502  0.00000000000E+00 -0.00000000000E+00 -0.14737353284E+03  0.14737353284E+03  0.00000000000E+00 0.  1.
         23    2    1    2    0    0  0.63207139744E+01 -0.25220872558E+02  0.66325217064E+02  0.95901427599E+02  0.64202846972E+02 0.  0.
         23    2    1    2    0    0  0.20911595221E+02  0.18821703747E+02 -0.53819874287E+02  0.11009645191E+03  0.91831903543E+02 0.  0.
        -13    1    3    3    0    0  0.19156835385E+02 -0.42784157725E+02  0.39034552614E+02  0.61001350739E+02  0.00000000000E+00 0. -1.
         13    1    3    3    0    0 -0.12836121411E+02  0.17563285167E+02  0.27290664451E+02  0.34900076861E+02  0.00000000000E+00 0.  1.
        -13    1    4    4    0    0  0.22146754753E+02 -0.18998668071E+02 -0.64486812054E+02  0.70781191453E+02  0.00000000000E+00 0.  1.
         13    1    4    4    0    0 -0.12351595327E+01  0.37820371818E+02  0.10666937767E+02  0.39315260457E+02  0.00000000000E+00 0. -1.
          1    1    1    2  501    0 -0.27232309195E+02  0.63991688116E+01 -0.46763002628E+02  0.54491526317E+02  0.00000000000E+00 0. -1.
<scales pt_clust_5="13000.00000" pt_clust_6="13000.00000" pt_clust_7="13000.00000" pt_clust_8="13000.00000" pt_clust_9="27.97406"></scales>
<clustering>
<clus scale="   27.974">  2  9  1 -1</clus>
<clus scale="   64.203">  5  6 -1 -1</clus>
<clus scale="   68.661">  1  5  2 -1</clus>
<clus scale="   91.832">  7  8 -1 -1</clus>
<clus scale="   27.974">  2  5  1 -1</clus>
</clustering>
</event>
<event>
 9    1  0.1426358E-005  0.1040280E+03  0.7546771E-02  0.1280469E+00
         -2   -1    0    0    0  501 -0.00000000000E+00  0.00000000000E+00  0.16768347602E+03  0.16768347602E+03  0.00000000000E+00 0.  1.
         21   -1    0    0  501  502  0.00000000000E+00 -0.00000000000E+00 -0.10082220033E+03  0.10082220033E+03  0.00000000000E+00 0.  1.
         23    2    1    2    0    0  0.49254593971E+02 -0.79577641831E+01  0.59921684060E+02  0.12040370471E+03  0.91744770146E+02 0.  0.
         23    2    1    2    0    0 -0.35817519458E+02  0.40813412285E+02  0.39704210515E+02  0.99794944887E+02  0.73715516480E+02 0.  0.
        -11    1    3    3    0    0  0.26926499622E+02 -0.47159482063E+02  0.50829617900E+02  0.74382142925E+02  0.00000000000E+00 0. -1.
         11    1    3    3    0    0  0.22328094350E+02  0.39201717880E+02  0.90920661599E+01  0.46021561784E+02  0.00000000000E+00 0.  1.
        -13    1    4    4    0    0 -0.69685472087E+01  0.53454394327E+02  0.41820865027E+02  0.68226957097E+02  0.00000000000E+00 0.  1.
         13    1    4    4    0    0 -0.28848972250E+02 -0.12640982042E+02 -0.21166545117E+01  0.31567987791E+02  0.00000000000E+00 0. -1.
         -2    1    1    2    0  502 -0.13437074513E+02 -0.32855648102E+02 -0.32764618886E+02  0.48307026760E+02  0.00000000000E+00 0.  1.
<scales pt_clust_5="13000.00000" pt_clust_6="13000.00000" pt_clust_7="13000.00000" pt_clust_8="13000.00000" pt_clust_9="35.49716"></scales>
<clustering>
<clus scale="   35.497">  2  9  1 -1</clus>
<clus scale="   73.716">  7  8 -1 -1</clus>
<clus scale="   88.536">  2  7  1 -1</clus>
<clus scale="   91.745">  5  6 -1 -1</clus>
<clus scale="   35.497">  2  5  1 -1</clus>
</clustering>
</event>
<event>
 9    1  0.1426358E-005  0.1456951E+03  0.7546771E-02  0.1220748E+00
         -1   -1    0    0    0  501 -0.00000000000E+00  0.00000000000E+00  0.15220999196E+03  0.15220999196E+03  0.00000000000E+00 0.  1.
         21   -1    0    0  501  502  0.00000000000E+00 -0.00000000000E+00 -0.29096252465E+03  0.29096252465E+03  0.00000000000E+00 0.  1.
         23    2    1    2    0    0 -0.52957309212E+02  0.86276320084E+00 -0.67760454021E+02  0.12598899954E+03  0.92068061325E+02 0.  0.
         23    2    1    2    0    0 -0.47604209795E+02  0.67992545165E+02  0.60843596985E+02  0.13764433480E+03  0.91404992316E+02 0.  0.
        -11    1    4    4    0    0  0.10998247066E+02  0.59257117442E+02  0.13401698580E+02  0.61741176948E+02  0.00000000000E+00 0. -1.
         11    1    4    4    0    0 -0.58602456861E+02  0.87354277226E+01  0.47441898406E+02  0.75903157852E+02  0.00000000000E+00 0.  1.
        -11    1    3    3    0    0 -0.79031857861E+02  0.59492352481E+01 -0.55331887532E+02  0.96659431691E+02  0.00000000000E+00 0. -1.
         11    1    3    3    0    0  0.26074548649E+02 -0.50864720472E+01 -0.12428566489E+02  0.29329567847E+02  0.00000000000E+00 0.  1.
         -1    1    1    2    0  502  0.10056151901E+03 -0.68855308366E+02 -0.13183567565E+03  0.17953918227E+03  0.00000000000E+00 0.  1.
<scales pt_clust_5="13000.00000" pt_clust_6="13000.00000" pt_clust_7="13000.00000" pt_clust_8="13000.00000" pt_clust_9="113.45565"></scales>
<clustering>
<clus scale="   91.405">  5  6 -1 -1</clus>
<clus scale="   92.068">  7  8 -1 -1</clus>
<clus scale="  106.216">  1  7  2 -1</clus>
<clus scale="  113.456">  2  9  1 -1</clus>
<clus scale="  113.456">  2  5  1 -1</clus>
</clustering>
</event>
<event>
 9    1  0.1426358E-005  0.1541834E+03  0.7546771E-02  0.1196077E+00
         21   -1    0    0  501  502  0.00000000000E+00  0.00000000000E+00  0.20346896118E+03  0.20346896118E+03  0.00000000000E+00 0. -1.
          1   -1    0    0  502    0 -0.00000000000E+00 -0.00000000000E+00 -0.33367708877E+03  0.33367708877E+03  0.00000000000E+00 0. -1.
         23    2    1    2    0    0 -0.61292763054E+02 -0.79136697116E+02 -0.99991217856E+02  0.17041467422E+03  0.94992093917E+02 0.  0.
         23    2    1    2    0    0  0.79623878717E+02  0.12041472154E+03 -0.15706251534E+03  0.23208475392E+03  0.91405864428E+02 0.  0.
        -11    1    4    4    0    0  0.37917403356E+02  0.10646162290E+03 -0.14958240923E+03  0.18747454168E+03  0.00000000000E+00 0. -1.
         11    1    4    4    0    0  0.41706475361E+02  0.13953098645E+02 -0.74801061108E+01  0.44610212242E+02  0.00000000000E+00 0.  1.
        -13    1    3    3    0    0 -0.73911907737E+02 -0.43532342247E+02 -0.10114688557E+03  0.13262249955E+03  0.00000000000E+00 0. -1.
         13    1    3    3    0    0  0.12619144683E+02 -0.35604354868E+02  0.11556677115E+01  0.37792174666E+02  0.00000000000E+00 0.  1.
          1    1    1    2  501    0 -0.18331115663E+02 -0.41278024426E+02  0.12684560561E+03  0.13464662181E+03  0.00000000000E+00 0. -1.
<scales pt_clust_5="13000.00000" pt_clust_6="13000.00000" pt_clust_7="13000.00000" pt_clust_8="13000.00000" pt_clust_9="45.16531"></scales>
<clustering>
<clus scale="   45.165">  1  9  2 -1</clus>
<clus scale="   91.406">  5  6 -1 -1</clus>
<clus scale="   94.992">  7  8 -1 -1</clus>
<clus scale="  152.000">  1  5  2 -1</clus>
<clus scale="   45.165">  1  5  2 -1</clus>
</clustering>
</event>
<event>
 9    1  0.1426358E-005  0.1101935E+03  0.7546771E-02  0.1263404E+00
          2   -1    0    0  502    0 -0.00000000000E+00  0.00000000000E+00  0.55694817275E+03  0.55694817275E+03  0.00000000000E+00 0. -1.
         21   -1    0    0  501  502  0.00000000000E+00 -0.00000000000E+00 -0.26419361228E+02  0.26419361228E+02  0.00000000000E+00 0.  1.
         23    2    1    2    0    0  0.42763502128E+02  0.26668842612E+02  0.26471730851E+03  0.28348420357E+03  0.88023269480E+02 0.  0.
         23    2    1    2    0    0 -0.60633635569E+02 -0.16251612629E+02  0.19533320523E+03  0.22643232083E+03  0.95791347073E+02 0.  0.
        -11    1    4    4    0    0 -0.77016102482E+02  0.87449163797E+01  0.99989853012E+02  0.12651452213E+03  0.00000000000E+00 0.  1.
         11    1    4    4    0    0  0.16382466913E+02 -0.24996529008E+02  0.95343352216E+02  0.99917798697E+02  0.00000000000E+00 0. -1.
        -13    1    3    3    0    0 -0.95260984964E+01  0.42948446688E+02  0.15081143055E+03  0.15709679567E+03  0.00000000000E+00 0.  1.
         13    1    3    3    0    0  0.52289600625E+02 -0.16279604075E+02  0.11390587796E+03  0.12638740790E+03  0.00000000000E+00 0. -1.
          2    1    1    2  501    0  0.17870133441E+02 -0.10417229984E+02  0.70478297787E+02  0.73451009582E+02  0.00000000000E+00 0. -1.
<scales pt_clust_5="13000.00000" pt_clust_6="13000.00000" pt_clust_7="13000.00000" pt_clust_8="13000.00000" pt_clust_9="20.68480"></scales>
<clustering>
<clus scale="   20.685">  2  9  1 -1</clus>
<clus scale="   88.023">  7  8 -1 -1</clus>
<clus scale="   95.791">  5  6 -1 -1</clus>
<clus scale="  103.512">  1  7  2 -1</clus>
<clus scale="   20.685">  2  5  1 -1</clus>
</clustering>
</event>
<event>
 9    1  0.1426358E-005  0.1113436E+03  0.7546771E-02  0.1258456E+00
          3   -1    0    0  502    0 -0.00000000000E+00  0.00000000000E+00  0.39535702078E+03  0.39535702078E+03  0.00000000000E+00 0. -1.
         21   -1    0    0  501  502  0.00000000000E+00 -0.00000000000E+00 -0.90827415940E+02  0.90827415940E+02  0.00000000000E+00 0.  1.
         23    2    1    2    0    0 -0.50612547290E+02  0.39485469908E+02  0.32346340806E+03  0.34205078474E+03  0.90826376729E+02 0.  0.
         23    2    1    2    0    0  0.33909940851E+02 -0.62366594423E+02 -0.14086177347E+02  0.11539304661E+03  0.89875795541E+02 0.  0.
        -11    1    3    3    0    0  0.21953785953E+02  0.25525884797E+02  0.14570329769E+03  0.14954260420E+03  0.00000000000E+00 0.  1.
         11    1    3    3    0    0 -0.72566333243E+02  0.13959585110E+02  0.17776011037E+03  0.19250818054E+03  0.00000000000E+00 0. -1.
        -13    1    4    4    0    0  0.63173231660E+02 -0.38957186813E+02 -0.21332560782E+02  0.77224333939E+02  0.00000000000E+00 0.  1.
         13    1    4    4    0    0 -0.29263290810E+02 -0.23409407610E+02  0.72463834349E+01  0.38168712666E+02  0.00000000000E+00 0. -1.
          3    1    1    2  501    0  0.16702606439E+02  0.22881124516E+02 -0.48476258701E+01  0.28740605379E+02  0.00000000000E+00 0. -1.
<scales pt_clust_5="13000.00000" pt_clust_6="13000.00000" pt_clust_7="13000.00000" pt_clust_8="13000.00000" pt_clust_9="28.32884"></scales>
<clustering>
<clus scale="   28.329">  2  9  1 -1</clus>
<clus scale="   89.876">  7  8 -1 -1</clus>
<clus scale="   90.826">  5  6 -1 -1</clus>
<clus scale="  110.570">  2  7  1 -1</clus>
<clus scale="   28.329">  2  5  1 -1</clus>
</clustering>
</event>
<event>
 9    1  0.1426358E-005  0.1015602E+03  0.7546771E-02  0.1277800E+00
         21   -1    0    0  501  502  0.00000000000E+00  0.00000000000E+00  0.19632139137E+03  0.19632139137E+03  0.00000000000E+00 0.  1.
          1   -1    0    0  502    0 -0.00000000000E+00 -0.00000000000E+00 -0.80592499818E+02  0.80592499818E+02  0.00000000000E+00 0. -1.
         23    2    1    2    0    0 -0.21942769908E+02  0.32516591117E+02  0.16523723585E+02  0.10049555466E+03  0.91035757903E+02 0.  0.
         23    2    1    2    0    0 -0.98275369949E+01 -0.53817099183E+02  0.70977074525E+02  0.12888004350E+03  0.92625373716E+02 0.  0.
        -11    1    4    4    0    0 -0.36347010044E+02 -0.65337581162E+02  0.34525822787E+02  0.82353731490E+02  0.00000000000E+00 0. -1.
         11    1    4    4    0    0  0.26519473049E+02  0.11520481978E+02  0.36451251738E+02  0.46526312008E+02  0.00000000000E+00 0.  1.
        -13    1    3    3    0    0 -0.27604908907E+02  0.59934203731E+02 -0.34951378098E+01  0.66078406162E+02  0.00000000000E+00 0.  1.
         13    1    3    3    0    0  0.56621389985E+01 -0.27417612614E+02  0.20018861395E+02  0.34417148502E+02  0.00000000000E+00 0. -1.
          1    1    1    2  501    0  0.31770306903E+02  0.21300508067E+02  0.28228093448E+02  0.47538293031E+02  0.00000000000E+00 0. -1.
<scales pt_clust_5="13000.00000" pt_clust_6="13000.00000" pt_clust_7="13000.00000" pt_clust_8="13000.00000" pt_clust_9="38.25002"></scales>
<clustering>
<clus scale="   38.250">  1  9  2 -1</clus>
<clus scale="   91.036">  7  8 -1 -1</clus>
<clus scale="   92.625">  5  6 -1 -1</clus>
<clus scale="  100.113">  2  7  1 -1</clus>
<clus scale="   38.250">  1  5  2 -1</clus>
</clustering>
</event>
<event>
 9    1  0.1426358E-005  0.1497096E+03  0.7546771E-02  0.1205117E+00
         -2   -1    0    0    0  501 -0.00000000000E+00  0.00000000000E+00  0.58634642259E+03  0.58634642259E+03  0.00000000000E+00 0.  1.
         21   -1    0    0  501  502  0.00000000000E+00 -0.00000000000E+00 -0.23053297596E+03  0.23053297596E+03  0.00000000000E+00 0.  1.
         23    2    1    2    0    0  0.90385169702E+02 -0.47107797080E+02  0.50535027271E+03  0.52361587204E+03  0.91684567303E+02 0.  0.
         23    2    1    2    0    0 -0.52671506044E+02  0.74613956098E+02 -0.18544765289E+03  0.23436958205E+03  0.11043884749E+03 0.  0.
        -11    1    4    4    0    0 -0.51264478521E+01 -0.28075073380E+02 -0.24447939294E+02  0.37579142467E+02  0.00000000000E+00 0. -1.
         11    1    4    4    0    0 -0.47545058191E+02  0.10268902948E+03 -0.16099971360E+03  0.19679043959E+03  0.00000000000E+00 0.  1.
        -13    1    3    3    0    0  0.84456975323E+02 -0.11761112774E+02  0.44758408150E+03  0.45563451852E+03  0.00000000000E+00 0.  1.
         13    1    3    3    0    0  0.59281943784E+01 -0.35346684307E+02  0.57766191201E+02  0.67981353516E+02  0.00000000000E+00 0. -1.
         -2    1    1    2    0  502 -0.37713663658E+02 -0.27506159017E+02  0.35910826820E+02  0.58893944454E+02  0.00000000000E+00 0.  1.
<scales pt_clust_5="13000.00000" pt_clust_6="13000.00000" pt_clust_7="13000.00000" pt_clust_8="13000.00000" pt_clust_9="46.67881"></scales>
<clustering>
<clus scale="   46.679">  2  9  1 -1</clus>
<clus scale="   91.685">  7  8 -1 -1</clus>
<clus scale="  110.439">  5  6 -1 -1</clus>
<clus scale="  136.463">  1  7  2 -1</clus>
<clus scale="   46.679">  2  5  1 -1</clus>
</clustering>
</event>
<event>
 9    1  0.1426358E-005  0.1342338E+03  0.7546771E-02  0.1223689E+00
         -1   -1    0    0    0  501 -0.00000000000E+00  0.00000000000E+00  0.35056114176E+03  0.35056114176E+03  0.00000000000E+00 0.  1.
         21   -1    0    0  501  502  0.00000000000E+00 -0.00000000000E+00 -0.21856521470E+03  0.21856521470E+03  0.00000000000E+00 0.  1.
         23    2    1    2    0    0 -0.71396524077E+02  0.58339148887E+02  0.22964829949E+03  0.26472291207E+03  0.94015736830E+02 0.  0.
         23    2    1    2    0    0  0.11359094290E+03 -0.23425100735E+02  0.46007269334E+02  0.15065868055E+03  0.84437737645E+02 0.  0.
        -11    1    3    3    0    0 -0.27154095287E+02  0.78556548551E+01  0.30977647352E+01  0.28436813296E+02  0.00000000000E+00 0. -1.
         11    1    3    3    0    0 -0.44242428790E+02  0.50483494032E+02  0.22655053476E+03  0.23628609877E+03  0.00000000000E+00 0.  1.
        -11    1    4    4    0    0  0.11172273525E+03  0.38504875779E+01  0.50989826473E+02  0.12286886599E+03  0.00000000000E+00 0.  1.
         11    1    4    4    0    0  0.18682076588E+01 -0.27275588313E+02 -0.49825571390E+01  0.27789814561E+02  0.00000000000E+00 0. -1.
         -1    1    1    2    0  502 -0.42194418827E+02 -0.34914048152E+02 -0.14365964176E+03  0.15374476384E+03  0.00000000000E+00 0.  1.
<scales pt_clust_5="13000.00000" pt_clust_6="13000.00000" pt_clust_7="13000.00000" pt_clust_8="13000.00000" pt_clust_9="54.76641"></scales>
<clustering>
<clus scale="   54.766">  2  9  1 -1</clus>
<clus scale="   84.438">  7  8 -1 -1</clus>
<clus scale="   94.016">  5  6 -1 -1</clus>
<clus scale="  127.709">  2  7  1 -1</clus>
<clus scale="   54.766">  2  5  1 -1</clus>
</clustering>
</event>
<event>
 9    1  0.1426358E-005  0.1088726E+03  0.7546771E-02  0.1263009E+00
         21   -1    0    0  501  502  0.00000000000E+00  0.00000000000E+00  0.18280092263E+03  0.18280092263E+03  0.00000000000E+00 0. -1.
          3   -1    0    0  502    0 -0.00000000000E+00 -0.00000000000E+00 -0.28208552634E+03  0.28208552634E+03  0.00000000000E+00 0. -1.
         23    2    1    2    0    0  0.61810371290E+02  0.96704434745E+01 -0.13434643806E+03  0.17385196692E+03  0.90892802276E+02 0.  0.
         23    2    1    2    0    0 -0.54943246038E+02  0.11907977082E+02 -0.10429552286E+03  0.14984928931E+03  0.91742537659E+02 0.  0.
        -11    1    3    3    0    0  0.21579196639E+02  0.11896155211E+02 -0.13113664026E+03  0.13343162540E+03  0.00000000000E+00 0. -1.
         11    1    3    3    0    0  0.40231174651E+02 -0.22257117369E+01 -0.32097977930E+01  0.40420341518E+02  0.00000000000E+00 0.  1.
        -13    1    4    4    0    0 -0.76133552401E+02 -0.10370379038E+02 -0.75591510682E+02  0.10778654392E+03  0.00000000000E+00 0.  1.
         13    1    4    4    0    0  0.21190306363E+02  0.22278356121E+02 -0.28704012177E+02  0.42062745396E+02  0.00000000000E+00 0. -1.
          3    1    1    2  501    0 -0.68671252524E+01 -0.21578420557E+02  0.13935735721E+03  0.14118519275E+03  0.00000000000E+00 0. -1.
<scales pt_clust_5="13000.00000" pt_clust_6="13000.00000" pt_clust_7="13000.00000" pt_clust_8="13000.00000" pt_clust_9="22.64477"></scales>
<clustering>
<clus scale="   22.645">  1  9  2 -1</clus>
<clus scale="   90.893">  5  6 -1 -1</clus>
<clus scale="   91.743">  7  8 -1 -1</clus>
<clus scale="  108.157">  2  5  1 -1</clus>
<clus scale="   22.645">  1  5  2 -1</clus>
</clustering>
</event>
<event>
 9    1  0.1426358E-005  0.1593100E+03  0.7546771E-02  0.1190554E+00
         -3   -1    0    0    0  501 -0.00000000000E+00  0.00000000000E+00  0.64537898876E+03  0.64537898876E+03  0.00000000000E+00 0.  1.
         21   -1    0    0  501  502  0.00000000000E+00 -0.00000000000E+00 -0.60837056046E+02  0.60837056046E+02  0.00000000000E+00 0. -1.
         23    2    1    2    0    0 -0.11764675888E+03 -0.68763624857E+02  0.41971469559E+03  0.45178467292E+03  0.96849207577E+02 0.  0.
         23    2    1    2    0    0  0.10868821870E+03  0.19173992818E+02  0.11228843048E+03  0.18163224243E+03  0.90558318135E+02 0.  0.
        -13    1    4    4    0    0  0.50203871824E+02  0.13282097730E+02  0.11132747663E+03  0.12284400645E+03  0.00000000000E+00 0.  1.
         13    1    4    4    0    0  0.58484346876E+02  0.58918950886E+01  0.96095384987E+00  0.58788235979E+02  0.00000000000E+00 0. -1.
        -13    1    3    3    0    0 -0.90273906652E+02 -0.90686809325E+02  0.28197343667E+03  0.30964898611E+03  0.00000000000E+00 0. -1.
         13    1    3    3    0    0 -0.27372852223E+02  0.21923184468E+02  0.13774125892E+03  0.14213568681E+03  0.00000000000E+00 0.  1.
         -3    1    1    2    0  502  0.89585401758E+01  0.49589632039E+02  0.52538806638E+02  0.72799129464E+02  0.00000000000E+00 0.  1.
<scales pt_clust_5="13000.00000" pt_clust_6="13000.00000" pt_clust_7="13000.00000" pt_clust_8="13000.00000" pt_clust_9="50.39233"></scales>
<clustering>
<clus scale="   50.392">  2  9  1 -1</clus>
<clus scale="   90.558">  5  6 -1 -1</clus>
<clus scale="   96.849">  7  8 -1 -1</clus>
<clus scale="  155.566">  2  5  1 -1</clus>
<clus scale="   50.392">  2  5  1 -1</clus>
</clustering>
</event>
<event>
 9    1  0.1426358E-005  0.1463184E+03  0.7546771E-02  0.1205256E+00
          2   -1    0    0  502    0 -0.00000000000E+00  0.00000000000E+00  0.24358165028E+03  0.24358165028E+03  0.00000000000E+00 0. -1.
         21   -1    0    0  501  502  0.00000000000E+00 -0.00000000000E+00 -0.33775901374E+03  0.33775901374E+03  0.00000000000E+00 0.  1.
         23    2    1    2    0    0 -0.18193579370E+02 -0.11015795741E+03  0.17713064355E+03  0.22839735927E+03  0.91237639860E+02 0.  0.
         23    2    1    2    0    0 -0.81499650196E+01  0.12868705539E+03 -0.12148455492E+03  0.19969717397E+03  0.92161185177E+02 0.  0.
        -11    1    4    4    0    0  0.20110010651E+02 -0.57826705734E+01 -0.19209948203E+02  0.28405526175E+02  0.00000000000E+00 0.  1.
         11    1    4    4    0    0 -0.28259975670E+02  0.13446972596E+03 -0.10227460672E+03  0.17129164779E+03  0.00000000000E+00 0. -1.
        -13    1    3    3    0    0 -0.39261282775E+02 -0.10517105990E+03  0.10731766992E+03  0.15530448301E+03  0.00000000000E+00 0.  1.
         13    1    3    3    0    0  0.21067703405E+02 -0.49868975096E+01  0.69812973627E+02  0.73092876262E+02  0.00000000000E+00 0. -1.
          2    1    1    2  501    0  0.26343544389E+02 -0.18529097980E+02 -0.14982345208E+03  0.15324613077E+03  0.00000000000E+00 0. -1.
<scales pt_clust_5="13000.00000" pt_clust_6="13000.00000" pt_clust_7="13000.00000" pt_clust_8="13000.00000" pt_clust_9="32.20729"></scales>
<clustering>
<clus scale="   32.207">  2  9  1 -1</clus>
<clus scale="   91.238">  7  8 -1 -1</clus>
<clus scale="   92.161">  5  6 -1 -1</clus>
<clus scale="  145.739">  1  7  2 -1</clus>
<clus scale="   32.207">  2  5  1 -1</clus>
</clustering>
</event>
<event>
 9    1  0.1426358E-005  0.9142545E+02  0.7546771E-02  0.1301282E+00
         21   -1    0    0  501  502  0.00000000000E+00  0.00000000000E+00  0.26784400067E+02  0.26784400067E+02  0.00000000000E+00 0. -1.
          1   -1    0    0  502    0 -0.00000000000E+00 -0.00000000000E+00 -0.69511503833E+03  0.69511503833E+03  0.00000000000E+00 0. -1.
         23    2    1    2    0    0 -0.47219288203E+01  0.16513488275E+02 -0.33865216252E+03  0.35030828949E+03  0.87952365515E+02 0.  0.
         23    2    1    2    0    0 -0.32330889241E+02  0.36616218050E+02 -0.23684825962E+03  0.25839606931E+03  0.91024154617E+02 0.  0.
        -11    1    4    4    0    0 -0.32178179844E+02  0.60455164142E+02 -0.11190079359E+03  0.13119470163E+03  0.00000000000E+00 0. -1.
         11    1    4    4    0    0 -0.15270939731E+00 -0.23838946093E+02 -0.12494746604E+03  0.12720136768E+03  0.00000000000E+00 0.  1.
        -13    1    3    3    0    0  0.10421456283E+01  0.51184898413E+02 -0.24467471969E+03  0.24997339528E+03  0.00000000000E+00 0. -1.
         13    1    3    3    0    0 -0.57640744486E+01 -0.34671410138E+02 -0.93977442837E+02  0.10033489422E+03  0.00000000000E+00 0.  1.
          1    1    1    2  501    0  0.37052818062E+02 -0.53129706325E+02 -0.92830216120E+02  0.11319507960E+03  0.00000000000E+00 0. -1.
<scales pt_clust_5="13000.00000" pt_clust_6="13000.00000" pt_clust_7="13000.00000" pt_clust_8="13000.00000" pt_clust_9="64.77405"></scales>
<clustering>
<clus scale="   64.774">  1  9  2 -1</clus>
<clus scale="   87.952">  7  8 -1 -1</clus>
<clus scale="   88.368">  2  7  1 -1</clus>
<clus scale="   91.024">  5  6 -1 -1</clus>
<clus scale="   64.774">  1  5  2 -1</clus>
</clustering>
</event>
<event>
 9    1  0.1426358E-005  0.1432965E+03  0.7546771E-02  0.1209557E+00
          2   -1    0    0  502    0 -0.00000000000E+00  0.00000000000E+00  0.75323963077E+03  0.75323963077E+03  0.00000000000E+00 0. -1.
         21   -1    0    0  501  502  0.00000000000E+00 -0.00000000000E+00 -0.64024256021E+02  0.64024256021E+02  0.00000000000E+00 0. -1.
         23    2    1    2    0    0  0.38583837261E+02  0.74484627058E+02  0.27540531487E+03  0.30117081444E+03  0.88425674130E+02 0.  0.
         23    2    1    2    0    0 -0.55258430224E+02 -0.13464400745E+03  0.41958539634E+03  0.45339899280E+03  0.91303006480E+02 0.  0.
        -11    1    3    3    0    0  0.66577975260E+02  0.45905026079E+02  0.20170297674E+03  0.21731081206E+03  0.00000000000E+00 0.  1.
         11    1    3    3    0    0 -0.27994137999E+02  0.28579600979E+02  0.73702338126E+02  0.83860002383E+02  0.00000000000E+00 0. -1.
        -13    1    4    4    0    0 -0.44014141116E+02 -0.24850807090E+02  0.66897626213E+02  0.83845689359E+02  0.00000000000E+00 0.  1.
         13    1    4    4    0    0 -0.11244289108E+02 -0.10979320036E+03  0.35268777013E+03  0.36955330344E+03  0.00000000000E+00 0. -1.
          2    1    1    2  501    0  0.16674592963E+02  0.60159380393E+02 -0.57753364652E+01  0.62694079553E+02  0.00000000000E+00 0. -1.
<scales pt_clust_5="13000.00000" pt_clust_6="13000.00000" pt_clust_7="13000.00000" pt_clust_8="13000.00000" pt_clust_9="62.42750"></scales>
<clustering>
<clus scale="   62.428">  2  9  1 -1</clus>
<clus scale="   88.426">  5  6 -1 -1</clus>
<clus scale="   91.303">  7  8 -1 -1</clus>
<clus scale="  141.481">  1  5  2 -1</clus>
<clus scale="   62.428">  2  5  1 -1</clus>
</clustering>
</event>
<event>
 9    1  0.1426358E-005  0.1029960E+03  0.7546771E-02  0.1274349E+00
          2   -1    0    0  502    0 -0.00000000000E+00  0.00000000000E+00  0.53625144890E+03  0.53625144890E+03  0.00000000000E+00 0. -1.
         21   -1    0    0  501  502  0.00000000000E+00 -0.00000000000E+00 -0.28697149485E+02  0.28697149485E+02  0.00000000000E+00 0.  1.
         23    2    1    2    0    0  0.82351813469E+01 -0.54729527785E+02  0.30218885405E+03  0.32047017582E+03  0.91213434607E+02 0.  0.
         23    2    1    2    0    0 -0.26060102270E+02  0.31857919857E+02  0.18103335614E+03  0.20662490462E+03  0.90701263410E+02 0.  0.
        -13    1    3    3    0    0 -0.36025711043E+02 -0.45238409107E+00  0.11965510792E+03  0.12496159954E+03  0.00000000000E+00 0. -1.
         13    1    3    3    0    0  0.44260892390E+02 -0.54277143694E+02  0.18253374613E+03  0.19550857628E+03  0.00000000000E+00 0.  1.
        -13    1    4    4    0    0 -0.33768284237E+02 -0.23897756471E+02  0.97329153115E+02  0.10575615268E+03  0.00000000000E+00 0.  1.
         13    1    4    4    0    0  0.77081819672E+01  0.55755676328E+02  0.83704203028E+02  0.10086875193E+03  0.00000000000E+00 0. -1.
          2    1    1    2  501    0  0.17824920923E+02  0.22871607928E+02  0.24332089217E+02  0.37853517945E+02  0.00000000000E+00 0. -1.
<scales pt_clust_5="13000.00000" pt_clust_6="13000.00000" pt_clust_7="13000.00000" pt_clust_8="13000.00000" pt_clust_9="28.99721"></scales>
<clustering>
<clus scale="   28.997">  2  9  1 -1</clus>
<clus scale="   90.701">  7  8 -1 -1</clus>
<clus scale="   91.213">  5  6 -1 -1</clus>
<clus scale="  102.543">  2  7  1 -1</clus>
<clus scale="   28.997">  2  5  1 -1</clus>
</clustering>
</event>
<event>
 9    1  0.1546621E-005  0.9539228E+02  0.7546771E-02  0.1292235E+00
          1   -1    0    0  502    0 -0.00000000000E+00  0.00000000000E+00  0.23692001410E+03  0.23692001410E+03  0.00000000000E+00 0. -1.
         21   -1    0    0  501  502  0.00000000000E+00 -0.00000000000E+00 -0.20230665890E+03  0.20230665890E+03  0.00000000000E+00 0. -1.
         23    2    1    2    0    0  0.29935610119E+02  0.15732175472E+02  0.17710434889E+03  0.20178400196E+03  0.90593548070E+02 0.  0.
         23    2    1    2    0    0  0.12729230209E+02 -0.39786812976E+02 -0.11020419037E+02  0.97145036764E+02  0.87009681896E+02 0.  0.
        -11    1    4    4    0    0  0.26614327602E+02 -0.58238663654E+02 -0.26548409358E+02  0.69317259159E+02  0.00000000000E+00 0. -1.
         11    1    4    4    0    0 -0.13885097392E+02  0.18451850678E+02  0.15527990320E+02  0.27827777605E+02  0.00000000000E+00 0.  1.
        -13    1    3    3    0    0  0.31370858519E+02  0.51246204906E+02  0.12526140167E+03  0.13892704212E+03  0.00000000000E+00 0. -1.
         13    1    3    3    0    0 -0.14352484001E+01 -0.35514029433E+02  0.51842947214E+02  0.62856959841E+02  0.00000000000E+00 0.  1.
          1    1    1    2  501    0 -0.42664840328E+02  0.24054637504E+02 -0.13147057465E+03  0.14029763428E+03  0.00000000000E+00 0. -1.
<scales pt_clust_5="13000.00000" pt_clust_6="13000.00000" pt_clust_7="13000.00000" pt_clust_8="13000.00000" pt_clust_9="48.97871"></scales>
<clustering>
<clus scale="   48.979">  2  9  1 -1</clus>
<clus scale="   87.010">  5  6 -1 -1</clus>
<clus scale="   90.594">  7  8 -1 -1</clus>
<clus scale="   91.996">  2  5  1 -1</clus>
<clus scale="   48.979">  2  5  1 -1</clus>
</clustering>
</event>
<event>
 9    1  0.1426358E-005  0.1090155E+03  0.7546771E-02  0.1263574E+00
          1   -1    0    0  502    0 -0.00000000000E+00  0.00000000000E+00  0.27508171892E+03  0.27508171892E+03  0.00000000000E+00 0. -1.
         21   -1    0    0  501  502  0.00000000000E+00 -0.00000000000E+00 -0.11623522989E+03  0.11623522989E+03  0.00000000000E+00 0. -1.
         23    2    1    2    0    0  0.46609622458E+02 -0.53063857217E+02  0.17736305753E+03  0.21065424434E+03  0.89046766549E+02 0.  0.
         23    2    1    2    0    0 -0.34470180137E+02  0.14740564686E+02  0.42136230851E+02  0.10789730832E+03  0.91983094240E+02 0.  0.
        -11    1    4    4    0    0 -0.65797784139E+02  0.36181189816E+01  0.31121989052E+02  0.72876727321E+02  0.00000000000E+00 0.  1.
         11    1    4    4    0    0  0.31327604001E+02  0.11122445704E+02  0.11014241799E+02  0.35020580996E+02  0.00000000000E+00 0. -1.
        -11    1    3    3    0    0  0.21346982786E+02 -0.19873403855E+02  0.16441198390E+03  0.16697887982E+03  0.00000000000E+00 0. -1.
         11    1    3    3    0    0  0.25262639672E+02 -0.33190453363E+02  0.12951073624E+02  0.43675364516E+02  0.00000000000E+00 0.  1.
          1    1    1    2  501    0 -0.12139442321E+02  0.38323292531E+02 -0.60652799340E+02  0.72765396158E+02  0.00000000000E+00 0. -1.
<scales pt_clust_5="13000.00000" pt_clust_6="13000.00000" pt_clust_7="13000.00000" pt_clust_8="13000.00000" pt_clust_9="40.20001"></scales>
<clustering>
<clus scale="   40.200">  2  9  1 -1</clus>
<clus scale="   89.047">  7  8 -1 -1</clus>
<clus scale="   91.983">  5  6 -1 -1</clus>
<clus scale="  106.550">  1  7  2 -1</clus>
<clus scale="   40.200">  2  5  1 -1</clus>
</clustering>
</event>
<event>
 9    1  0.1426358E-005  0.1478483E+03  0.7546771E-02  0.1203388E+00
         21   -1    0    0  501  502  0.00000000000E+00  0.00000000000E+00  0.16644558647E+03  0.16644558647E+03  0.00000000000E+00 0. -1.
          3   -1    0    0  502    0 -0.00000000000E+00 -0.00000000000E+00 -0.25348366896E+03  0.25348366896E+03  0.00000000000E+00 0. -1.
         23    2    1    2    0    0 -0.82429682110E+02  0.79322657728E+02 -0.15913077199E+03  0.21513733230E+03  0.88739690295E+02 0.  0.
         23    2    1    2    0    0  0.76543074390E+02 -0.10362845994E+03  0.36608039065E+02  0.16138012071E+03  0.90031632729E+02 0.  0.
        -11    1    3    3    0    0 -0.87107918192E+02  0.25798559869E+02 -0.94410073158E+02  0.13102143724E+03  0.00000000000E+00 0.  1.
         11    1    3    3    0    0  0.46782360812E+01  0.53524097860E+02 -0.64720698834E+02  0.84115895062E+02  0.00000000000E+00 0. -1.
        -11    1    4    4    0    0  0.81567172063E+02 -0.62955206625E+02 -0.47631124381E+01  0.10314673451E+03  0.00000000000E+00 0. -1.
         11    1    4    4    0    0 -0.50240976733E+01 -0.40673253312E+02  0.41371151503E+02  0.58233386207E+02  0.00000000000E+00 0.  1.
          3    1    1    2  501    0  0.58866077205E+01  0.24305802208E+02  0.35484650441E+02  0.43411802408E+02  0.00000000000E+00 0. -1.
<scales pt_clust_5="13000.00000" pt_clust_6="13000.00000" pt_clust_7="13000.00000" pt_clust_8="13000.00000" pt_clust_9="25.00848"></scales>
<clustering>
<clus scale="   25.008">  1  9  2 -1</clus>
<clus scale="   88.740">  5  6 -1 -1</clus>
<clus scale="   90.032">  7  8 -1 -1</clus>
<clus scale="  147.065">  2  5  1 -1</clus>
<clus scale="   25.008">  1  5  2 -1</clus>
</clustering>
</event>
<event>
 9    1  0.1426358E-005  0.1418879E+03  0.7546771E-02  0.1211313E+00
         21   -1    0    0  501  502  0.00000000000E+00  0.00000000000E+00  0.76576508460E+02  0.76576508460E+02  0.00000000000E+00 0.  1.
         -1   -1    0    0    0  501 -0.00000000000E+00 -0.00000000000E+00 -0.43275935311E+03  0.43275935311E+03  0.00000000000E+00 0.  1.
         23    2    1    2    0    0 -0.74552143092E+01  0.11569912279E+03 -0.31476321119E+03  0.34776214236E+03  0.91764706220E+02 0.  0.
         23    2    1    2    0    0 -0.42360289640E+01 -0.86816039575E+02 -0.37206732619E+02  0.13013065640E+03  0.89412963897E+02 0.  0.
        -11    1    3    3    0    0  0.22638396385E+02  0.86639270972E+02 -0.27801128280E+03  0.29207727339E+03  0.00000000000E+00 0.  1.
         11    1    3    3    0    0 -0.30093610694E+02  0.29059851822E+02 -0.36751928388E+02  0.55684868975E+02  0.00000000000E+00 0. -1.
        -11    1    4    4    0    0 -0.20371950281E+02 -0.35136108916E+02 -0.59117383809E+02  0.71724665049E+02  0.00000000000E+00 0.  1.
         11    1    4    4    0    0  0.16135921317E+02 -0.51679930658E+02  0.21910651189E+02  0.58405991346E+02  0.00000000000E+00 0. -1.
         -1    1    1    2    0  502  0.11691243273E+02 -0.28883083219E+02 -0.42129008436E+01  0.31443062813E+02  0.00000000000E+00 0.  1.
<scales pt_clust_5="13000.00000" pt_clust_6="13000.00000" pt_clust_7="13000.00000" pt_clust_8="13000.00000" pt_clust_9="31.15955"></scales>
<clustering>
<clus scale="   31.160">  1  9  2 -1</clus>
<clus scale="   89.413">  7  8 -1 -1</clus>
<clus scale="   91.765">  5  6 -1 -1</clus>
<clus scale="  140.378">  1  7  2 -1</clus>
<clus scale="   31.160">  1  5  2 -1</clus>
</clustering>
</event>
<event>
 9    1  0.1426358E-005  0.9815931E+02  0.7546771E-02  0.1285270E+00
          2   -1    0    0  502    0 -0.00000000000E+00  0.00000000000E+00  0.64097542817E+02  0.64097542817E+02  0.00000000000E+00 0. -1.
         21   -1    0    0  501  502  0.00000000000E+00 -0.00000000000E+00 -0.24682001978E+03  0.24682001978E+03  0.00000000000E+00 0.  1.
         23    2    1    2    0    0 -0.14614067471E+01  0.46844393294E+02 -0.36258025156E+02  0.10813259241E+03  0.90451535421E+02 0.  0.
         23    2    1    2    0    0 -0.21427578865E+02 -0.84462121457E+01 -0.94406224838E+02  0.13416729774E+03  0.92508642071E+02 0.  0.
        -13    1    4    4    0    0 -0.41640028383E+02  0.11613095425E+02 -0.96371404591E+02  0.10562293109E+03  0.00000000000E+00 0. -1.
         13    1    4    4    0    0  0.20212449518E+02 -0.20059307571E+02  0.19651797531E+01  0.28544366646E+02  0.00000000000E+00 0.  1.
        -13    1    3    3    0    0 -0.14519704338E+02 -0.15695005431E+02 -0.38682658938E+02  0.44198451467E+02  0.00000000000E+00 0.  1.
         13    1    3    3    0    0  0.13058297591E+02  0.62539398725E+02  0.24246337821E+01  0.63934140941E+02  0.00000000000E+00 0. -1.
          2    1    1    2  501    0  0.22888985612E+02 -0.38398181148E+02 -0.52058226968E+02  0.68617672454E+02  0.00000000000E+00 0. -1.
<scales pt_clust_5="13000.00000" pt_clust_6="13000.00000" pt_clust_7="13000.00000" pt_clust_8="13000.00000" pt_clust_9="44.70264"></scales>
<clustering>
<clus scale="   44.703">  2  9  1 -1</clus>
<clus scale="   90.452">  7  8 -1 -1</clus>
<clus scale="   92.509">  5  6 -1 -1</clus>
<clus scale="   96.223">  1  7  2 -1</clus>
<clus scale="   44.703">  2  5  1 -1</clus>
</clustering>
</event>
<event>
 9    1  0.1426358E-005  0.9844676E+02  0.7546771E-02  0.1284819E+00
          3   -1    0    0  502    0 -0.00000000000E+00  0.00000000000E+00  0.44554248482E+02  0.44554248482E+02  0.00000000000E+00 0. -1.
         21   -1    0    0  501  502  0.00000000000E+00 -0.00000000000E+00 -0.30062666133E+03  0.30062666133E+03  0.00000000000E+00 0.  1.
         23    2    1    2    0    0  0.26313932301E+02 -0.26157065544E+02 -0.10888847442E+03  0.14778089685E+03  0.92767874288E+02 0.  0.
         23    2    1    2    0    0  0.57503426614E+01  0.36452140634E+02 -0.11455675820E+03  0.15051036390E+03  0.90378613588E+02 0.  0.
        -11    1    4    4    0    0 -0.11850537408E+02 -0.26800901612E+02 -0.20331603874E+02  0.35666478382E+02  0.00000000000E+00 0. -1.
         11    1    4    4    0    0  0.17600880070E+02  0.63253042246E+02 -0.94225154330E+02  0.11484388552E+03  0.00000000000E+00 0.  1.
        -13    1    3    3    0    0 -0.18513094394E+02  0.85352885956E+01  0.46229552883E+01  0.20903529153E+02  0.00000000000E+00 0.  1.
         13    1    3    3    0    0  0.44827026695E+02 -0.34692354140E+02 -0.11351142971E+03  0.12687736770E+03  0.00000000000E+00 0. -1.
          3    1    1    2  501    0 -0.32064274962E+02 -0.10295075090E+02 -0.32627180218E+02  0.46889649060E+02  0.00000000000E+00 0. -1.
<scales pt_clust_5="13000.00000" pt_clust_6="13000.00000" pt_clust_7="13000.00000" pt_clust_8="13000.00000" pt_clust_9="33.67651"></scales>
<clustering>
<clus scale="   33.677">  2  9  1 -1</clus>
<clus scale="   90.379">  5  6 -1 -1</clus>
<clus scale="   92.768">  7  8 -1 -1</clus>
<clus scale="   96.199">  2  5  1 -1</clus>
<clus scale="   33.677">  2  5  1 -1</clus>
</clustering>
</event>
<event>
 9    1  0.1426358E-005  0.1009194E+03  0.7546771E-02  0.1278770E+00
         -3   -1    0    0    0  501 -0.00000000000E+00  0.00000000000E+00  0.13631904028E+03  0.13631904028E+03  0.00000000000E+00 0.  1.
         21   -1    0    0  501  502  0.00000000000E+00 -0.00000000000E+00 -0.21318242664E+03  0.21318242664E+03  0.00000000000E+00 0.  1.
         23    2    1    2    0    0  0.39724660104E+02 -0.27209108452E+02  0.62291435010E+02  0.12076541463E+03  0.91573349252E+02 0.  0.
         23    2    1    2    0    0 -0.36510514513E+02 -0.21389085584E+02 -0.25051956429E+02  0.10467324970E+03  0.92403344261E+02 0.  0.
        -11    1    4    4    0    0 -0.65773703902E+02 -0.11735756286E+02 -0.31846686231E+01  0.66888341397E+02  0.00000000000E+00 0.  1.
         11    1    4    4    0    0  0.29263189390E+02 -0.96533292979E+01 -0.21867287806E+02  0.37784908307E+02  0.00000000000E+00 0. -1.
        -11    1    3    3    0    0 -0.38489857963E+01 -0.41367094861E+02 -0.22601778201E+01  0.41607206500E+02  0.00000000000E+00 0.  1.
         11    1    3    3    0    0  0.43573645900E+02  0.14157986410E+02  0.64551612830E+02  0.79158208135E+02  0.00000000000E+00 0. -1.
         -3    1    1    2    0  502 -0.32141455912E+01  0.48598194035E+02 -0.11410286495E+03  0.12406280258E+03  0.00000000000E+00 0.  1.
<scales pt_clust_5="13000.00000" pt_clust_6="13000.00000" pt_clust_7="13000.00000" pt_clust_8="13000.00000" pt_clust_9="48.70437"></scales>
<clustering>
<clus scale="   48.704">  2  9  1 -1</clus>
<clus scale="   91.573">  7  8 -1 -1</clus>
<clus scale="   92.403">  5  6 -1 -1</clus>
<clus scale="  100.160">  1  7  2 -1</clus>
<clus scale="   48.704">  2  5  1 -1</clus>
</clustering>
</event>
<event>
 9    1  0.1426358E-005  0.2450715E+03  0.7546771E-02  0.1116690E+00
         21   -1    0    0  501  502  0.00000000000E+00  0.00000000000E+00  0.58821822942E+03  0.58821822942E+03  0.00000000000E+00 0. -1.
          3   -1    0    0  502    0 -0.00000000000E+00 -0.00000000000E+00 -0.31450329716E+03  0.31450329716E+03  0.00000000000E+00 0. -1.
         23    2    1    2    0    0  0.22818779238E+02  0.22725666364E+03 -0.17311573942E+03  0.30003668054E+03  0.88806883649E+02 0.  0.
         23    2    1    2    0    0 -0.90618640169E+02 -0.21152795811E+03  0.13346861594E+03  0.28168641724E+03  0.92615070081E+02 0.  0.
        -11    1    4    4    0    0 -0.11031459681E+02 -0.41395223994E+02  0.72500303718E+02  0.84211351440E+02  0.00000000000E+00 0.  1.
         11    1    4    4    0    0 -0.79587180488E+02 -0.17013273412E+03  0.60968312222E+02  0.19747506580E+03  0.00000000000E+00 0. -1.
        -11    1    3    3    0    0 -0.16188361867E+02  0.85436587785E+02 -0.23164228933E+02  0.89989194320E+02  0.00000000000E+00 0.  1.
         11    1    3    3    0    0  0.39007141105E+02  0.14182007585E+03 -0.14995151048E+03  0.21004748622E+03  0.00000000000E+00 0. -1.
          3    1    1    2  501    0  0.67799860931E+02 -0.15728705529E+02  0.31336205574E+03  0.32099842881E+03  0.00000000000E+00 0. -1.
<scales pt_clust_5="13000.00000" pt_clust_6="13000.00000" pt_clust_7="13000.00000" pt_clust_8="13000.00000" pt_clust_9="69.60038"></scales>
<clustering>
<clus scale="   69.600">  1  9  2 -1</clus>
<clus scale="   88.807">  7  8 -1 -1</clus>
<clus scale="   92.615">  5  6 -1 -1</clus>
<clus scale="  243.658">  2  7  1 -1</clus>
<clus scale="   69.600">  1  5  2 -1</clus>
</clustering>
</event>
<event>
 9    1  0.1426358E-005  0.1996434E+03  0.7546771E-02  0.1150362E+00
         21   -1    0    0  501  502  0.00000000000E+00  0.00000000000E+00  0.11363770703E+03  0.11363770703E+03  0.00000000000E+00 0. -1.
          2   -1    0    0  502    0 -0.00000000000E+00 -0.00000000000E+00 -0.57864195809E+03  0.57864195809E+03  0.00000000000E+00 0. -1.
         23    2    1    2    0    0  0.13557340176E+03  0.11265158367E+03 -0.37368744372E+03  0.42367323374E+03  0.93734608482E+02 0.  0.
         23    2    1    2    0    0 -0.15383546269E+03 -0.89518748517E+02 -0.11534562604E+03  0.23057992668E+03  0.90462883136E+02 0.  0.
        -11    1    3    3    0    0  0.37098374467E+02 -0.10926299877E+02 -0.10590106335E+03  0.11274177857E+03  0.00000000000E+00 0.  1.
         11    1    3    3    0    0  0.98475027295E+02  0.12357788355E+03 -0.26778638037E+03  0.31093145517E+03  0.00000000000E+00 0. -1.
        -11    1    4    4    0    0 -0.29664282522E+02  0.14525451764E+02 -0.40119939294E+02  0.51966988901E+02  0.00000000000E+00 0.  1.
         11    1    4    4    0    0 -0.12417118017E+03 -0.10404420028E+03 -0.75225686743E+02  0.17861293778E+03  0.00000000000E+00 0. -1.
          2    1    1    2  501    0  0.18262060926E+02 -0.23132835151E+02  0.24028818700E+02  0.38026504698E+02  0.00000000000E+00 0. -1.
<scales pt_clust_5="13000.00000" pt_clust_6="13000.00000" pt_clust_7="13000.00000" pt_clust_8="13000.00000" pt_clust_9="29.47255"></scales>
<clustering>
<clus scale="   29.473">  1  9  2 -1</clus>
<clus scale="   90.463">  7  8 -1 -1</clus>
<clus scale="   93.735">  5  6 -1 -1</clus>
<clus scale="  198.128">  1  7  2 -1</clus>
<clus scale="   29.473">  1  5  2 -1</clus>
</clustering>
</event>
<event>
 9    1  0.1426358E-005  0.9544381E+02  0.7546771E-02  0.1290986E+00
         21   -1    0    0  501  502  0.00000000000E+00  0.00000000000E+00  0.90180783023E+02  0.90180783023E+02  0.00000000000E+00 0.  1.
         -3   -1    0    0    0  501 -0.00000000000E+00 -0.00000000000E+00 -0.23318146396E+03  0.23318146396E+03  0.00000000000E+00 0.  1.
         23    2    1    2    0    0  0.15055952790E+02 -0.19639004923E+02 -0.12173174124E+03  0.15402459809E+03  0.91063646777E+02 0.  0.
         23    2    1    2    0    0 -0.60589436814E+02 -0.17017668835E+02 -0.16292205650E+02  0.11067098221E+03  0.89565336108E+02 0.  0.
        -11    1    4    4    0    0 -0.28392615671E+02  0.20438668418E+02  0.27626250482E+02  0.44576782152E+02  0.00000000000E+00 0. -1.
         11    1    4    4    0    0 -0.32196821143E+02 -0.37456337253E+02 -0.43918456132E+02  0.66094200057E+02  0.00000000000E+00 0.  1.
        -13    1    3    3    0    0 -0.16041426265E+02  0.15188555941E+02  0.16016586017E+01  0.22149151191E+02  0.00000000000E+00 0.  1.
         13    1    3    3    0    0  0.31097379056E+02 -0.34827560864E+02 -0.12333339984E+03  0.13187544690E+03  0.00000000000E+00 0. -1.
         -3    1    1    2    0  502  0.45533484023E+02  0.36656673758E+02 -0.49767340545E+01  0.58666666687E+02  0.00000000000E+00 0.  1.
<scales pt_clust_5="13000.00000" pt_clust_6="13000.00000" pt_clust_7="13000.00000" pt_clust_8="13000.00000" pt_clust_9="58.45520"></scales>
<clustering>
<clus scale="   58.455">  1  9  2 -1</clus>
<clus scale="   89.565">  5  6 -1 -1</clus>
<clus scale="   91.064">  7  8 -1 -1</clus>
<clus scale="   94.015">  1  5  2 -1</clus>
<clus scale="   58.455">  1  5  2 -1</clus>
</clustering>
</event>
<event>
 9    1  0.1426358E-005  0.9682146E+02  0.7546771E-02  0.1289846E+00
          1   -1    0    0  502    0 -0.00000000000E+00  0.00000000000E+00  0.41775669434E+03  0.41775669434E+03  0.00000000000E+00 0. -1.
         21   -1    0    0  501  502  0.00000000000E+00 -0.00000000000E+00 -0.98568890394E+02  0.98568890394E+02  0.00000000000E+00 0. -1.
         23    2    1    2    0    0 -0.30634671040E+02 -0.94447217988E+01  0.25513358398E+03  0.27123529976E+03  0.86300384267E+02 0.  0.
         23    2    1    2    0    0  0.34399182814E+02 -0.23009376800E+02  0.13428009592E+03  0.16763633918E+03  0.91422441733E+02 0.  0.
        -13    1    3    3    0    0  0.17531190045E+02 -0.10294488498E+02  0.12499926409E+02  0.23865608688E+02  0.00000000000E+00 0.  1.
         13    1    3    3    0    0 -0.48165861085E+02  0.84976669905E+00  0.24263365757E+03  0.24736969107E+03  0.00000000000E+00 0. -1.
        -13    1    4    4    0    0  0.57438863129E+02 -0.28274774365E+02  0.12810124566E+03  0.14320829236E+03  0.00000000000E+00 0.  1.
         13    1    4    4    0    0 -0.23039680315E+02  0.52653975647E+01  0.61788502684E+01  0.24428046815E+02  0.00000000000E+00 0. -1.
          1    1    1    2  501    0 -0.37645117737E+01  0.32454098599E+02 -0.70225875957E+02  0.77453945791E+02  0.00000000000E+00 0. -1.
<scales pt_clust_5="13000.00000" pt_clust_6="13000.00000" pt_clust_7="13000.00000" pt_clust_8="13000.00000" pt_clust_9="32.67170"></scales>
<clustering>
<clus scale="   32.672">  2  9  1 -1</clus>
<clus scale="   86.300">  5  6 -1 -1</clus>
<clus scale="   91.422">  7  8 -1 -1</clus>
<clus scale="   92.000">  1  5  2 -1</clus>
<clus scale="   32.672">  2  5  1 -1</clus>
</clustering>
</event>
<event>
 9    1  0.1426358E-005  0.1247027E+03  0.7546771E-02  0.1236006E+00
          2   -1    0    0  502    0 -0.00000000000E+00  0.00000000000E+00  0.50363025135E+03  0.50363025135E+03  0.00000000000E+00 0. -1.
         21   -1    0    0  501  502  0.00000000000E+00 -0.00000000000E+00 -0.40870323026E+02  0.40870323026E+02  0.00000000000E+00 0.  1.
         23    2    1    2    0    0 -0.47694332567E+02 -0.58732660863E+02  0.23709570503E+03  0.26484638357E+03  0.90581227287E+02 0.  0.
         23    2    1    2    0    0  0.50982837588E+02  0.80544948682E+02  0.21999501190E+03  0.25687854322E+03  0.92206519395E+02 0.  0.
        -11    1    4    4    0    0  0.77316775751E+02  0.56056310880E+02  0.17410792567E+03  0.19857936343E+03  0.00000000000E+00 0. -1.
         11    1    4    4    0    0 -0.26333938164E+02  0.24488637802E+02  0.45887086237E+02  0.58299179788E+02  0.00000000000E+00 0.  1.
        -13    1    3    3    0    0 -0.17308333377E+02 -0.65166042193E+02  0.79605658839E+02  0.10432282770E+03  0.00000000000E+00 0. -1.
         13    1    3    3    0    0 -0.30385999190E+02  0.64333813296E+01  0.15749004619E+03  0.16052355587E+03  0.00000000000E+00 0.  1.
          2    1    1    2  501    0 -0.32885050208E+01 -0.21812287818E+02  0.56692113969E+01  0.22775647587E+02  0.00000000000E+00 0. -1.
<scales pt_clust_5="13000.00000" pt_clust_6="13000.00000" pt_clust_7="13000.00000" pt_clust_8="13000.00000" pt_clust_9="22.05879"></scales>
<clustering>
<clus scale="   22.059">  2  9  1 -1</clus>
<clus scale="   90.581">  7  8 -1 -1</clus>
<clus scale="   92.207">  5  6 -1 -1</clus>
<clus scale="  123.506">  1  7  2 -1</clus>
<clus scale="   22.059">  2  5  1 -1</clus>
</clustering>
</event>
<event>
 9    1  0.1426358E-005  0.2108633E+03  0.7546771E-02  0.1141168E+00
         21   -1    0    0  501  502  0.00000000000E+00  0.00000000000E+00  0.13728190645E+03  0.13728190645E+03  0.00000000000E+00 0. -1.
          1   -1    0    0  502    0 -0.00000000000E+00 -0.00000000000E+00 -0.68189332764E+03  0.68189332764E+03  0.00000000000E+00 0. -1.
         23    2    1    2    0    0  0.14451626837E+03 -0.13200768014E+03 -0.38678263531E+03  0.44354092594E+03  0.93897638771E+02 0.  0.
         23    2    1    2    0    0 -0.19781429491E+03  0.22192132208E+02 -0.97257485399E+02  0.23936612902E+03  0.90631888727E+02 0.  0.
        -11    1    3    3    0    0  0.27385645188E+02  0.28658126824E+01 -0.15691148649E+02  0.31692248116E+02  0.00000000000E+00 0.  1.
         11    1    3    3    0    0  0.11713062318E+03 -0.13487349282E+03 -0.37109148666E+03  0.41184867782E+03  0.00000000000E+00 0. -1.
        -13    1    4    4    0    0 -0.17777949820E+03  0.20062546822E+02 -0.11486596699E+03  0.21260819866E+03  0.00000000000E+00 0. -1.
         13    1    4    4    0    0 -0.20034796708E+02  0.21295853861E+01  0.17608481593E+02  0.26757930358E+02  0.00000000000E+00 0.  1.
          1    1    1    2  501    0  0.53298026543E+02  0.10981554793E+03 -0.60571300481E+02  0.13626817913E+03  0.00000000000E+00 0. -1.
<scales pt_clust_5="13000.00000" pt_clust_6="13000.00000" pt_clust_7="13000.00000" pt_clust_8="13000.00000" pt_clust_9="122.06611"></scales>
<clustering>
<clus scale="   90.632">  7  8 -1 -1</clus>
<clus scale="   93.898">  5  6 -1 -1</clus>
<clus scale="  122.066">  1  9  2 -1</clus>
<clus scale="  209.429">  1  7  2 -1</clus>
<clus scale="  122.066">  1  5  2 -1</clus>
</clustering>
</event>
<event>
 9    1  0.1426358E-005  0.9726998E+02  0.7546771E-02  0.1292404E+00
          2   -1    0    0  502    0 -0.00000000000E+00  0.00000000000E+00  0.71219514859E+03  0.71219514859E+03  0.00000000000E+00 0. -1.
         21   -1    0    0  501  502  0.00000000000E+00 -0.00000000000E+00 -0.25429088632E+02  0.25429088632E+02  0.00000000000E+00 0. -1.
         23    2    1    2    0    0  0.32642137881E+02  0.37662292810E+02  0.47454643860E+03  0.48345404831E+03  0.77778769465E+02 0.  0.
         23    2    1    2    0    0 -0.12950884535E+02  0.97622218757E+00  0.17494022370E+03  0.19698248228E+03  0.89606573629E+02 0.  0.
        -11    1    3    3    0    0  0.34861430402E+02  0.60080972550E+02  0.37633812645E+03  0.38269495425E+03  0.00000000000E+00 0. -1.
         11    1    3    3    0    0 -0.22192925208E+01 -0.22418679740E+02  0.98208312151E+02  0.10075909406E+03  0.00000000000E+00 0.  1.
        -13    1    4    4    0    0 -0.20672643677E+02  0.38799341332E+02  0.51841221811E+02  0.67972489753E+02  0.00000000000E+00 0. -1.
         13    1    4    4    0    0  0.77217591415E+01 -0.37823119144E+02  0.12309900189E+03  0.12900999253E+03  0.00000000000E+00 0.  1.
          2    1    1    2  501    0 -0.19691253346E+02 -0.38638514997E+02  0.37279397666E+02  0.57187706632E+02  0.00000000000E+00 0. -1.
<scales pt_clust_5="13000.00000" pt_clust_6="13000.00000" pt_clust_7="13000.00000" pt_clust_8="13000.00000" pt_clust_9="43.36681"></scales>
<clustering>
<clus scale="   43.367">  2  9  1 -1</clus>
<clus scale="   77.779">  5  6 -1 -1</clus>
<clus scale="   86.497">  1  5  2 -1</clus>
<clus scale="   89.607">  7  8 -1 -1</clus>
<clus scale="   43.367">  2  5  1 -1</clus>
</clustering>
</event>
<event>
 9    1  0.1426358E-005  0.9203863E+02  0.7546771E-02  0.1300699E+00
          1   -1    0    0  502    0 -0.00000000000E+00  0.00000000000E+00  0.56997417219E+03  0.56997417219E+03  0.00000000000E+00 0. -1.
         21   -1    0    0  501  502  0.00000000000E+00 -0.00000000000E+00 -0.17410641879E+03  0.17410641879E+03  0.00000000000E+00 0. -1.
         23    2    1    2    0    0 -0.48591356753E+02  0.14431129057E+02  0.35160292654E+03  0.36661447543E+03  0.90621069336E+02 0.  0.
         23    2    1    2    0    0 -0.31274441374E+02  0.16994561222E+02  0.18814542581E+03  0.20993180123E+03  0.86056691329E+02 0.  0.
        -13    1    3    3    0    0 -0.30722822654E+02 -0.37748769745E+02  0.16720024178E+03  0.17414012261E+03  0.00000000000E+00 0. -1.
         13    1    3    3    0    0 -0.17868534099E+02  0.52179898803E+02  0.18440268476E+03  0.19247435283E+03  0.00000000000E+00 0.  1.
        -13    1    4    4    0    0 -0.47071850129E+02 -0.17872928623E+02  0.13763045828E+03  0.14655150527E+03  0.00000000000E+00 0. -1.
         13    1    4    4    0    0  0.15797408754E+02  0.34867489845E+02  0.50514967528E+02  0.63380295959E+02  0.00000000000E+00 0.  1.
          1    1    1    2  501    0  0.79865798127E+02 -0.31425690279E+02 -0.14388059894E+03  0.16753431431E+03  0.00000000000E+00 0. -1.
<scales pt_clust_5="13000.00000" pt_clust_6="13000.00000" pt_clust_7="13000.00000" pt_clust_8="13000.00000" pt_clust_9="85.82610"></scales>
<clustering>
<clus scale="   85.826">  2  9  1 -1</clus>
<clus scale="   86.057">  7  8 -1 -1</clus>
<clus scale="   87.548">  2  7  1 -1</clus>
<clus scale="   90.621">  5  6 -1 -1</clus>
<clus scale="   85.826">  2  5  1 -1</clus>
</clustering>
</event>
<event>
 9    1  0.1426358E-005  0.1037341E+03  0.7546771E-02  0.1274806E+00
         -3   -1    0    0    0  501 -0.00000000000E+00  0.00000000000E+00  0.37885922962E+03  0.37885922962E+03  0.00000000000E+00 0.  1.
         21   -1    0    0  501  502  0.00000000000E+00 -0.00000000000E+00 -0.47675850190E+02  0.47675850190E+02  0.00000000000E+00 0.  1.
         23    2    1    2    0    0  0.29690266399E+02  0.31609952793E+00  0.16562908545E+03  0.19338325773E+03  0.95302038731E+02 0.  0.
         23    2    1    2    0    0 -0.52116044934E+02 -0.88647192801E+01  0.17760436289E+03  0.20629668099E+03  0.90666120916E+02 0.  0.
        -11    1    4    4    0    0  0.21834780588E+02  0.15484839044E+02  0.52825779137E+02  0.59220780347E+02  0.00000000000E+00 0.  1.
         11    1    4    4    0    0 -0.73950825522E+02 -0.24349558324E+02  0.12477858375E+03  0.14707590064E+03  0.00000000000E+00 0. -1.
        -13    1    3    3    0    0 -0.43798662034E+01  0.35792305926E+02  0.12338358878E+03  0.12854486521E+03  0.00000000000E+00 0.  1.
         13    1    3    3    0    0  0.34070132603E+02 -0.35476206398E+02  0.42245496670E+02  0.64838392522E+02  0.00000000000E+00 0. -1.
         -3    1    1    2    0  502  0.22425778535E+02  0.85486197522E+01 -0.12050068905E+02  0.26855141094E+02  0.00000000000E+00 0.  1.
<scales pt_clust_5="13000.00000" pt_clust_6="13000.00000" pt_clust_7="13000.00000" pt_clust_8="13000.00000" pt_clust_9="23.99988"></scales>
<clustering>
<clus scale="   24.000">  2  9  1 -1</clus>
<clus scale="   90.666">  5  6 -1 -1</clus>
<clus scale="   95.302">  7  8 -1 -1</clus>
<clus scale="   99.492">  2  5  1 -1</clus>
<clus scale="   24.000">  2  5  1 -1</clus>
</clustering>
</event>
<event>
 9    1  0.1426358E-005  0.1008927E+03  0.7546771E-02  0.1279715E+00
         -1   -1    0    0    0  501 -0.00000000000E+00  0.00000000000E+00  0.10819845444E+03  0.10819845444E+03  0.00000000000E+00 0.  1.
         21   -1    0    0  501  502  0.00000000000E+00 -0.00000000000E+00 -0.13683384149E+03  0.13683384149E+03  0.00000000000E+00 0. -1.
         23    2    1    2    0    0 -0.22832291649E+02  0.30412399195E+02  0.24584465496E+02  0.99886715957E+02  0.89032199312E+02 0.  0.
         23    2    1    2    0    0  0.71516089360E+01 -0.54017916966E+02 -0.41349005847E+02  0.11442065066E+03  0.91723847223E+02 0.  0.
        -11    1    4    4    0    0 -0.37216321674E+02 -0.48176649399E+01 -0.28041579730E+02  0.46846501344E+02  0.00000000000E+00 0.  1.
         11    1    4    4    0    0  0.44367930610E+02 -0.49200252026E+02 -0.13307426117E+02  0.67574149317E+02  0.00000000000E+00 0. -1.
        -13    1    3    3    0    0 -0.23686327629E+02  0.56339332910E+02 -0.40488189191E+01  0.61249942726E+02  0.00000000000E+00 0.  1.
         13    1    3    3    0    0  0.85403598044E+00 -0.25926933715E+02  0.28633284415E+02  0.38636773231E+02  0.00000000000E+00 0. -1.
         -1    1    1    2    0  502  0.15680682713E+02  0.23605517771E+02 -0.11870846699E+02  0.30724929307E+02  0.00000000000E+00 0.  1.
<scales pt_clust_5="13000.00000" pt_clust_6="13000.00000" pt_clust_7="13000.00000" pt_clust_8="13000.00000" pt_clust_9="28.33909"></scales>
<clustering>
<clus scale="   28.339">  2  9  1 -1</clus>
<clus scale="   89.032">  7  8 -1 -1</clus>
<clus scale="   91.724">  5  6 -1 -1</clus>
<clus scale="   98.452">  1  7  2 -1</clus>
<clus scale="   28.339">  2  5  1 -1</clus>
</clustering>
</event>
<event>
 9    1  0.1426358E-005  0.1627048E+03  0.7546771E-02  0.1185707E+00
         21   -1    0    0  501  502  0.00000000000E+00  0.00000000000E+00  0.12815788974E+03  0.12815788974E+03  0.00000000000E+00 0.  1.
         -3   -1    0    0    0  501 -0.00000000000E+00 -0.00000000000E+00 -0.25696713076E+03  0.25696713076E+03  0.00000000000E+00 0.  1.
         23    2    1    2    0    0  0.71442025789E+02  0.11151989468E+03 -0.97984932824E+02  0.18828181337E+03  0.91150119177E+02 0.  0.
         23    2    1    2    0    0 -0.55999530715E+02 -0.12690988296E+03 -0.43407527661E+02  0.17167060684E+03  0.91348333116E+02 0.  0.
        -11    1    4    4    0    0 -0.25473904884E+02  0.24058045489E+00  0.13763768655E+02  0.28955466437E+02  0.00000000000E+00 0. -1.
         11    1    4    4    0    0 -0.30525625832E+02 -0.12715046341E+03 -0.57171296317E+02  0.14271514040E+03  0.00000000000E+00 0.  1.
        -13    1    3    3    0    0  0.10367955467E+02  0.84930345340E+02 -0.24285400329E+02  0.88940647228E+02  0.00000000000E+00 0.  1.
         13    1    3    3    0    0  0.61074070323E+02  0.26589549339E+02 -0.73699532495E+02  0.99341166139E+02  0.00000000000E+00 0. -1.
         -3    1    1    2    0  502 -0.15442495074E+02  0.15389988278E+02  0.12583219472E+02  0.25172600295E+02  0.00000000000E+00 0.  1.
<scales pt_clust_5="13000.00000" pt_clust_6="13000.00000" pt_clust_7="13000.00000" pt_clust_8="13000.00000" pt_clust_9="21.80189"></scales>
<clustering>
<clus scale="   21.802">  1  9  2 -1</clus>
<clus scale="   91.150">  7  8 -1 -1</clus>
<clus scale="   91.348">  5  6 -1 -1</clus>
<clus scale="  162.594">  2  7  1 -1</clus>
<clus scale="   21.802">  1  5  2 -1</clus>
</clustering>
</event>
<event>
 9    1  0.1426358E-005  0.1442888E+03  0.7546771E-02  0.1229439E+00
          2   -1    0    0  502    0 -0.00000000000E+00  0.00000000000E+00  0.93014454684E+02  0.93014454684E+02  0.00000000000E+00 0. -1.
         21   -1    0    0  501  502  0.00000000000E+00 -0.00000000000E+00 -0.53807760998E+03  0.53807760998E+03  0.00000000000E+00 0. -1.
         23    2    1    2    0    0 -0.20331735138E+02 -0.73904632471E+01 -0.13652566517E+03  0.16421439922E+03  0.88651639915E+02 0.  0.
         23    2    1    2    0    0 -0.63581341040E+02  0.83842190288E+02 -0.82004426972E+00  0.13888940742E+03  0.90650401097E+02 0.  0.
        -13    1    3    3    0    0 -0.44883909802E+02  0.14899165071E+02 -0.39303145913E+02  0.61492176394E+02  0.00000000000E+00 0. -1.
         13    1    3    3    0    0  0.24552174664E+02 -0.22289628318E+02 -0.97222519255E+02  0.10272222282E+03  0.00000000000E+00 0.  1.
        -13    1    4    4    0    0  0.16200430715E+02  0.41270597735E+02 -0.16117827613E+02  0.47175211284E+02  0.00000000000E+00 0.  1.
         13    1    4    4    0    0 -0.79781771755E+02  0.42571592554E+02  0.15297783343E+02  0.91714196132E+02  0.00000000000E+00 0. -1.
          2    1    1    2  501    0  0.83913076178E+02 -0.76451727041E+02 -0.30771744586E+03  0.32798825804E+03  0.00000000000E+00 0. -1.
<scales pt_clust_5="13000.00000" pt_clust_6="13000.00000" pt_clust_7="13000.00000" pt_clust_8="13000.00000" pt_clust_9="112.25763"></scales>
<clustering>
<clus scale="   88.652">  5  6 -1 -1</clus>
<clus scale="   90.650">  7  8 -1 -1</clus>
<clus scale="   91.253">  1  5  2 -1</clus>
<clus scale="  112.258">  2  9  1 -1</clus>
<clus scale="  112.258">  2  5  1 -1</clus>
</clustering>
</event>
<event>
 9    1  0.1426358E-005  0.9301623E+02  0.7546771E-02  0.1296207E+00
          2   -1    0    0  502    0 -0.00000000000E+00  0.00000000000E+00  0.31886040371E+03  0.31886040371E+03  0.00000000000E+00 0.  1.
         21   -1    0    0  501  502  0.00000000000E+00 -0.00000000000E+00 -0.46402813320E+02  0.46402813320E+02  0.00000000000E+00 0. -1.
         23    2    1    2    0    0 -0.53062776132E+01 -0.73312010469E+01  0.14336582166E+03  0.17046938002E+03  0.91783155395E+02 0.  0.
         23    2    1    2    0    0 -0.49113480410E+01 -0.36299825590E+02  0.75898955548E+02  0.12524139827E+03  0.92644253524E+02 0.  0.
        -13    1    4    4    0    0 -0.44860787654E+02 -0.79700545014E+01  0.56455401258E+02  0.72548083151E+02  0.00000000000E+00 0.  1.
         13    1    4    4    0    0  0.39949439613E+02 -0.28329771089E+02  0.19443554290E+02  0.52693315124E+02  0.00000000000E+00 0. -1.
        -13    1    3    3    0    0 -0.39218963835E+02  0.91346139999E+01  0.27859053598E+02  0.48966265578E+02  0.00000000000E+00 0.  1.
         13    1    3    3    0    0  0.33912686222E+02 -0.16465815047E+02  0.11550676806E+03  0.12150311444E+03  0.00000000000E+00 0. -1.
          2    1    1    2  501    0  0.10217625654E+02  0.43631026637E+02  0.53192813180E+02  0.69552438731E+02  0.00000000000E+00 0.  1.
<scales pt_clust_5="13000.00000" pt_clust_6="13000.00000" pt_clust_7="13000.00000" pt_clust_8="13000.00000" pt_clust_9="44.81148"></scales>
<clustering>
<clus scale="   44.811">  2  9  1 -1</clus>
<clus scale="   91.783">  7  8 -1 -1</clus>
<clus scale="   92.159">  1  7  2 -1</clus>
<clus scale="   92.644">  5  6 -1 -1</clus>
<clus scale="   44.811">  2  5  1 -1</clus>
</clustering>
</event>
<event>
 9    1  0.1426358E-005  0.1045065E+03  0.7546771E-02  0.1271574E+00
         21   -1    0    0  501  502  0.00000000000E+00  0.00000000000E+00  0.12497112579E+03  0.12497112579E+03  0.00000000000E+00 0.  1.
          1   -1    0    0  502    0 -0.00000000000E+00 -0.00000000000E+00 -0.35349794230E+03  0.35349794230E+03  0.00000000000E+00 0. -1.
         23    2    1    2    0    0  0.28064371975E+02 -0.24428334672E+02 -0.17617574064E+03  0.20156478188E+03  0.90587621645E+02 0.  0.
         23    2    1    2    0    0 -0.31533005335E+02  0.69288868509E+02 -0.13667129912E+03  0.18133023657E+03  0.91686056551E+02 0.  0.
        -11    1    3    3    0    0 -0.10731001326E+02 -0.32078983694E+02 -0.15087573421E+03  0.15462115882E+03  0.00000000000E+00 0. -1.
         11    1    3    3    0    0  0.38795373302E+02  0.76506490222E+01 -0.25300006436E+02  0.46943623057E+02  0.00000000000E+00 0.  1.
        -13    1    4    4    0    0 -0.45191736752E+01  0.79437866530E+02 -0.60741310052E+02  0.10010147010E+03  0.00000000000E+00 0.  1.
         13    1    4    4    0    0 -0.27013831660E+02 -0.10148998021E+02 -0.75929989071E+02  0.81228766469E+02  0.00000000000E+00 0. -1.
          1    1    1    2  501    0  0.34686333603E+01 -0.44860533837E+02  0.84320223260E+02  0.95574049638E+02  0.00000000000E+00 0. -1.
<scales pt_clust_5="13000.00000" pt_clust_6="13000.00000" pt_clust_7="13000.00000" pt_clust_8="13000.00000" pt_clust_9="44.99443"></scales>
<clustering>
<clus scale="   44.994">  1  9  2 -1</clus>
<clus scale="   90.588">  5  6 -1 -1</clus>
<clus scale="   91.686">  7  8 -1 -1</clus>
<clus scale="  103.544">  2  5  1 -1</clus>
<clus scale="   44.994">  1  5  2 -1</clus>
</clustering>
</event>
<event>
 9    1  0.1426358E-005  0.1288936E+03  0.7546771E-02  0.1239572E+00
         21   -1    0    0  501  502  0.00000000000E+00  0.00000000000E+00  0.13464323467E+03  0.13464323467E+03  0.00000000000E+00 0.  1.
          1   -1    0    0  502    0 -0.00000000000E+00 -0.00000000000E+00 -0.21411084508E+03  0.21411084508E+03  0.00000000000E+00 0. -1.
         23    2    1    2    0    0  0.18640411994E+02 -0.46794425002E+02  0.65334992713E+01  0.10421010829E+03  0.90993828839E+02 0.  0.
         23    2    1    2    0    0 -0.56598650159E+02 -0.50660082458E+02 -0.74623269178E+02  0.13934100513E+03  0.89874536177E+02 0.  0.
        -11    1    4    4    0    0 -0.16558540287E+02 -0.16285554246E+02  0.20227372998E+02  0.30798557628E+02  0.00000000000E+00 0.  1.
         11    1    4    4    0    0 -0.40040109873E+02 -0.34374528212E+02 -0.94850642176E+02  0.10854244750E+03  0.00000000000E+00 0. -1.
        -13    1    3    3    0    0 -0.34255636211E+01 -0.69131320346E+02 -0.78770608212E+01  0.69662917152E+02  0.00000000000E+00 0.  1.
         13    1    3    3    0    0  0.22065975615E+02  0.22336895344E+02  0.14410560092E+02  0.34547191140E+02  0.00000000000E+00 0. -1.
          1    1    1    2  501    0  0.37958238165E+02  0.97454507461E+02 -0.11377840506E+02  0.10520296632E+03  0.00000000000E+00 0. -1.
<scales pt_clust_5="13000.00000" pt_clust_6="13000.00000" pt_clust_7="13000.00000" pt_clust_8="13000.00000" pt_clust_9="92.39116"></scales>
<clustering>
<clus scale="   89.875">  5  6 -1 -1</clus>
<clus scale="   90.994">  7  8 -1 -1</clus>
<clus scale="  104.005">  2  7  1 -1</clus>
<clus scale="   92.391">  1  9  2 -1</clus>
<clus scale="   92.391">  1  5  2 -1</clus>
</clustering>
</event>
<event>
 9    1  0.1426358E-005  0.1153210E+03  0.7546771E-02  0.1257427E+00
         -3   -1    0    0    0  501 -0.00000000000E+00  0.00000000000E+00  0.77070860740E+02  0.77070860740E+02  0.00000000000E+00 0.  1.
         21   -1    0    0  501  502  0.00000000000E+00 -0.00000000000E+00 -0.26216380822E+03  0.26216380822E+03  0.00000000000E+00 0. -1.
         23    2    1    2    0    0 -0.17092609565E+02 -0.43603039083E+01 -0.74267362383E+02  0.13003906494E+03  0.10527747975E+03 0.  0.
         23    2    1    2    0    0  0.65710070032E+02  0.37049739586E+02 -0.61205088167E+02  0.13242027997E+03  0.89992062005E+02 0.  0.
        -11    1    4    4    0    0 -0.13638483435E+02  0.21877689768E+02  0.69764459867E+01  0.26707907791E+02  0.00000000000E+00 0.  1.
         11    1    4    4    0    0  0.79348553467E+02  0.15172049818E+02 -0.68181534154E+02  0.10571237218E+03  0.00000000000E+00 0. -1.
        -13    1    3    3    0    0 -0.33178307486E+02  0.38154225034E+02 -0.10356853098E+02  0.51612104992E+02  0.00000000000E+00 0.  1.
         13    1    3    3    0    0  0.16085697921E+02 -0.42514528943E+02 -0.63910509286E+02  0.78426959943E+02  0.00000000000E+00 0. -1.
         -3    1    1    2    0  502 -0.48617460467E+02 -0.32689435678E+02 -0.49620496925E+02  0.76775324046E+02  0.00000000000E+00 0.  1.
<scales pt_clust_5="13000.00000" pt_clust_6="13000.00000" pt_clust_7="13000.00000" pt_clust_8="13000.00000" pt_clust_9="58.58546"></scales>
<clustering>
<clus scale="   58.585">  2  9  1 -1</clus>
<clus scale="   89.992">  5  6 -1 -1</clus>
<clus scale="  101.559">  2  5  1 -1</clus>
<clus scale="  105.277">  7  8 -1 -1</clus>
<clus scale="   58.585">  2  5  1 -1</clus>
</clustering>
</event>
<event>
 9    1  0.1426358E-005  0.9924444E+02  0.7546771E-02  0.1284180E+00
         21   -1    0    0  501  502  0.00000000000E+00  0.00000000000E+00  0.14243367068E+03  0.14243367068E+03  0.00000000000E+00 0.  1.
          2   -1    0    0  502    0 -0.00000000000E+00 -0.00000000000E+00 -0.22745153791E+03  0.22745153791E+03  0.00000000000E+00 0. -1.
         23    2    1    2    0    0 -0.22314033296E+02  0.28088763467E+02 -0.17832372276E+03  0.20215484071E+03  0.88206206167E+02 0.  0.
         23    2    1    2    0    0 -0.20579399273E+01 -0.40989651904E+02  0.42548392664E+02  0.10996579363E+03  0.92723909381E+02 0.  0.
        -11    1    3    3    0    0 -0.42902771619E+02 -0.13171835044E+02 -0.11784977202E+03  0.12610596265E+03  0.00000000000E+00 0.  1.
         11    1    3    3    0    0  0.20588738323E+02  0.41260598511E+02 -0.60473950744E+02  0.76048878058E+02  0.00000000000E+00 0. -1.
        -13    1    4    4    0    0 -0.24398003585E+02  0.23004776693E+02  0.11967706333E+02  0.35604891862E+02  0.00000000000E+00 0. -1.
         13    1    4    4    0    0  0.22340063657E+02 -0.63994428597E+02  0.30580686331E+02  0.74360901771E+02  0.00000000000E+00 0.  1.
          2    1    1    2  501    0  0.24371973223E+02  0.12900888437E+02  0.50757462868E+02  0.57764574248E+02  0.00000000000E+00 0. -1.
<scales pt_clust_5="13000.00000" pt_clust_6="13000.00000" pt_clust_7="13000.00000" pt_clust_8="13000.00000" pt_clust_9="27.57582"></scales>
<clustering>
<clus scale="   27.576">  1  9  2 -1</clus>
<clus scale="   88.206">  5  6 -1 -1</clus>
<clus scale="   92.724">  7  8 -1 -1</clus>
<clus scale="   95.037">  2  5  1 -1</clus>
<clus scale="   27.576">  1  5  2 -1</clus>
</clustering>
</event>
<event>
 9    1  0.1549590E-005  0.1424241E+03  0.7546771E-02  0.1214291E+00
          1   -1    0    0  502    0 -0.00000000000E+00  0.00000000000E+00  0.30931194121E+03  0.30931194121E+03  0.00000000000E+00 0. -1.
         21   -1    0    0  501  502  0.00000000000E+00 -0.00000000000E+00 -0.19355168758E+03  0.19355168758E+03  0.00000000000E+00 0.  1.
         23    2    1    2    0    0  0.96899927943E+02  0.33259404964E+02  0.25027502881E+03  0.29105200780E+03  0.10760063728E+03 0.  0.
         23    2    1    2    0    0 -0.40274898795E+02 -0.33223817241E+02 -0.70506594524E+02  0.12635144088E+03  0.90926438603E+02 0.  0.
        -11    1    4    4    0    0 -0.66648225132E+02 -0.38189392497E+02 -0.43489819210E+02  0.88271059739E+02  0.00000000000E+00 0. -1.
         11    1    4    4    0    0  0.26373326338E+02  0.49655752559E+01 -0.27016775314E+02  0.38080381145E+02  0.00000000000E+00 0.  1.
        -11    1    3    3    0    0  0.98534214737E+02  0.63630723526E+01  0.24423247593E+03  0.26343686618E+03  0.00000000000E+00 0.  1.
         11    1    3    3    0    0 -0.16342867939E+01  0.26896332611E+02  0.60425528808E+01  0.27615141618E+02  0.00000000000E+00 0. -1.
          1    1    1    2  501    0 -0.56625029149E+02 -0.35587722867E-01 -0.64008180662E+02  0.85460180109E+02  0.00000000000E+00 0. -1.
<scales pt_clust_5="13000.00000" pt_clust_6="13000.00000" pt_clust_7="13000.00000" pt_clust_8="13000.00000" pt_clust_9="56.62504"></scales>
<clustering>
<clus scale="   56.625">  2  9  1 -1</clus>
<clus scale="   90.926">  5  6 -1 -1</clus>
<clus scale="  107.601">  7  8 -1 -1</clus>
<clus scale="  130.286">  2  5  1 -1</clus>
<clus scale="   56.625">  2  5  1 -1</clus>
</clustering>
</event>
<event>
 9    1  0.1426358E-005  0.1073697E+03  0.7546771E-02  0.1266129E+00
         21   -1    0    0  501  502  0.00000000000E+00  0.00000000000E+00  0.40857232813E+02  0.40857232813E+02  0.00000000000E+00 0. -1.
          1   -1    0    0  502    0 -0.00000000000E+00 -0.00000000000E+00 -0.61357256095E+03  0.61357256095E+03  0.00000000000E+00 0. -1.
         23    2    1    2    0    0 -0.91514115871E+01  0.52410922512E+02 -0.41325756607E+03  0.42629820914E+03  0.90098246775E+02 0.  0.
         23    2    1    2    0    0  0.32018126041E+02 -0.64976562094E+02 -0.72736420959E+02  0.13757015281E+03  0.91585184355E+02 0.  0.
        -11    1    3    3    0    0 -0.45932404498E+02  0.11437181211E+02 -0.14796311248E+03  0.15535017718E+03  0.00000000000E+00 0. -1.
         11    1    3    3    0    0  0.36780992911E+02  0.40973741301E+02 -0.26529445359E+03  0.27094803196E+03  0.00000000000E+00 0.  1.
        -13    1    4    4    0    0 -0.19923687806E+02  0.10454403485E+02 -0.27167540807E+02  0.35274965082E+02  0.00000000000E+00 0.  1.
         13    1    4    4    0    0  0.51941813847E+02 -0.75430965579E+02 -0.45568880152E+02  0.10229518773E+03  0.00000000000E+00 0. -1.
          1    1    1    2  501    0 -0.22866714454E+02  0.12565639582E+02 -0.86721341107E+02  0.90561431810E+02  0.00000000000E+00 0. -1.
<scales pt_clust_5="13000.00000" pt_clust_6="13000.00000" pt_clust_7="13000.00000" pt_clust_8="13000.00000" pt_clust_9="26.09181"></scales>
<clustering>
<clus scale="   26.092">  1  9  2 -1</clus>
<clus scale="   90.098">  5  6 -1 -1</clus>
<clus scale="   91.585">  7  8 -1 -1</clus>
<clus scale="  106.104">  2  5  1 -1</clus>
<clus scale="   26.092">  1  5  2 -1</clus>
</clustering>
</event>
<event>
 9    1  0.1426358E-005  0.1689159E+03  0.7546771E-02  0.1180775E+00
          1   -1    0    0  502    0 -0.00000000000E+00  0.00000000000E+00  0.72829267802E+03  0.72829267802E+03  0.00000000000E+00 0. -1.
         21   -1    0    0  501  502  0.00000000000E+00 -0.00000000000E+00 -0.84497473813E+02  0.84497473813E+02  0.00000000000E+00 0.  1.
         23    2    1    2    0    0  0.68021433422E+02  0.11063961904E+03  0.42544510347E+03  0.45395632075E+03  0.90580154432E+02 0.  0.
         23    2    1    2    0    0 -0.89789911617E+02 -0.11301179809E+03  0.25846514279E+03  0.31313141896E+03  0.10204489585E+03 0.  0.
        -13    1    4    4    0    0  0.12912155409E+02 -0.51686851225E+02  0.11201345290E+03  0.12403736524E+03  0.00000000000E+00 0.  1.
         13    1    4    4    0    0 -0.10270206703E+03 -0.61324946861E+02  0.14645168989E+03  0.18909405372E+03  0.00000000000E+00 0. -1.
        -13    1    3    3    0    0  0.14198034539E+02  0.98822082991E+02  0.31641358125E+03  0.33179051021E+03  0.00000000000E+00 0. -1.
         13    1    3    3    0    0  0.53823398883E+02  0.11817536051E+02  0.10903152222E+03  0.12216581053E+03  0.00000000000E+00 0.  1.
          1    1    1    2  501    0  0.21768478195E+02  0.23721790437E+01 -0.40115042043E+02  0.45702412129E+02  0.00000000000E+00 0. -1.
<scales pt_clust_5="13000.00000" pt_clust_6="13000.00000" pt_clust_7="13000.00000" pt_clust_8="13000.00000" pt_clust_9="21.89735"></scales>
<clustering>
<clus scale="   21.897">  2  9  1 -1</clus>
<clus scale="   90.580">  7  8 -1 -1</clus>
<clus scale="  102.045">  5  6 -1 -1</clus>
<clus scale="  162.247">  1  7  2 -1</clus>
<clus scale="   21.897">  2  5  1 -1</clus>
</clustering>
</event>
<event>
 9    1  0.1426358E-005  0.1220218E+03  0.7546771E-02  0.1241313E+00
         -1   -1    0    0    0  501 -0.00000000000E+00  0.00000000000E+00  0.28297838421E+03  0.28297838421E+03  0.00000000000E+00 0.  1.
         21   -1    0    0  501  502  0.00000000000E+00 -0.00000000000E+00 -0.21957153803E+03  0.21957153803E+03  0.00000000000E+00 0.  1.
         23    2    1    2    0    0 -0.27689815362E+02  0.84308917726E+02  0.22394280217E+03  0.25823219501E+03  0.93052503530E+02 0.  0.
         23    2    1    2    0    0 -0.23538588253E+01 -0.44243743753E+02 -0.27883735573E+02  0.10252755794E+03  0.88155248936E+02 0.  0.
        -11    1    4    4    0    0  0.18938421219E+02 -0.40310788279E+02  0.20867583121E+02  0.49184138452E+02  0.00000000000E+00 0.  1.
         11    1    4    4    0    0 -0.21292280044E+02 -0.39329554737E+01 -0.48751318695E+02  0.53343419488E+02  0.00000000000E+00 0. -1.
        -11    1    3    3    0    0  0.14138792548E+02  0.84774799733E+02  0.13659105507E+03  0.16138088006E+03  0.00000000000E+00 0.  1.
         11    1    3    3    0    0 -0.41828607910E+02 -0.46588200727E+00  0.87351747101E+02  0.96851314949E+02  0.00000000000E+00 0. -1.
         -1    1    1    2    0  502  0.30043674187E+02 -0.40065173973E+02 -0.13265222042E+03  0.14179016929E+03  0.00000000000E+00 0.  1.
<scales pt_clust_5="13000.00000" pt_clust_6="13000.00000" pt_clust_7="13000.00000" pt_clust_8="13000.00000" pt_clust_9="50.07834"></scales>
<clustering>
<clus scale="   50.078">  2  9  1 -1</clus>
<clus scale="   88.155">  5  6 -1 -1</clus>
<clus scale="   93.053">  7  8 -1 -1</clus>
<clus scale="  118.330">  2  5  1 -1</clus>
<clus scale="   50.078">  2  5  1 -1</clus>
</clustering>
</event>
<event>
 9    1  0.1426358E-005  0.1595927E+03  0.7546771E-02  0.1210552E+00
         21   -1    0    0  501  502  0.00000000000E+00  0.00000000000E+00  0.10866342756E+03  0.10866342756E+03  0.00000000000E+00 0. -1.
          1   -1    0    0  502    0 -0.00000000000E+00 -0.00000000000E+00 -0.67340707271E+03  0.67340707271E+03  0.00000000000E+00 0. -1.
         23    2    1    2    0    0 -0.28241833831E+01  0.39096389716E+02 -0.45807688504E+03  0.46892138563E+03  0.92283961714E+02 0.  0.
         23    2    1    2    0    0 -0.12796611218E+03 -0.39970287148E+02 -0.43347951932E+02  0.16783519041E+03  0.91195704299E+02 0.  0.
        -11    1    4    4    0    0 -0.51349922365E+02  0.22851389980E+01 -0.59748049295E+02  0.78815390513E+02  0.00000000000E+00 0.  1.
         11    1    4    4    0    0 -0.76616189810E+02 -0.42255426146E+02  0.16400097363E+02  0.89019799895E+02  0.00000000000E+00 0. -1.
        -13    1    3    3    0    0 -0.39744690712E+02 -0.62056126116E+01 -0.14711461265E+03  0.15251511178E+03  0.00000000000E+00 0. -1.
         13    1    3    3    0    0  0.36920507329E+02  0.45302002327E+02 -0.31096227239E+03  0.31640627384E+03  0.00000000000E+00 0.  1.
          1    1    1    2  501    0  0.13079029556E+03  0.87389743256E+00 -0.63318808177E+02  0.14531392424E+03  0.00000000000E+00 0. -1.
<scales pt_clust_5="13000.00000" pt_clust_6="13000.00000" pt_clust_7="13000.00000" pt_clust_8="13000.00000" pt_clust_9="130.97016"></scales>
<clustering>
<clus scale="   91.196">  5  6 -1 -1</clus>
<clus scale="   92.284">  7  8 -1 -1</clus>
<clus scale="  100.264">  2  7  1 -1</clus>
<clus scale="  130.970">  1  9  2 -1</clus>
<clus scale="  130.970">  1  5  2 -1</clus>
</clustering>
</event>
<event>
 9    1  0.1426358E-005  0.9721045E+02  0.7546771E-02  0.1286990E+00
         21   -1    0    0  501  502  0.00000000000E+00  0.00000000000E+00  0.19447722769E+03  0.19447722769E+03  0.00000000000E+00 0. -1.
          3   -1    0    0  502    0 -0.00000000000E+00 -0.00000000000E+00 -0.10186119485E+03  0.10186119485E+03  0.00000000000E+00 0. -1.
         23    2    1    2    0    0  0.17797607860E+02  0.25130603764E+02 -0.13000154892E+01  0.96370884399E+02  0.91309119087E+02 0.  0.
         23    2    1    2    0    0  0.18754704827E+02 -0.42443079453E+02  0.38775385223E+01  0.10126228689E+03  0.89921418438E+02 0.  0.
        -11    1    4    4    0    0 -0.15983696458E+02  0.21152081785E+02 -0.83017407109E+01  0.27781432921E+02  0.00000000000E+00 0.  1.
         11    1    4    4    0    0  0.34738401286E+02 -0.63595161238E+02  0.12179279233E+02  0.73480853965E+02  0.00000000000E+00 0. -1.
        -13    1    3    3    0    0 -0.23383958267E+01  0.43600672328E+02  0.31382320999E+02  0.53771152059E+02  0.00000000000E+00 0.  1.
         13    1    3    3    0    0  0.20136003686E+02 -0.18470068563E+02 -0.32682336488E+02  0.42599732341E+02  0.00000000000E+00 0. -1.
          3    1    1    2  501    0 -0.36552312687E+02  0.17312475688E+02  0.90038509807E+02  0.98705251256E+02  0.00000000000E+00 0. -1.
<scales pt_clust_5="13000.00000" pt_clust_6="13000.00000" pt_clust_7="13000.00000" pt_clust_8="13000.00000" pt_clust_9="40.44494"></scales>
<clustering>
<clus scale="   40.445">  1  9  2 -1</clus>
<clus scale="   89.921">  5  6 -1 -1</clus>
<clus scale="   91.309">  7  8 -1 -1</clus>
<clus scale="   95.908">  1  5  2 -1</clus>
<clus scale="   40.445">  1  5  2 -1</clus>
</clustering>
</event>
<event>
 9    1  0.1426358E-005  0.1059365E+03  0.7546771E-02  0.1270349E+00
         21   -1    0    0  501  502  0.00000000000E+00  0.00000000000E+00  0.32364832597E+03  0.32364832597E+03  0.00000000000E+00 0. -1.
          1   -1    0    0  502    0 -0.00000000000E+00 -0.00000000000E+00 -0.15741306752E+03  0.15741306752E+03  0.00000000000E+00 0. -1.
         23    2    1    2    0    0 -0.12222457309E+00  0.56990958123E+02 -0.52153735694E+02  0.12153328783E+03  0.93820806101E+02 0.  0.
         23    2    1    2    0    0  0.29879340653E+02 -0.36405026369E+02 -0.32610947174E+02  0.10593347424E+03  0.89108507704E+02 0.  0.
        -11    1    4    4    0    0 -0.31700268743E+02 -0.94242262529E+01 -0.15696165103E+02  0.36607276296E+02  0.00000000000E+00 0.  1.
         11    1    4    4    0    0  0.61579609396E+02 -0.26980800116E+02 -0.16914782071E+02  0.69326197940E+02  0.00000000000E+00 0. -1.
        -13    1    3    3    0    0  0.88305267745E+00 -0.22084123634E+02  0.65417673685E+01  0.23049577416E+02  0.00000000000E+00 0. -1.
         13    1    3    3    0    0 -0.10052772505E+01  0.79075081758E+02 -0.58695503062E+02  0.98483710415E+02  0.00000000000E+00 0.  1.
          1    1    1    2  501    0 -0.29757116080E+02 -0.20585931754E+02  0.25099994132E+03  0.25359463143E+03  0.00000000000E+00 0. -1.
<scales pt_clust_5="13000.00000" pt_clust_6="13000.00000" pt_clust_7="13000.00000" pt_clust_8="13000.00000" pt_clust_9="36.18379"></scales>
<clustering>
<clus scale="   36.184">  1  9  2 -1</clus>
<clus scale="   89.109">  5  6 -1 -1</clus>
<clus scale="   93.821">  7  8 -1 -1</clus>
<clus scale="  101.787">  1  5  2 -1</clus>
<clus scale="   36.184">  1  5  2 -1</clus>
</clustering>
</event>
<event>
 9    1  0.1426358E-005  0.1098807E+03  0.7546771E-02  0.1262622E+00
         21   -1    0    0  501  502  0.00000000000E+00  0.00000000000E+00  0.20497956992E+03  0.20497956992E+03  0.00000000000E+00 0. -1.
         -4   -1    0    0    0  501 -0.00000000000E+00 -0.00000000000E+00 -0.76866824522E+02  0.76866824522E+02  0.00000000000E+00 0. -1.
         23    2    1    2    0    0 -0.44573625084E+02 -0.64121106839E+02  0.43718094456E+02  0.12366864514E+03  0.85348331045E+02 0.  0.
         23    2    1    2    0    0  0.22081132968E+02  0.41281700213E+02  0.60607970551E+02  0.11826087492E+03  0.90114112306E+02 0.  0.
        -11    1    3    3    0    0 -0.45867520160E+02  0.14375006447E+01  0.19644056494E+01  0.45932066177E+02  0.00000000000E+00 0.  1.
         11    1    3    3    0    0  0.12938950756E+01 -0.65558607484E+02  0.41753688807E+02  0.77736578962E+02  0.00000000000E+00 0. -1.
        -13    1    4    4    0    0 -0.18947077831E+02  0.93520761259E+01 -0.15419665062E+02  0.26157583161E+02  0.00000000000E+00 0. -1.
         13    1    4    4    0    0  0.41028210800E+02  0.31929624087E+02  0.76027635613E+02  0.92103291758E+02  0.00000000000E+00 0.  1.
         -4    1    1    2    0  502  0.22492492116E+02  0.22839406626E+02  0.23786680390E+02  0.39916874384E+02  0.00000000000E+00 0. -1.
<scales pt_clust_5="13000.00000" pt_clust_6="13000.00000" pt_clust_7="13000.00000" pt_clust_8="13000.00000" pt_clust_9="32.05543"></scales>
<clustering>
<clus scale="   32.055">  1  9  2 -1</clus>
<clus scale="   85.348">  5  6 -1 -1</clus>
<clus scale="   90.114">  7  8 -1 -1</clus>
<clus scale="  106.007">  2  5  1 -1</clus>
<clus scale="   32.055">  1  5  2 -1</clus>
</clustering>
</event>
<event>
 9    1  0.1426358E-005  0.1407058E+03  0.7546771E-02  0.1213820E+00
         -3   -1    0    0    0  501 -0.00000000000E+00  0.00000000000E+00  0.12914025989E+03  0.12914025989E+03  0.00000000000E+00 0.  1.
         21   -1    0    0  501  502  0.00000000000E+00 -0.00000000000E+00 -0.33652933906E+03  0.33652933906E+03  0.00000000000E+00 0. -1.
         23    2    1    2    0    0 -0.10191939280E+03  0.36484767764E+02  0.49339797834E+02  0.14446841620E+03  0.81963447477E+02 0.  0.
         23    2    1    2    0    0  0.92184375713E+02 -0.72621248902E+02 -0.15956990400E+03  0.21708354803E+03  0.88830780946E+02 0.  0.
        -13    1    4    4    0    0  0.59977809951E+02 -0.91688799553E+02 -0.11401540010E+03  0.15812553592E+03  0.00000000000E+00 0. -1.
         13    1    4    4    0    0  0.32206565762E+02  0.19067550651E+02 -0.45554503898E+02  0.58958012105E+02  0.00000000000E+00 0.  1.
        -13    1    3    3    0    0 -0.51547193753E+02  0.10910151505E+02 -0.18812015304E+02  0.55946729212E+02  0.00000000000E+00 0.  1.
         13    1    3    3    0    0 -0.50372199044E+02  0.25574616259E+02  0.68151813138E+02  0.88521686989E+02  0.00000000000E+00 0. -1.
         -3    1    1    2    0  502  0.97350170845E+01  0.36136481138E+02 -0.97158973000E+02  0.10411763473E+03  0.00000000000E+00 0.  1.
<scales pt_clust_5="13000.00000" pt_clust_6="13000.00000" pt_clust_7="13000.00000" pt_clust_8="13000.00000" pt_clust_9="37.42480"></scales>
<clustering>
<clus scale="   37.425">  2  9  1 -1</clus>
<clus scale="   81.963">  7  8 -1 -1</clus>
<clus scale="   88.831">  5  6 -1 -1</clus>
<clus scale="  136.474">  1  7  2 -1</clus>
<clus scale="   37.425">  2  5  1 -1</clus>
</clustering>
</event>
<event>
 9    1  0.1426358E-005  0.1013789E+03  0.7546771E-02  0.1279306E+00
         21   -1    0    0  501  502  0.00000000000E+00  0.00000000000E+00  0.19338857848E+03  0.19338857848E+03  0.00000000000E+00 0. -1.
         -4   -1    0    0    0  501 -0.00000000000E+00 -0.00000000000E+00 -0.11144636327E+03  0.11144636327E+03  0.00000000000E+00 0.  1.
         23    2    1    2    0    0 -0.10127119636E+02 -0.42394478564E+02 -0.49865145442E+02  0.11434687651E+03  0.93213867382E+02 0.  0.
         23    2    1    2    0    0 -0.16207006319E+02  0.32585107045E+02  0.60507036230E+02  0.11384965305E+03  0.89309494524E+02 0.  0.
        -11    1    3    3    0    0  0.48591647225E+01  0.29278011534E+02 -0.14259482249E+02  0.32926376588E+02  0.00000000000E+00 0. -1.
         11    1    3    3    0    0 -0.14986284359E+02 -0.71672490098E+02 -0.35605663193E+02  0.81420499920E+02  0.00000000000E+00 0.  1.
        -13    1    4    4    0    0 -0.34554925532E+02  0.20291744069E+02  0.76650299832E+02  0.86493157071E+02  0.00000000000E+00 0. -1.
         13    1    4    4    0    0  0.18347919213E+02  0.12293362976E+02 -0.16143263602E+02  0.27356495982E+02  0.00000000000E+00 0.  1.
         -4    1    1    2    0  502  0.26334125955E+02  0.98093715190E+01  0.71300324425E+02  0.76638412187E+02  0.00000000000E+00 0.  1.
<scales pt_clust_5="13000.00000" pt_clust_6="13000.00000" pt_clust_7="13000.00000" pt_clust_8="13000.00000" pt_clust_9="28.10178"></scales>
<clustering>
<clus scale="   28.102">  1  9  2 -1</clus>
<clus scale="   89.309">  7  8 -1 -1</clus>
<clus scale="   93.214">  5  6 -1 -1</clus>
<clus scale="   97.801">  1  7  2 -1</clus>
<clus scale="   28.102">  1  5  2 -1</clus>
</clustering>
</event>
<event>
 9    1  0.1426358E-005  0.9124313E+02  0.7546771E-02  0.1300168E+00
          1   -1    0    0  502    0 -0.00000000000E+00  0.00000000000E+00  0.28049266957E+03  0.28049266957E+03  0.00000000000E+00 0. -1.
         21   -1    0    0  501  502  0.00000000000E+00 -0.00000000000E+00 -0.88388373975E+02  0.88388373975E+02  0.00000000000E+00 0. -1.
         23    2    1    2    0    0 -0.31059815809E+02  0.13027036243E+00  0.14018830319E+03  0.16998137264E+03  0.90973499239E+02 0.  0.
         23    2    1    2    0    0 -0.44843470004E+02  0.14950321475E+02  0.64138734278E+02  0.12055346190E+03  0.90470498101E+02 0.  0.
        -11    1    4    4    0    0  0.73747656795E+01 -0.30970642729E+02  0.26859832754E+02  0.41653553215E+02  0.00000000000E+00 0.  1.
         11    1    4    4    0    0 -0.52218235684E+02  0.45920964204E+02  0.37278901523E+02  0.78899908683E+02  0.00000000000E+00 0. -1.
        -13    1    3    3    0    0  0.11626955833E+01 -0.28911117021E+02  0.68082114696E+01  0.29724674797E+02  0.00000000000E+00 0.  1.
         13    1    3    3    0    0 -0.32222511392E+02  0.29041387383E+02  0.13338009172E+03  0.14025669784E+03  0.00000000000E+00 0. -1.
          1    1    1    2  501    0  0.75903285813E+02 -0.15080591837E+02 -0.12222741873E+02  0.78346209010E+02  0.00000000000E+00 0. -1.
<scales pt_clust_5="13000.00000" pt_clust_6="13000.00000" pt_clust_7="13000.00000" pt_clust_8="13000.00000" pt_clust_9="77.38690"></scales>
<clustering>
<clus scale="   77.387">  2  9  1 -1</clus>
<clus scale="   90.470">  5  6 -1 -1</clus>
<clus scale="   90.742">  2  5  1 -1</clus>
<clus scale="   90.973">  7  8 -1 -1</clus>
<clus scale="   77.387">  2  5  1 -1</clus>
</clustering>
</event>
<event>
 9    1  0.1450862E-005  0.9944020E+02  0.7546771E-02  0.1282027E+00
         21   -1    0    0  501  502  0.00000000000E+00  0.00000000000E+00  0.42643123071E+03  0.42643123071E+03  0.00000000000E+00 0. -1.
          1   -1    0    0  502    0 -0.00000000000E+00 -0.00000000000E+00 -0.20149367758E+03  0.20149367758E+03  0.00000000000E+00 0. -1.
         23    2    1    2    0    0  0.17379427819E+02 -0.80466645644E+01 -0.11703789777E+03  0.15220917239E+03  0.95409482358E+02 0.  0.
         23    2    1    2    0    0 -0.16430765128E+02  0.62865851192E+02 -0.14129141127E+02  0.11541513412E+03  0.94334168068E+02 0.  0.
        -11    1    3    3    0    0 -0.30587661079E+02  0.24404303259E+01 -0.92224586957E+02  0.97195345310E+02  0.00000000000E+00 0.  1.
         11    1    3    3    0    0  0.47967088899E+02 -0.10487094890E+02 -0.24813310812E+02  0.55013827081E+02  0.00000000000E+00 0. -1.
        -13    1    4    4    0    0 -0.54029627165E+02  0.48772070798E+02 -0.18281282901E+02  0.75047457026E+02  0.00000000000E+00 0.  1.
         13    1    4    4    0    0  0.37598862037E+02  0.14093780394E+02  0.41521417740E+01  0.40367677089E+02  0.00000000000E+00 0. -1.
          1    1    1    2  501    0 -0.94866269077E+00 -0.54819186628E+02  0.35610459202E+03  0.36030060178E+03  0.00000000000E+00 0. -1.
<scales pt_clust_5="13000.00000" pt_clust_6="13000.00000" pt_clust_7="13000.00000" pt_clust_8="13000.00000" pt_clust_9="54.82739"></scales>
<clustering>
<clus scale="   54.827">  1  9  2 -1</clus>
<clus scale="   94.334">  7  8 -1 -1</clus>
<clus scale="   95.409">  5  6 -1 -1</clus>
<clus scale="   98.409">  1  7  2 -1</clus>
<clus scale="   54.827">  1  5  2 -1</clus>
</clustering>
</event>
<event>
 9    1  0.1426358E-005  0.1831508E+03  0.7546771E-02  0.1164987E+00
          1   -1    0    0  502    0 -0.00000000000E+00  0.00000000000E+00  0.30669046077E+03  0.30669046077E+03  0.00000000000E+00 0. -1.
         21   -1    0    0  501  502  0.00000000000E+00 -0.00000000000E+00 -0.17991658386E+03  0.17991658386E+03  0.00000000000E+00 0.  1.
         23    2    1    2    0    0 -0.18184971589E+02 -0.14677228446E+03  0.15021887368E+03  0.23109474502E+03  0.94690413921E+02 0.  0.
         23    2    1    2    0    0  0.56214754031E+01  0.17704915387E+03  0.19996083335E+02  0.20109118516E+03  0.93058140581E+02 0.  0.
        -11    1    4    4    0    0  0.54740878999E+01  0.10844794200E+03 -0.34004526979E+02  0.11378589375E+03  0.00000000000E+00 0.  1.
         11    1    4    4    0    0  0.14738750318E+00  0.68601211869E+02  0.54000610314E+02  0.87305291405E+02  0.00000000000E+00 0. -1.
        -11    1    3    3    0    0 -0.33212232524E+02 -0.46237041161E+02  0.10583659235E+03  0.12017612344E+03  0.00000000000E+00 0.  1.
         11    1    3    3    0    0  0.15027260935E+02 -0.10053524330E+03  0.44382281323E+02  0.11091862158E+03  0.00000000000E+00 0. -1.
          1    1    1    2  501    0  0.12563496185E+02 -0.30276869402E+02 -0.43441080106E+02  0.54421114450E+02  0.00000000000E+00 0. -1.
<scales pt_clust_5="13000.00000" pt_clust_6="13000.00000" pt_clust_7="13000.00000" pt_clust_8="13000.00000" pt_clust_9="32.78003"></scales>
<clustering>
<clus scale="   32.780">  2  9  1 -1</clus>
<clus scale="   93.058">  5  6 -1 -1</clus>
<clus scale="   94.690">  7  8 -1 -1</clus>
<clus scale="  182.312">  2  5  1 -1</clus>
<clus scale="   32.780">  2  5  1 -1</clus>
</clustering>
</event>
<event>
 9    1  0.1426358E-005  0.9606384E+02  0.7546771E-02  0.1290162E+00
         21   -1    0    0  501  502  0.00000000000E+00  0.00000000000E+00  0.63113684613E+02  0.63113684613E+02  0.00000000000E+00 0.  1.
          1   -1    0    0  502    0 -0.00000000000E+00 -0.00000000000E+00 -0.25909005801E+03  0.25909005801E+03  0.00000000000E+00 0. -1.
         23    2    1    2    0    0 -0.18715187356E+02 -0.20409471593E+01 -0.15740595362E+03  0.18354293597E+03  0.92503791317E+02 0.  0.
         23    2    1    2    0    0  0.43458300988E+02  0.20883954301E+02 -0.29387575756E+02  0.10623234362E+03  0.89982874759E+02 0.  0.
        -11    1    4    4    0    0  0.54168947516E+02  0.44420447634E+02 -0.37069441910E+02  0.79256511193E+02  0.00000000000E+00 0.  1.
         11    1    4    4    0    0 -0.10710646527E+02 -0.23536493333E+02  0.76818661535E+01  0.26975832426E+02  0.00000000000E+00 0. -1.
        -13    1    3    3    0    0 -0.40652660234E+02  0.16376350515E+02 -0.14646381243E+03  0.15288058082E+03  0.00000000000E+00 0. -1.
         13    1    3    3    0    0  0.21937472878E+02 -0.18417297675E+02 -0.10942141192E+02  0.30662355157E+02  0.00000000000E+00 0.  1.
          1    1    1    2  501    0 -0.24743113632E+02 -0.18843007141E+02 -0.91828440246E+01  0.32428463034E+02  0.00000000000E+00 0. -1.
<scales pt_clust_5="13000.00000" pt_clust_6="13000.00000" pt_clust_7="13000.00000" pt_clust_8="13000.00000" pt_clust_9="31.10113"></scales>
<clustering>
<clus scale="   31.101">  1  9  2 -1</clus>
<clus scale="   89.983">  5  6 -1 -1</clus>
<clus scale="   92.504">  7  8 -1 -1</clus>
<clus scale="   93.639">  1  5  2 -1</clus>
<clus scale="   31.101">  1  5  2 -1</clus>
</clustering>
</event>
<event>
 9    1  0.1426358E-005  0.1287732E+03  0.7546771E-02  0.1231479E+00
         21   -1    0    0  501  502  0.00000000000E+00  0.00000000000E+00  0.10480290222E+03  0.10480290222E+03  0.00000000000E+00 0.  1.
          2   -1    0    0  502    0 -0.00000000000E+00 -0.00000000000E+00 -0.28244817547E+03  0.28244817547E+03  0.00000000000E+00 0. -1.
         23    2    1    2    0    0 -0.10184465663E+03 -0.50365703822E+02 -0.16083772959E+03  0.21394065924E+03  0.83622916770E+02 0.  0.
         23    2    1    2    0    0  0.51588132945E+02  0.21564069286E+02 -0.34260618896E+02  0.11281362381E+03  0.91797489977E+02 0.  0.
        -11    1    3    3    0    0 -0.23065190415E+02 -0.56320958249E+02 -0.84021509112E+02  0.10374809560E+03  0.00000000000E+00 0. -1.
         11    1    3    3    0    0 -0.78779466216E+02  0.59552544263E+01 -0.76816220480E+02  0.11019256364E+03  0.00000000000E+00 0.  1.
        -11    1    4    4    0    0  0.43280497784E+02 -0.25118668176E+02  0.62736038199E+01  0.50433194270E+02  0.00000000000E+00 0. -1.
         11    1    4    4    0    0  0.83076351609E+01  0.46682737462E+02 -0.40534222716E+02  0.62380429544E+02  0.00000000000E+00 0.  1.
          2    1    1    2  501    0  0.50256523687E+02  0.28801634537E+02  0.17453075238E+02  0.60496794629E+02  0.00000000000E+00 0. -1.
<scales pt_clust_5="13000.00000" pt_clust_6="13000.00000" pt_clust_7="13000.00000" pt_clust_8="13000.00000" pt_clust_9="57.92454"></scales>
<clustering>
<clus scale="   57.925">  1  9  2 -1</clus>
<clus scale="   83.623">  5  6 -1 -1</clus>
<clus scale="   91.797">  7  8 -1 -1</clus>
<clus scale="  123.079">  2  5  1 -1</clus>
<clus scale="   57.925">  1  5  2 -1</clus>
</clustering>
</event>
<event>
 9    1  0.1473961E-005  0.9677775E+02  0.7546771E-02  0.1288072E+00
         21   -1    0    0  501  502  0.00000000000E+00  0.00000000000E+00  0.11347665768E+03  0.11347665768E+03  0.00000000000E+00 0.  1.
          2   -1    0    0  502    0 -0.00000000000E+00 -0.00000000000E+00 -0.24752413863E+03  0.24752413863E+03  0.00000000000E+00 0. -1.
         23    2    1    2    0    0  0.13062508657E+02  0.11931178663E+02 -0.18550369907E+03  0.20908490743E+03  0.94825597759E+02 0.  0.
         23    2    1    2    0    0 -0.99904166399E+01 -0.35902840888E+02  0.69176099993E+02  0.12194803021E+03  0.93258602032E+02 0.  0.
        -11    1    4    4    0    0 -0.26173727336E+02 -0.63351741584E+02  0.48321160152E+02  0.83865616810E+02  0.00000000000E+00 0.  1.
         11    1    4    4    0    0  0.16183310696E+02  0.27448900696E+02  0.20854939840E+02  0.38082413398E+02  0.00000000000E+00 0. -1.
        -11    1    3    3    0    0  0.54162244277E+02  0.11231298830E+02 -0.10944544261E+03  0.12262950577E+03  0.00000000000E+00 0. -1.
         11    1    3    3    0    0 -0.41099735621E+02  0.69987983287E+00 -0.76058256462E+02  0.86455401658E+02  0.00000000000E+00 0.  1.
          2    1    1    2  501    0 -0.30720920167E+01  0.23971662225E+02 -0.17719881875E+02  0.29967858663E+02  0.00000000000E+00 0. -1.
<scales pt_clust_5="13000.00000" pt_clust_6="13000.00000" pt_clust_7="13000.00000" pt_clust_8="13000.00000" pt_clust_9="24.16772"></scales>
<clustering>
<clus scale="   24.168">  1  9  2 -1</clus>
<clus scale="   93.259">  5  6 -1 -1</clus>
<clus scale="   94.826">  7  8 -1 -1</clus>
<clus scale="   95.243">  1  5  2 -1</clus>
<clus scale="   24.168">  1  5  2 -1</clus>
</clustering>
</event>
<event>
 9    1  0.1426358E-005  0.1137649E+03  0.7546771E-02  0.1256291E+00
         21   -1    0    0  501  502  0.00000000000E+00  0.00000000000E+00  0.79992220977E+02  0.79992220977E+02  0.00000000000E+00 0. -1.
          4   -1    0    0  502    0 -0.00000000000E+00 -0.00000000000E+00 -0.63072883635E+03  0.63072883635E+03  0.00000000000E+00 0. -1.
         23    2    1    2    0    0  0.44626962707E+02 -0.43670632062E+02 -0.34398729596E+03  0.35980555431E+03  0.85053437482E+02 0.  0.
         23    2    1    2    0    0 -0.76012279863E+02  0.23467135795E+02 -0.25932051300E+03  0.28644109111E+03  0.92047797716E+02 0.  0.
        -13    1    3    3    0    0 -0.70059019730E+01 -0.48647509609E+02 -0.21965164964E+03  0.22508334022E+03  0.00000000000E+00 0. -1.
         13    1    3    3    0    0  0.51632864680E+02  0.49768775469E+01 -0.12433564632E+03  0.13472221410E+03  0.00000000000E+00 0.  1.
        -13    1    4    4    0    0 -0.65073028234E+02  0.35431207922E+01 -0.25513844840E+03  0.26332998417E+03  0.00000000000E+00 0. -1.
         13    1    4    4    0    0 -0.10939251629E+02  0.19924015003E+02 -0.41820645969E+01  0.23111106947E+02  0.00000000000E+00 0.  1.
          4    1    1    2  501    0  0.31385317156E+02  0.20203496267E+02  0.52571193587E+02  0.64474411898E+02  0.00000000000E+00 0. -1.
<scales pt_clust_5="13000.00000" pt_clust_6="13000.00000" pt_clust_7="13000.00000" pt_clust_8="13000.00000" pt_clust_9="37.32585"></scales>
<clustering>
<clus scale="   37.326">  1  9  2 -1</clus>
<clus scale="   85.053">  5  6 -1 -1</clus>
<clus scale="   92.048">  7  8 -1 -1</clus>
<clus scale="  108.184">  2  5  1 -1</clus>
<clus scale="   37.326">  1  5  2 -1</clus>
</clustering>
</event>
<event>
 9    1  0.1426358E-005  0.1121328E+03  0.7546771E-02  0.1257956E+00
         21   -1    0    0  501  502  0.00000000000E+00  0.00000000000E+00  0.21289644474E+03  0.21289644474E+03  0.00000000000E+00 0.  1.
          2   -1    0    0  502    0 -0.00000000000E+00 -0.00000000000E+00 -0.34386427970E+03  0.34386427970E+03  0.00000000000E+00 0. -1.
         23    2    1    2    0    0  0.27055281372E+02 -0.49316129612E+02 -0.28110098642E+03  0.30190775758E+03  0.94691396814E+02 0.  0.
         23    2    1    2    0    0 -0.30959822154E+02  0.87102311860E+02  0.36425403923E+02  0.13496763474E+03  0.91346204395E+02 0.  0.
        -11    1    3    3    0    0  0.35673147261E+02 -0.74891833819E+02 -0.20408661061E+03  0.22030139546E+03  0.00000000000E+00 0. -1.
         11    1    3    3    0    0 -0.86178658886E+01  0.25575704207E+02 -0.77014375808E+02  0.81606362125E+02  0.00000000000E+00 0.  1.
        -11    1    4    4    0    0 -0.11477641084E+02  0.78651503653E+02  0.62661590862E+02  0.10121398244E+03  0.00000000000E+00 0.  1.
         11    1    4    4    0    0 -0.19482181069E+02  0.84508082071E+01 -0.26236186940E+02  0.33753652302E+02  0.00000000000E+00 0. -1.
          2    1    1    2  501    0  0.39045407813E+01 -0.37786182248E+02  0.11370774753E+03  0.11988533212E+03  0.00000000000E+00 0. -1.
<scales pt_clust_5="13000.00000" pt_clust_6="13000.00000" pt_clust_7="13000.00000" pt_clust_8="13000.00000" pt_clust_9="37.98738"></scales>
<clustering>
<clus scale="   37.987">  1  9  2 -1</clus>
<clus scale="   91.346">  7  8 -1 -1</clus>
<clus scale="   94.691">  5  6 -1 -1</clus>
<clus scale="  109.323">  1  7  2 -1</clus>
<clus scale="   37.987">  1  5  2 -1</clus>
</clustering>
</event>
<event>
 9    1  0.1426358E-005  0.2989246E+03  0.7546771E-02  0.1085828E+00
         21   -1    0    0  501  502  0.00000000000E+00  0.00000000000E+00  0.11559736151E+04  0.11559736151E+04  0.00000000000E+00 0. -1.
          1   -1    0    0  502    0 -0.00000000000E+00 -0.00000000000E+00 -0.23618561182E+03  0.23618561182E+03  0.00000000000E+00 0. -1.
         23    2    1    2    0    0  0.10524554020E+03 -0.25051245290E+03  0.37599972184E+02  0.28857392779E+03  0.89599336483E+02 0.  0.
         23    2    1    2    0    0 -0.20458882449E+03  0.23735699012E+03  0.14063844975E+03  0.35529529122E+03  0.90888077071E+02 0.  0.
        -11    1    3    3    0    0  0.36056178011E+02 -0.30307510420E+02 -0.19206767138E+02  0.50867406701E+02  0.00000000000E+00 0.  1.
         11    1    3    3    0    0  0.69189362192E+02 -0.22020494248E+03  0.56806739322E+02  0.23770652109E+03  0.00000000000E+00 0. -1.
        -13    1    4    4    0    0 -0.30129755404E+02  0.59121441615E+02  0.69166212862E+02  0.95849423687E+02  0.00000000000E+00 0. -1.
         13    1    4    4    0    0 -0.17445906909E+03  0.17823554850E+03  0.71472236888E+02  0.25944586754E+03  0.00000000000E+00 0.  1.
          1    1    1    2  501    0  0.99343284289E+02  0.13155462787E+02  0.74154958132E+03  0.74829000788E+03  0.00000000000E+00 0. -1.
<scales pt_clust_5="13000.00000" pt_clust_6="13000.00000" pt_clust_7="13000.00000" pt_clust_8="13000.00000" pt_clust_9="100.21055"></scales>
<clustering>
<clus scale="   89.599">  5  6 -1 -1</clus>
<clus scale="   90.888">  7  8 -1 -1</clus>
<clus scale="  100.211">  1  9  2 -1</clus>
<clus scale="  298.535">  2  5  1 -1</clus>
<clus scale="  100.211">  1  5  2 -1</clus>
</clustering>
</event>
<event>
 9    1  0.1426358E-005  0.9295659E+02  0.7546771E-02  0.1296222E+00
         21   -1    0    0  501  502  0.00000000000E+00  0.00000000000E+00  0.54918782388E+02  0.54918782388E+02  0.00000000000E+00 0.  1.
          2   -1    0    0  502    0 -0.00000000000E+00 -0.00000000000E+00 -0.23256075942E+03  0.23256075942E+03  0.00000000000E+00 0. -1.
         23    2    1    2    0    0  0.73280118140E+01  0.60613639467E+01 -0.12734087191E+03  0.15668727750E+03  0.90800690430E+02 0.  0.
         23    2    1    2    0    0 -0.17550660748E+02 -0.26829603477E+02 -0.45883094875E+02  0.10722658717E+03  0.91457253868E+02 0.  0.
        -11    1    4    4    0    0 -0.53229427665E+01 -0.60241175450E+02 -0.21899154843E+02  0.64318783587E+02  0.00000000000E+00 0.  1.
         11    1    4    4    0    0 -0.12227717981E+02  0.33411571973E+02 -0.23983940031E+02  0.42907803581E+02  0.00000000000E+00 0. -1.
        -11    1    3    3    0    0  0.21211829323E+02 -0.34204691561E+02 -0.29267309224E+02  0.49764224270E+02  0.00000000000E+00 0.  1.
         11    1    3    3    0    0 -0.13883817509E+02  0.40266055508E+02 -0.98073562684E+02  0.10692305323E+03  0.00000000000E+00 0. -1.
          2    1    1    2  501    0  0.10222648934E+02  0.20768239530E+02 -0.44180102491E+01  0.23565677138E+02  0.00000000000E+00 0. -1.
<scales pt_clust_5="13000.00000" pt_clust_6="13000.00000" pt_clust_7="13000.00000" pt_clust_8="13000.00000" pt_clust_9="23.14784"></scales>
<clustering>
<clus scale="   23.148">  1  9  2 -1</clus>
<clus scale="   90.801">  7  8 -1 -1</clus>
<clus scale="   91.457">  5  6 -1 -1</clus>
<clus scale="   92.311">  2  7  1 -1</clus>
<clus scale="   23.148">  1  5  2 -1</clus>
</clustering>
</event>
<event>
 9    1  0.1426358E-005  0.1506643E+03  0.7546771E-02  0.1199825E+00
          1   -1    0    0  502    0 -0.00000000000E+00  0.00000000000E+00  0.15738341930E+04  0.15738341930E+04  0.00000000000E+00 0. -1.
         21   -1    0    0  501  502  0.00000000000E+00 -0.00000000000E+00 -0.33520108314E+02  0.33520108314E+02  0.00000000000E+00 0. -1.
         23    2    1    2    0    0 -0.13518653475E+03  0.60018471992E+02  0.83755532313E+03  0.85547205769E+03  0.91956000442E+02 0.  0.
         23    2    1    2    0    0  0.25124975812E+02 -0.78360388813E+02  0.18345519677E+03  0.22072674374E+03  0.91065203202E+02 0.  0.
        -11    1    4    4    0    0  0.42073602118E+02 -0.66564634563E+02  0.18392335539E+03  0.20007208507E+03  0.00000000000E+00 0.  1.
         11    1    4    4    0    0 -0.16948626306E+02 -0.11795754250E+02 -0.46815861484E+00  0.20654658663E+02  0.00000000000E+00 0. -1.
        -13    1    3    3    0    0 -0.95529559052E+00  0.37281744016E+02  0.21425515662E+03  0.21747669568E+03  0.00000000000E+00 0.  1.
         13    1    3    3    0    0 -0.13423123915E+03  0.22736727976E+02  0.62330016651E+03  0.63799536200E+03  0.00000000000E+00 0. -1.
          1    1    1    2  501    0  0.11006155893E+03  0.18341916820E+02  0.51930356475E+03  0.53115549986E+03  0.00000000000E+00 0. -1.
<scales pt_clust_5="13000.00000" pt_clust_6="13000.00000" pt_clust_7="13000.00000" pt_clust_8="13000.00000" pt_clust_9="111.57950"></scales>
<clustering>
<clus scale="   91.065">  5  6 -1 -1</clus>
<clus scale="   91.956">  7  8 -1 -1</clus>
<clus scale="  111.580">  2  9  1 -1</clus>
<clus scale="  150.122">  2  5  1 -1</clus>
<clus scale="  111.580">  2  5  1 -1</clus>
</clustering>
</event>
<event>
 9    1  0.1426358E-005  0.1714648E+03  0.7546771E-02  0.1193726E+00
         -1   -1    0    0    0  501 -0.00000000000E+00  0.00000000000E+00  0.20180777575E+03  0.20180777575E+03  0.00000000000E+00 0.  1.
         21   -1    0    0  501  502  0.00000000000E+00 -0.00000000000E+00 -0.71294116731E+03  0.71294116731E+03  0.00000000000E+00 0.  1.
         23    2    1    2    0    0 -0.57671772500E+02 -0.39661170739E+02  0.36861904756E+02  0.12205850211E+03  0.92953946159E+02 0.  0.
         23    2    1    2    0    0 -0.60387758396E+02  0.12661550407E+03  0.51765375640E+02  0.17526678370E+03  0.91436448523E+02 0.  0.
        -11    1    4    4    0    0 -0.18049198905E+02  0.10992117378E+03  0.63561697811E+02  0.12825181268E+03  0.00000000000E+00 0.  1.
         11    1    4    4    0    0 -0.42338559490E+02  0.16694330290E+02 -0.11796322171E+02  0.47014971023E+02  0.00000000000E+00 0. -1.
        -11    1    3    3    0    0 -0.44264365099E+02  0.24483704859E+02  0.12153087989E+02  0.52023873067E+02  0.00000000000E+00 0.  1.
         11    1    3    3    0    0 -0.13407407401E+02 -0.64144875598E+02  0.24708816767E+02  0.70034629040E+02  0.00000000000E+00 0. -1.
         -1    1    1    2    0  502  0.11805953090E+03 -0.86954333332E+02 -0.59976067195E+03  0.61742365726E+03  0.00000000000E+00 0.  1.
<scales pt_clust_5="13000.00000" pt_clust_6="13000.00000" pt_clust_7="13000.00000" pt_clust_8="13000.00000" pt_clust_9="145.05021"></scales>
<clustering>
<clus scale="   91.436">  5  6 -1 -1</clus>
<clus scale="   92.954">  7  8 -1 -1</clus>
<clus scale="  116.359">  1  7  2 -1</clus>
<clus scale="  145.050">  2  9  1 -1</clus>
<clus scale="  145.050">  2  5  1 -1</clus>
</clustering>
</event>
<event>
 9    1  0.1426358E-005  0.1135129E+03  0.7546771E-02  0.1254381E+00
         -1   -1    0    0    0  501 -0.00000000000E+00  0.00000000000E+00  0.51561165603E+03  0.51561165603E+03  0.00000000000E+00 0.  1.
         21   -1    0    0  501  502  0.00000000000E+00 -0.00000000000E+00 -0.67656672794E+02  0.67656672794E+02  0.00000000000E+00 0.  1.
         23    2    1    2    0    0  0.13668130856E+02  0.66298904742E+02  0.34578680781E+03  0.36412288319E+03  0.91840051368E+02 0.  0.
         23    2    1    2    0    0  0.90195436944E+01 -0.66564770954E+02  0.13684165701E+03  0.17770812445E+03  0.91336287968E+02 0.  0.
        -11    1    3    3    0    0  0.41222068742E+02  0.53243205363E+02  0.30943589269E+03  0.31667754823E+03  0.00000000000E+00 0.  1.
         11    1    3    3    0    0 -0.27553937885E+02  0.13055699380E+02  0.36350915124E+02  0.47445334962E+02  0.00000000000E+00 0. -1.
        -13    1    4    4    0    0  0.53852742833E+01  0.22985120141E+02  0.32306733669E+02  0.40013022472E+02  0.00000000000E+00 0. -1.
         13    1    4    4    0    0  0.36342694111E+01 -0.89549891095E+02  0.10453492334E+03  0.13769510197E+03  0.00000000000E+00 0.  1.
         -1    1    1    2    0  502 -0.22687674551E+02  0.26586621136E+00 -0.34673481591E+02  0.41437321185E+02  0.00000000000E+00 0.  1.
<scales pt_clust_5="13000.00000" pt_clust_6="13000.00000" pt_clust_7="13000.00000" pt_clust_8="13000.00000" pt_clust_9="22.68923"></scales>
<clustering>
<clus scale="   22.689">  2  9  1 -1</clus>
<clus scale="   91.336">  7  8 -1 -1</clus>
<clus scale="   91.840">  5  6 -1 -1</clus>
<clus scale="  113.106">  2  7  1 -1</clus>
<clus scale="   22.689">  2  5  1 -1</clus>
</clustering>
</event>
<event>
 9    1  0.1426358E-005  0.1243766E+03  0.7546771E-02  0.1236280E+00
         21   -1    0    0  501  502  0.00000000000E+00  0.00000000000E+00  0.14789979076E+03  0.14789979076E+03  0.00000000000E+00 0.  1.
          2   -1    0    0  502    0 -0.00000000000E+00 -0.00000000000E+00 -0.26671885588E+03  0.26671885588E+03  0.00000000000E+00 0. -1.
         23    2    1    2    0    0  0.62672880635E+02  0.51178215668E+02 -0.17233696460E+03  0.21158612234E+03  0.92312285593E+02 0.  0.
         23    2    1    2    0    0 -0.86817210626E+02 -0.29151697908E+02 -0.10642081703E+02  0.13102822346E+03  0.93102587979E+02 0.  0.
        -11    1    4    4    0    0 -0.55642663851E+02  0.30376875244E+02 -0.56355213706E+01  0.63644478874E+02  0.00000000000E+00 0.  1.
         11    1    4    4    0    0 -0.31174546776E+02 -0.59528573152E+02 -0.50065603322E+01  0.67383744587E+02  0.00000000000E+00 0. -1.
        -13    1    3    3    0    0  0.55048091331E+02  0.77363502458E+02 -0.12525907140E+03  0.15717900254E+03  0.00000000000E+00 0.  1.
         13    1    3    3    0    0  0.76247893042E+01 -0.26185286790E+02 -0.47077893198E+02  0.54407119793E+02  0.00000000000E+00 0. -1.
          2    1    1    2  501    0  0.24144329991E+02 -0.22026517760E+02  0.64159981177E+02  0.72004300844E+02  0.00000000000E+00 0. -1.
<scales pt_clust_5="13000.00000" pt_clust_6="13000.00000" pt_clust_7="13000.00000" pt_clust_8="13000.00000" pt_clust_9="32.68205"></scales>
<clustering>
<clus scale="   32.682">  1  9  2 -1</clus>
<clus scale="   92.312">  7  8 -1 -1</clus>
<clus scale="   93.103">  5  6 -1 -1</clus>
<clus scale="  123.786">  2  7  1 -1</clus>
<clus scale="   32.682">  1  5  2 -1</clus>
</clustering>
</event>
<event>
 9    1  0.1426358E-005  0.9740616E+02  0.7546771E-02  0.1287755E+00
          1   -1    0    0  502    0 -0.00000000000E+00  0.00000000000E+00  0.22075495317E+03  0.22075495317E+03  0.00000000000E+00 0. -1.
         21   -1    0    0  501  502  0.00000000000E+00 -0.00000000000E+00 -0.10070444928E+03  0.10070444928E+03  0.00000000000E+00 0. -1.
         23    2    1    2    0    0 -0.18469727004E+02 -0.24998680978E+02  0.10959740064E+03  0.14728484459E+03  0.93355076739E+02 0.  0.
         23    2    1    2    0    0  0.43301701050E+02 -0.28082951347E+02  0.36845587647E+02  0.10990287002E+03  0.89762765334E+02 0.  0.
        -11    1    4    4    0    0  0.30224021427E+02  0.29067211107E+02  0.26165355100E+01  0.42014765153E+02  0.00000000000E+00 0.  1.
         11    1    4    4    0    0  0.13077679623E+02 -0.57150162455E+02  0.34229052137E+02  0.67888104872E+02  0.00000000000E+00 0. -1.
        -13    1    3    3    0    0  0.37286836266E+02 -0.12690080284E+02  0.30932238784E+02  0.50081430615E+02  0.00000000000E+00 0.  1.
         13    1    3    3    0    0 -0.55756563269E+02 -0.12308600694E+02  0.78665161852E+02  0.97203413972E+02  0.00000000000E+00 0. -1.
          1    1    1    2  501    0 -0.24831974046E+02  0.53081632325E+02 -0.26392484392E+02  0.64271687840E+02  0.00000000000E+00 0. -1.
<scales pt_clust_5="13000.00000" pt_clust_6="13000.00000" pt_clust_7="13000.00000" pt_clust_8="13000.00000" pt_clust_9="58.60279"></scales>
<clustering>
<clus scale="   58.603">  2  9  1 -1</clus>
<clus scale="   89.763">  5  6 -1 -1</clus>
<clus scale="   93.355">  7  8 -1 -1</clus>
<clus scale="   93.969">  2  5  1 -1</clus>
<clus scale="   58.603">  2  5  1 -1</clus>
</clustering>
</event>
<event>
 9    1  0.1426358E-005  0.9598643E+02  0.7546771E-02  0.1290171E+00
         -1   -1    0    0    0  501 -0.00000000000E+00  0.00000000000E+00  0.14382554049E+03  0.14382554049E+03  0.00000000000E+00 0.  1.
         21   -1    0    0  501  502  0.00000000000E+00 -0.00000000000E+00 -0.18971014663E+03  0.18971014663E+03  0.00000000000E+00 0.  1.
         23    2    1    2    0    0  0.21045749989E+02 -0.21176988656E+02  0.50579161228E+02  0.10760039104E+03  0.90156553619E+02 0.  0.
         23    2    1    2    0    0 -0.34472746559E+02 -0.35047865101E+02  0.96593397709E+01  0.10508980677E+03  0.92378793769E+02 0.  0.
        -11    1    3    3    0    0 -0.20112539988E+02 -0.42476516823E+02  0.15533283820E+02  0.49497996449E+02  0.00000000000E+00 0.  1.
         11    1    3    3    0    0  0.41158289977E+02  0.21299528167E+02  0.35045877408E+02  0.58102394592E+02  0.00000000000E+00 0. -1.
        -11    1    4    4    0    0 -0.61909147851E+02 -0.43245734258E+02  0.11534127485E+02  0.76393535171E+02  0.00000000000E+00 0.  1.
         11    1    4    4    0    0  0.27436401292E+02  0.81978691571E+01 -0.18747877139E+01  0.28696271597E+02  0.00000000000E+00 0. -1.
         -1    1    1    2    0  502  0.13426996570E+02  0.56224853757E+02 -0.10612310714E+03  0.12084548931E+03  0.00000000000E+00 0.  1.
<scales pt_clust_5="13000.00000" pt_clust_6="13000.00000" pt_clust_7="13000.00000" pt_clust_8="13000.00000" pt_clust_9="57.80587"></scales>
<clustering>
<clus scale="   57.806">  2  9  1 -1</clus>
<clus scale="   90.157">  5  6 -1 -1</clus>
<clus scale="   92.379">  7  8 -1 -1</clus>
<clus scale="   93.850">  1  5  2 -1</clus>
<clus scale="   57.806">  2  5  1 -1</clus>
</clustering>
</event>
<event>
 9    1  0.1426358E-005  0.1005811E+03  0.7546771E-02  0.1280231E+00
         21   -1    0    0  501  502  0.00000000000E+00  0.00000000000E+00  0.29027848831E+02  0.29027848831E+02  0.00000000000E+00 0. -1.
         -1   -1    0    0    0  501 -0.00000000000E+00 -0.00000000000E+00 -0.61521917866E+03  0.61521917866E+03  0.00000000000E+00 0.  1.
         23    2    1    2    0    0 -0.56068792607E+02  0.21465275457E+02 -0.33862309821E+03  0.35640369077E+03  0.93560251178E+02 0.  0.
         23    2    1    2    0    0  0.66966957192E+01  0.32705011298E+01 -0.15975782360E+03  0.18411228857E+03  0.91209816840E+02 0.  0.
        -13    1    3    3    0    0  0.22986997384E+02 -0.41147224762E+01 -0.12553150281E+03  0.12768512516E+03  0.00000000000E+00 0.  1.
         13    1    3    3    0    0 -0.79055789990E+02  0.25579997934E+02 -0.21309159540E+03  0.22871856561E+03  0.00000000000E+00 0. -1.
        -13    1    4    4    0    0  0.43719253325E+02  0.21912703229E+02 -0.10085860533E+03  0.11208924098E+03  0.00000000000E+00 0.  1.
         13    1    4    4    0    0 -0.37022557606E+02 -0.18642202099E+02 -0.58899218270E+02  0.72023047586E+02  0.00000000000E+00 0. -1.
         -1    1    1    2    0  502  0.49372096888E+02 -0.24735776587E+02 -0.87810408021E+02  0.10373104815E+03  0.00000000000E+00 0.  1.
<scales pt_clust_5="13000.00000" pt_clust_6="13000.00000" pt_clust_7="13000.00000" pt_clust_8="13000.00000" pt_clust_9="55.22194"></scales>
<clustering>
<clus scale="   55.222">  1  9  2 -1</clus>
<clus scale="   91.210">  7  8 -1 -1</clus>
<clus scale="   93.560">  5  6 -1 -1</clus>
<clus scale="   98.399">  1  7  2 -1</clus>
<clus scale="   55.222">  1  5  2 -1</clus>
</clustering>
</event>
<event>
 9    1  0.1426358E-005  0.1581833E+03  0.7546771E-02  0.1191055E+00
          1   -1    0    0  502    0 -0.00000000000E+00  0.00000000000E+00  0.21178186316E+03  0.21178186316E+03  0.00000000000E+00 0. -1.
         21   -1    0    0  501  502  0.00000000000E+00 -0.00000000000E+00 -0.19749706473E+03  0.19749706473E+03  0.00000000000E+00 0.  1.
         23    2    1    2    0    0 -0.70935954892E+02  0.10369149068E+03  0.10587547701E+03  0.18854250743E+03  0.92492299906E+02 0.  0.
         23    2    1    2    0    0  0.98887373104E+02 -0.89883717364E+02 -0.54636085242E+02  0.17238791114E+03  0.94205599036E+02 0.  0.
        -11    1    4    4    0    0  0.83406365393E+02 -0.27719258177E+02  0.45747040885E+00  0.87893050585E+02  0.00000000000E+00 0. -1.
         11    1    4    4    0    0  0.15481007710E+02 -0.62164459187E+02 -0.55093555651E+02  0.84494860553E+02  0.00000000000E+00 0.  1.
        -11    1    3    3    0    0 -0.91961912623E+02  0.70907798700E+02  0.70002645263E+02  0.13559232882E+03  0.00000000000E+00 0.  1.
         11    1    3    3    0    0  0.21025957731E+02  0.32783691981E+02  0.35872831744E+02  0.52950178619E+02  0.00000000000E+00 0. -1.
          1    1    1    2  501    0 -0.27951418211E+02 -0.13807773317E+02 -0.36954593338E+02  0.48348509313E+02  0.00000000000E+00 0. -1.
<scales pt_clust_5="13000.00000" pt_clust_6="13000.00000" pt_clust_7="13000.00000" pt_clust_8="13000.00000" pt_clust_9="31.17589"></scales>
<clustering>
<clus scale="   31.176">  2  9  1 -1</clus>
<clus scale="   92.492">  7  8 -1 -1</clus>
<clus scale="   94.206">  5  6 -1 -1</clus>
<clus scale="  157.169">  1  7  2 -1</clus>
<clus scale="   31.176">  2  5  1 -1</clus>
</clustering>
</event>
<event>
 9    1  0.1426358E-005  0.1950588E+03  0.7546771E-02  0.1154409E+00
         21   -1    0    0  501  502  0.00000000000E+00  0.00000000000E+00  0.17991291836E+03  0.17991291836E+03  0.00000000000E+00 0.  1.
          1   -1    0    0  502    0 -0.00000000000E+00 -0.00000000000E+00 -0.10155059726E+04  0.10155059726E+04  0.00000000000E+00 0. -1.
         23    2    1    2    0    0  0.10931526520E+03  0.11849166668E+03 -0.71394042458E+03  0.73795192018E+03  0.94191317928E+02 0.  0.
         23    2    1    2    0    0 -0.21775639209E+03 -0.92146897953E+02 -0.19882684662E+03  0.32178578347E+03  0.90028208959E+02 0.  0.
        -11    1    4    4    0    0 -0.29260354935E+02 -0.52921157467E+02 -0.46750382191E+02  0.76435695284E+02  0.00000000000E+00 0.  1.
         11    1    4    4    0    0 -0.18849603715E+03 -0.39225740486E+02 -0.15207646443E+03  0.24535008818E+03  0.00000000000E+00 0. -1.
        -11    1    3    3    0    0  0.31314729732E+02  0.46228822873E+02 -0.97060864547E+02  0.11197556782E+03  0.00000000000E+00 0.  1.
         11    1    3    3    0    0  0.78000535472E+02  0.72262843806E+02 -0.61687956003E+03  0.62597635236E+03  0.00000000000E+00 0. -1.
          1    1    1    2  501    0  0.10844112688E+03 -0.26344768726E+02  0.77174216934E+02  0.13568118734E+03  0.00000000000E+00 0. -1.
<scales pt_clust_5="13000.00000" pt_clust_6="13000.00000" pt_clust_7="13000.00000" pt_clust_8="13000.00000" pt_clust_9="111.59536"></scales>
<clustering>
<clus scale="   90.028">  5  6 -1 -1</clus>
<clus scale="   94.191">  7  8 -1 -1</clus>
<clus scale="  111.595">  1  9  2 -1</clus>
<clus scale="  193.083">  1  5  2 -1</clus>
<clus scale="  111.595">  1  5  2 -1</clus>
</clustering>
</event>
<event>
 9    1  0.1426358E-005  0.1182604E+03  0.7546771E-02  0.1247752E+00
          2   -1    0    0  502    0 -0.00000000000E+00  0.00000000000E+00  0.42336701870E+03  0.42336701870E+03  0.00000000000E+00 0. -1.
         21   -1    0    0  501  502  0.00000000000E+00 -0.00000000000E+00 -0.44373762313E+02  0.44373762313E+02  0.00000000000E+00 0.  1.
         23    2    1    2    0    0  0.17849296018E+02 -0.68367208920E+02  0.22765395064E+03  0.25311428452E+03  0.85134289006E+02 0.  0.
         23    2    1    2    0    0 -0.36867602221E+02  0.78578009098E+02  0.14581554317E+03  0.19234492643E+03  0.90557575538E+02 0.  0.
        -13    1    4    4    0    0 -0.24027048802E+02  0.10839413097E+02 -0.47144466013E+01  0.26777190987E+02  0.00000000000E+00 0.  1.
         13    1    4    4    0    0 -0.12840553419E+02  0.67738596002E+02  0.15052998977E+03  0.16556773544E+03  0.00000000000E+00 0. -1.
        -13    1    3    3    0    0  0.49588176946E+02 -0.21944561997E+02  0.10465672768E+03  0.11787103861E+03  0.00000000000E+00 0.  1.
         13    1    3    3    0    0 -0.31738880928E+02 -0.46422646923E+02  0.12299722296E+03  0.13524324591E+03  0.00000000000E+00 0. -1.
          2    1    1    2  501    0  0.19018306204E+02 -0.10210800178E+02  0.55237625778E+01  0.22281570056E+02  0.00000000000E+00 0. -1.
<scales pt_clust_5="13000.00000" pt_clust_6="13000.00000" pt_clust_7="13000.00000" pt_clust_8="13000.00000" pt_clust_9="21.58602"></scales>
<clustering>
<clus scale="   21.586">  2  9  1 -1</clus>
<clus scale="   85.134">  7  8 -1 -1</clus>
<clus scale="   90.558">  5  6 -1 -1</clus>
<clus scale="  114.161">  1  7  2 -1</clus>
<clus scale="   21.586">  2  5  1 -1</clus>
</clustering>
</event>
<event>
 9    1  0.1426358E-005  0.1101927E+03  0.7546771E-02  0.1261312E+00
         21   -1    0    0  501  502  0.00000000000E+00  0.00000000000E+00  0.47353960328E+02  0.47353960328E+02  0.00000000000E+00 0.  1.
         -1   -1    0    0    0  501 -0.00000000000E+00 -0.00000000000E+00 -0.46569086437E+03  0.46569086437E+03  0.00000000000E+00 0.  1.
         23    2    1    2    0    0 -0.50148084387E+02 -0.10042718943E+01 -0.22617498263E+03  0.24998237866E+03  0.93916068598E+02 0.  0.
         23    2    1    2    0    0  0.78850858512E+02 -0.21086287734E+01 -0.74035892883E+02  0.14145941150E+03  0.91145748470E+02 0.  0.
        -11    1    4    4    0    0  0.76218171049E+02  0.25299540002E+02 -0.79925673813E+02  0.11330220500E+03  0.00000000000E+00 0.  1.
         11    1    4    4    0    0  0.26326874630E+01 -0.27408168775E+02  0.58897809300E+01  0.28157206507E+02  0.00000000000E+00 0. -1.
        -13    1    3    3    0    0 -0.14739385715E+02  0.19775865411E+02 -0.51753812424E+01  0.25201565725E+02  0.00000000000E+00 0. -1.
         13    1    3    3    0    0 -0.35408698673E+02 -0.20780137305E+02 -0.22099960139E+03  0.22478081293E+03  0.00000000000E+00 0.  1.
         -1    1    1    2    0  502 -0.28702774125E+02  0.31129006677E+01 -0.11812602853E+03  0.12160303454E+03  0.00000000000E+00 0.  1.
<scales pt_clust_5="13000.00000" pt_clust_6="13000.00000" pt_clust_7="13000.00000" pt_clust_8="13000.00000" pt_clust_9="28.87110"></scales>
<clustering>
<clus scale="   28.871">  1  9  2 -1</clus>
<clus scale="   91.146">  5  6 -1 -1</clus>
<clus scale="   93.916">  7  8 -1 -1</clus>
<clus scale="  107.841">  1  5  2 -1</clus>
<clus scale="   28.871">  1  5  2 -1</clus>
</clustering>
</event>
<event>
 9    1  0.1426358E-005  0.2280306E+03  0.7546771E-02  0.1128185E+00
          4   -1    0    0  502    0 -0.00000000000E+00  0.00000000000E+00  0.41368957584E+03  0.41368957584E+03  0.00000000000E+00 0. -1.
         21   -1    0    0  501  502  0.00000000000E+00 -0.00000000000E+00 -0.46930415543E+03  0.46930415543E+03  0.00000000000E+00 0.  1.
         23    2    1    2    0    0  0.58256951061E+02  0.20039970218E+03  0.33200200195E+03  0.40237481694E+03  0.90145721069E+02 0.  0.
         23    2    1    2    0    0 -0.17320614879E+02 -0.21015265285E+03 -0.26510785432E+03  0.35108400818E+03  0.92269524664E+02 0.  0.
        -13    1    4    4    0    0  0.25120149825E+02 -0.13473394186E+03 -0.12017808270E+03  0.18228282579E+03  0.00000000000E+00 0. -1.
         13    1    4    4    0    0 -0.42440764704E+02 -0.75418710984E+02 -0.14492977162E+03  0.16880118239E+03  0.00000000000E+00 0.  1.
        -13    1    3    3    0    0  0.54889570574E+02  0.14758175741E+03  0.30433140051E+03  0.34265265418E+03  0.00000000000E+00 0. -1.
         13    1    3    3    0    0  0.33673804868E+01  0.52817944770E+02  0.27670601443E+02  0.59722162764E+02  0.00000000000E+00 0.  1.
          4    1    1    2  501    0 -0.40936336183E+02  0.97529506651E+01 -0.12250872722E+03  0.12953490615E+03  0.00000000000E+00 0. -1.
<scales pt_clust_5="13000.00000" pt_clust_6="13000.00000" pt_clust_7="13000.00000" pt_clust_8="13000.00000" pt_clust_9="42.08211"></scales>
<clustering>
<clus scale="   42.082">  2  9  1 -1</clus>
<clus scale="   90.146">  7  8 -1 -1</clus>
<clus scale="   92.270">  5  6 -1 -1</clus>
<clus scale="  227.180">  1  7  2 -1</clus>
<clus scale="   42.082">  2  5  1 -1</clus>
</clustering>
</event>
<event>
 9    1  0.1426358E-005  0.1094562E+03  0.7546771E-02  0.1263401E+00
          2   -1    0    0  502    0 -0.00000000000E+00  0.00000000000E+00  0.78038359007E+02  0.78038359007E+02  0.00000000000E+00 0. -1.
         21   -1    0    0  501  502  0.00000000000E+00 -0.00000000000E+00 -0.37609895337E+03  0.37609895337E+03  0.00000000000E+00 0. -1.
         23    2    1    2    0    0  0.27102760627E+02 -0.33598368290E+02  0.50462095942E+00  0.10182194925E+03  0.92217377545E+02 0.  0.
         23    2    1    2    0    0 -0.55881595381E+02  0.52739856580E+02 -0.12620179991E+03  0.17652069632E+03  0.96583729250E+02 0.  0.
        -11    1    3    3    0    0  0.53164352261E+02 -0.16169124895E+02  0.26057810200E+02  0.61375063532E+02  0.00000000000E+00 0. -1.
         11    1    3    3    0    0 -0.26061591634E+02 -0.17429243395E+02 -0.25553189240E+02  0.40446885717E+02  0.00000000000E+00 0.  1.
        -13    1    4    4    0    0 -0.39175222509E+02  0.81057523242E+02 -0.85063465126E+02  0.12385803661E+03  0.00000000000E+00 0.  1.
         13    1    4    4    0    0 -0.16706372871E+02 -0.28317666662E+02 -0.41138334782E+02  0.52662659716E+02  0.00000000000E+00 0. -1.
          2    1    1    2  501    0  0.28778834754E+02 -0.19141488291E+02 -0.17236341542E+03  0.17579466681E+03  0.00000000000E+00 0. -1.
<scales pt_clust_5="13000.00000" pt_clust_6="13000.00000" pt_clust_7="13000.00000" pt_clust_8="13000.00000" pt_clust_9="34.56324"></scales>
<clustering>
<clus scale="   34.563">  2  9  1 -1</clus>
<clus scale="   92.217">  5  6 -1 -1</clus>
<clus scale="   96.584">  7  8 -1 -1</clus>
<clus scale="  105.623">  1  5  2 -1</clus>
<clus scale="   34.563">  2  5  1 -1</clus>
</clustering>
</event>
<event>
 9    1  0.1426358E-005  0.9496299E+02  0.7546771E-02  0.1291366E+00
         21   -1    0    0  501  502  0.00000000000E+00  0.00000000000E+00  0.10721460106E+03  0.10721460106E+03  0.00000000000E+00 0.  1.
          1   -1    0    0  502    0 -0.00000000000E+00 -0.00000000000E+00 -0.12545227959E+03  0.12545227959E+03  0.00000000000E+00 0. -1.
         23    2    1    2    0    0  0.67727063358E+01  0.15405823440E+02 -0.25874759413E+02  0.96193877318E+02  0.91107353774E+02 0.  0.
         23    2    1    2    0    0 -0.18723695329E+02 -0.33251087064E+02 -0.20870698502E+02  0.10078024416E+03  0.90911275420E+02 0.  0.
        -11    1    4    4    0    0 -0.13310167524E+02  0.19671748263E+02 -0.38068641804E+02  0.44870477244E+02  0.00000000000E+00 0. -1.
         11    1    4    4    0    0 -0.54135278047E+01 -0.52922835327E+02  0.17197943302E+02  0.55909766912E+02  0.00000000000E+00 0.  1.
        -11    1    3    3    0    0 -0.12754808967E+01 -0.37611870511E+02 -0.18913410630E+02  0.42118840873E+02  0.00000000000E+00 0.  1.
         11    1    3    3    0    0  0.80481872325E+01  0.53017693951E+02 -0.69613487829E+01  0.54075036445E+02  0.00000000000E+00 0. -1.
          1    1    1    2  501    0  0.11950988993E+02  0.17845263623E+02  0.28507779385E+02  0.35692759170E+02  0.00000000000E+00 0. -1.
<scales pt_clust_5="13000.00000" pt_clust_6="13000.00000" pt_clust_7="13000.00000" pt_clust_8="13000.00000" pt_clust_9="21.47742"></scales>
<clustering>
<clus scale="   21.477">  1  9  2 -1</clus>
<clus scale="   90.911">  5  6 -1 -1</clus>
<clus scale="   91.107">  7  8 -1 -1</clus>
<clus scale="   94.775">  1  5  2 -1</clus>
<clus scale="   21.477">  1  5  2 -1</clus>
</clustering>
</event>
<event>
 9    1  0.1426358E-005  0.1128465E+03  0.7546771E-02  0.1256045E+00
          1   -1    0    0  502    0 -0.00000000000E+00  0.00000000000E+00  0.16275264155E+03  0.16275264155E+03  0.00000000000E+00 0. -1.
         21   -1    0    0  501  502  0.00000000000E+00 -0.00000000000E+00 -0.14185648030E+03  0.14185648030E+03  0.00000000000E+00 0. -1.
         23    2    1    2    0    0  0.58295780777E+02 -0.33345695693E+01  0.58298373328E+02  0.12245421293E+03  0.90481028511E+02 0.  0.
         23    2    1    2    0    0 -0.75363750478E+02 -0.23101515011E+02  0.13716100701E+02  0.12212771459E+03  0.92269563618E+02 0.  0.
        -13    1    3    3    0    0  0.58164017231E+01  0.38248699797E+02  0.10194974617E+02  0.40009137364E+02  0.00000000000E+00 0. -1.
         13    1    3    3    0    0  0.52479379054E+02 -0.41583269366E+02  0.48103398711E+02  0.82445075564E+02  0.00000000000E+00 0.  1.
        -13    1    4    4    0    0 -0.32345064220E+02  0.33329207660E+02 -0.96222679777E+01  0.47430236176E+02  0.00000000000E+00 0.  1.
         13    1    4    4    0    0 -0.43018686257E+02 -0.56430722671E+02  0.23338368679E+02  0.74697478412E+02  0.00000000000E+00 0. -1.
          1    1    1    2  501    0  0.17067969700E+02  0.26436084580E+02 -0.51118312777E+02  0.60027194327E+02  0.00000000000E+00 0. -1.
<scales pt_clust_5="13000.00000" pt_clust_6="13000.00000" pt_clust_7="13000.00000" pt_clust_8="13000.00000" pt_clust_9="31.46716"></scales>
<clustering>
<clus scale="   31.467">  2  9  1 -1</clus>
<clus scale="   90.481">  5  6 -1 -1</clus>
<clus scale="   92.270">  7  8 -1 -1</clus>
<clus scale="  111.389">  1  5  2 -1</clus>
<clus scale="   31.467">  2  5  1 -1</clus>
</clustering>
</event>
<event>
 9    1  0.1426358E-005  0.1157945E+03  0.7546771E-02  0.1252869E+00
          1   -1    0    0  502    0 -0.00000000000E+00  0.00000000000E+00  0.34883562501E+03  0.34883562501E+03  0.00000000000E+00 0. -1.
         21   -1    0    0  501  502  0.00000000000E+00 -0.00000000000E+00 -0.65109156271E+02  0.65109156271E+02  0.00000000000E+00 0. -1.
         23    2    1    2    0    0 -0.55225862078E+02 -0.57955647281E+02  0.23752615257E+03  0.26704691242E+03  0.92122892847E+02 0.  0.
         23    2    1    2    0    0  0.32177551510E+02  0.40145095655E+02  0.58914512656E+02  0.11511593748E+03  0.84461445257E+02 0.  0.
        -11    1    4    4    0    0 -0.23046293060E+02  0.17522957862E+02  0.45530695045E+02  0.53955814027E+02  0.00000000000E+00 0.  1.
         11    1    4    4    0    0  0.55223844570E+02  0.22622137793E+02  0.13383817611E+02  0.61160123457E+02  0.00000000000E+00 0. -1.
        -13    1    3    3    0    0  0.21960343110E+02 -0.97215307664E+01  0.20024108872E+02  0.31268670680E+02  0.00000000000E+00 0.  1.
         13    1    3    3    0    0 -0.77186205189E+02 -0.48234116515E+02  0.21750204370E+03  0.23577824174E+03  0.00000000000E+00 0. -1.
          1    1    1    2  501    0  0.23048310568E+02  0.17810551626E+02 -0.12714196489E+02  0.31781931370E+02  0.00000000000E+00 0. -1.
<scales pt_clust_5="13000.00000" pt_clust_6="13000.00000" pt_clust_7="13000.00000" pt_clust_8="13000.00000" pt_clust_9="29.12800"></scales>
<clustering>
<clus scale="   29.128">  2  9  1 -1</clus>
<clus scale="   84.461">  5  6 -1 -1</clus>
<clus scale="   92.123">  7  8 -1 -1</clus>
<clus scale="  109.797">  2  5  1 -1</clus>
<clus scale="   29.128">  2  5  1 -1</clus>
</clustering>
</event>
<event>
 9    1  0.1426358E-005  0.1255305E+03  0.7546771E-02  0.1235057E+00
          2   -1    0    0  502    0 -0.00000000000E+00  0.00000000000E+00  0.45213431279E+03  0.45213431279E+03  0.00000000000E+00 0.  1.
         21   -1    0    0  501  502  0.00000000000E+00 -0.00000000000E+00 -0.44528843172E+02  0.44528843172E+02  0.00000000000E+00 0.  1.
         23    2    1    2    0    0 -0.67746556508E+01  0.92814698392E+02  0.25773104245E+03  0.28801944028E+03  0.88709884126E+02 0.  0.
         23    2    1    2    0    0 -0.11955758693E+02 -0.75125738506E+02  0.12844987704E+03  0.17513641690E+03  0.91578255391E+02 0.  0.
        -11    1    3    3    0    0 -0.43479017178E+02  0.59967736250E+02  0.11278909398E+03  0.13493677796E+03  0.00000000000E+00 0. -1.
         11    1    3    3    0    0  0.36704361527E+02  0.32846962143E+02  0.14494194847E+03  0.15308266233E+03  0.00000000000E+00 0.  1.
        -13    1    4    4    0    0 -0.40602264909E+02 -0.47220731210E+01  0.61510219932E+02  0.73853564886E+02  0.00000000000E+00 0.  1.
         13    1    4    4    0    0  0.28646506216E+02 -0.70403665385E+02  0.66939657107E+02  0.10128285201E+03  0.00000000000E+00 0. -1.
          2    1    1    2  501    0  0.18730414344E+02 -0.17688959886E+02  0.21424550130E+02  0.33507298782E+02  0.00000000000E+00 0.  1.
<scales pt_clust_5="13000.00000" pt_clust_6="13000.00000" pt_clust_7="13000.00000" pt_clust_8="13000.00000" pt_clust_9="25.76291"></scales>
<clustering>
<clus scale="   25.763">  2  9  1 -1</clus>
<clus scale="   88.710">  5  6 -1 -1</clus>
<clus scale="   91.578">  7  8 -1 -1</clus>
<clus scale="  123.454">  1  5  2 -1</clus>
<clus scale="   25.763">  2  5  1 -1</clus>
</clustering>
</event>
<event>
 9    1  0.1426358E-005  0.9761930E+02  0.7546771E-02  0.1287062E+00
         21   -1    0    0  501  502  0.00000000000E+00  0.00000000000E+00  0.99926839148E+02  0.99926839148E+02  0.00000000000E+00 0.  1.
         -3   -1    0    0    0  501 -0.00000000000E+00 -0.00000000000E+00 -0.40421232173E+03  0.40421232173E+03  0.00000000000E+00 0.  1.
         23    2    1    2    0    0 -0.13818088379E+02 -0.60925373277E+01 -0.29433473614E+03  0.31010627690E+03  0.96461948441E+02 0.  0.
         23    2    1    2    0    0 -0.43242320946E+00  0.25397619077E+02 -0.76453477384E+02  0.12333368679E+03  0.93385427384E+02 0.  0.
        -11    1    3    3    0    0  0.34465123875E+02  0.15159761703E+02 -0.18394731685E+03  0.18776122740E+03  0.00000000000E+00 0.  1.
         11    1    3    3    0    0 -0.48283212254E+02 -0.21252299031E+02 -0.11038741929E+03  0.12234504950E+03  0.00000000000E+00 0. -1.
        -13    1    4    4    0    0 -0.30910177488E+02 -0.14591592281E+02 -0.29900110600E+01  0.34311715256E+02  0.00000000000E+00 0. -1.
         13    1    4    4    0    0  0.30477754279E+02  0.39989211358E+02 -0.73463466324E+02  0.89021971531E+02  0.00000000000E+00 0.  1.
         -3    1    1    2    0  502  0.14250511589E+02 -0.19305081749E+02  0.66502730938E+02  0.70699197195E+02  0.00000000000E+00 0.  1.
<scales pt_clust_5="13000.00000" pt_clust_6="13000.00000" pt_clust_7="13000.00000" pt_clust_8="13000.00000" pt_clust_9="23.99507"></scales>
<clustering>
<clus scale="   23.995">  1  9  2 -1</clus>
<clus scale="   93.385">  7  8 -1 -1</clus>
<clus scale="   94.580">  1  7  2 -1</clus>
<clus scale="   96.462">  5  6 -1 -1</clus>
<clus scale="   23.995">  1  5  2 -1</clus>
</clustering>
</event>
<event>
 9    1  0.1426358E-005  0.1112117E+03  0.7546771E-02  0.1258584E+00
         21   -1    0    0  501  502  0.00000000000E+00  0.00000000000E+00  0.10606968153E+03  0.10606968153E+03  0.00000000000E+00 0. -1.
          2   -1    0    0  502    0 -0.00000000000E+00 -0.00000000000E+00 -0.27271212174E+03  0.27271212174E+03  0.00000000000E+00 0. -1.
         23    2    1    2    0    0  0.51780790088E+02  0.44381845380E+02 -0.19403010463E+03  0.22511286355E+03  0.91526615882E+02 0.  0.
         23    2    1    2    0    0 -0.82263486106E+01 -0.54205471933E+02  0.14019149723E+02  0.10706196388E+03  0.90883560406E+02 0.  0.
        -11    1    4    4    0    0  0.24380195772E+02 -0.56954244545E+02 -0.14532358724E+02  0.63634655398E+02  0.00000000000E+00 0. -1.
         11    1    4    4    0    0 -0.32606544383E+02  0.27487726115E+01  0.28551508447E+02  0.43427308483E+02  0.00000000000E+00 0.  1.
        -13    1    3    3    0    0 -0.14037305354E+02  0.38369666376E+02 -0.38568656673E+02  0.56185572142E+02  0.00000000000E+00 0.  1.
         13    1    3    3    0    0  0.65818095442E+02  0.60121790041E+01 -0.15546144795E+03  0.16892729141E+03  0.00000000000E+00 0. -1.
          2    1    1    2  501    0 -0.43554441477E+02  0.98236265531E+01  0.13368514702E+02  0.46606975834E+02  0.00000000000E+00 0. -1.
<scales pt_clust_5="13000.00000" pt_clust_6="13000.00000" pt_clust_7="13000.00000" pt_clust_8="13000.00000" pt_clust_9="44.64855"></scales>
<clustering>
<clus scale="   44.649">  1  9  2 -1</clus>
<clus scale="   90.884">  5  6 -1 -1</clus>
<clus scale="   91.527">  7  8 -1 -1</clus>
<clus scale="  110.683">  1  5  2 -1</clus>
<clus scale="   44.649">  1  5  2 -1</clus>
</clustering>
</event>
<event>
 9    1  0.2218035E-005  0.1167341E+03  0.7546771E-02  0.1251415E+00
         21   -1    0    0  501  502  0.00000000000E+00  0.00000000000E+00  0.31567061582E+03  0.31567061582E+03  0.00000000000E+00 0. -1.
          1   -1    0    0  502    0 -0.00000000000E+00 -0.00000000000E+00 -0.22915991607E+03  0.22915991607E+03  0.00000000000E+00 0. -1.
         23    2    1    2    0    0  0.39178227171E+02 -0.41996494399E+02 -0.13284973437E+03  0.17606875703E+03  0.10026223743E+03 0.  0.
         23    2    1    2    0    0 -0.81171779151E+02  0.48113687924E+02  0.27121535483E+03  0.30175572090E+03  0.92709016314E+02 0.  0.
        -11    1    3    3    0    0  0.42483489016E+02 -0.21886024298E+02 -0.14477308662E+03  0.15245685129E+03  0.00000000000E+00 0.  1.
         11    1    3    3    0    0 -0.33052618441E+01 -0.20110470101E+02  0.11923352250E+02  0.23611905734E+02  0.00000000000E+00 0. -1.
        -11    1    4    4    0    0 -0.34204451116E+02  0.71908489015E+02  0.16424003846E+03  0.18252552013E+03  0.00000000000E+00 0.  1.
         11    1    4    4    0    0 -0.46967328035E+02 -0.23794801091E+02  0.10697531637E+03  0.11923020077E+03  0.00000000000E+00 0. -1.
          1    1    1    2  501    0  0.41993551979E+02 -0.61171935249E+01 -0.51854920715E+02  0.67006053957E+02  0.00000000000E+00 0. -1.
<scales pt_clust_5="13000.00000" pt_clust_6="13000.00000" pt_clust_7="13000.00000" pt_clust_8="13000.00000" pt_clust_9="42.43678"></scales>
<clustering>
<clus scale="   42.437">  1  9  2 -1</clus>
<clus scale="   92.709">  7  8 -1 -1</clus>
<clus scale="  100.262">  5  6 -1 -1</clus>
<clus scale="  110.314">  1  7  2 -1</clus>
<clus scale="   42.437">  1  5  2 -1</clus>
</clustering>
</event>
<event>
 9    1  0.1426358E-005  0.1171861E+03  0.7546771E-02  0.1249134E+00
         21   -1    0    0  501  502  0.00000000000E+00  0.00000000000E+00  0.21223361127E+03  0.21223361127E+03  0.00000000000E+00 0. -1.
         -3   -1    0    0    0  501 -0.00000000000E+00 -0.00000000000E+00 -0.15118245165E+03  0.15118245165E+03  0.00000000000E+00 0.  1.
         23    2    1    2    0    0 -0.62782650597E+02 -0.49295570036E+02 -0.54859811154E+02  0.13457146127E+03  0.93424648071E+02 0.  0.
         23    2    1    2    0    0  0.27570194110E+02  0.55612365778E+02  0.15024807490E+01  0.10897333073E+03  0.89554891164E+02 0.  0.
        -11    1    3    3    0    0  0.24508634910E+02 -0.50802993008E+01 -0.10931765185E+02  0.27312746406E+02  0.00000000000E+00 0.  1.
         11    1    3    3    0    0 -0.87291285507E+02 -0.44215270735E+02 -0.43928045969E+02  0.10725871486E+03  0.00000000000E+00 0. -1.
        -13    1    4    4    0    0  0.53436557495E+02  0.79999931960E+01 -0.56145238129E+01  0.54323001074E+02  0.00000000000E+00 0.  1.
         13    1    4    4    0    0 -0.25866363385E+02  0.47612372582E+02  0.71170045618E+01  0.54650329657E+02  0.00000000000E+00 0. -1.
         -3    1    1    2    0  502  0.35212456487E+02 -0.63167957422E+01  0.11440849003E+03  0.11987127092E+03  0.00000000000E+00 0.  1.
<scales pt_clust_5="13000.00000" pt_clust_6="13000.00000" pt_clust_7="13000.00000" pt_clust_8="13000.00000" pt_clust_9="35.77456"></scales>
<clustering>
<clus scale="   35.775">  1  9  2 -1</clus>
<clus scale="   89.555">  7  8 -1 -1</clus>
<clus scale="   93.425">  5  6 -1 -1</clus>
<clus scale="  114.125">  1  7  2 -1</clus>
<clus scale="   35.775">  1  5  2 -1</clus>
</clustering>
</event>
<event>
 9    1  0.1426358E-005  0.1187984E+03  0.7546771E-02  0.1245103E+00
         -2   -1    0    0    0  501 -0.00000000000E+00  0.00000000000E+00  0.44970169854E+02  0.44970169854E+02  0.00000000000E+00 0.  1.
         21   -1    0    0  501  502  0.00000000000E+00 -0.00000000000E+00 -0.40007818442E+03  0.40007818442E+03  0.00000000000E+00 0. -1.
         23    2    1    2    0    0  0.74000129370E+02 -0.80619060349E+01 -0.12898082209E+03  0.17516075818E+03  0.92218356428E+02 0.  0.
         23    2    1    2    0    0 -0.75886924620E+02 -0.13975706335E+02 -0.15980614151E+03  0.19997552163E+03  0.92184926589E+02 0.  0.
        -13    1    3    3    0    0  0.47185186956E+02  0.35395561379E+02 -0.36064701145E+02  0.69137184656E+02  0.00000000000E+00 0.  1.
         13    1    3    3    0    0  0.26814942414E+02 -0.43457467414E+02 -0.92916120945E+02  0.10602357352E+03  0.00000000000E+00 0. -1.
        -13    1    4    4    0    0 -0.81703011038E+00 -0.40213656018E+02 -0.62251923795E+02  0.74115502323E+02  0.00000000000E+00 0.  1.
         13    1    4    4    0    0 -0.75069894510E+02  0.26237949683E+02 -0.97554217713E+02  0.12586001930E+03  0.00000000000E+00 0. -1.
         -2    1    1    2    0  502  0.18867952506E+01  0.22037612370E+02 -0.66321050964E+02  0.69912074466E+02  0.00000000000E+00 0.  1.
<scales pt_clust_5="13000.00000" pt_clust_6="13000.00000" pt_clust_7="13000.00000" pt_clust_8="13000.00000" pt_clust_9="22.11824"></scales>
<clustering>
<clus scale="   22.118">  2  9  1 -1</clus>
<clus scale="   92.185">  7  8 -1 -1</clus>
<clus scale="   92.218">  5  6 -1 -1</clus>
<clus scale="  118.772">  2  7  1 -1</clus>
<clus scale="   22.118">  2  5  1 -1</clus>
</clustering>
</event>
<event>
 9    1  0.1426358E-005  0.1917394E+03  0.7546771E-02  0.1157862E+00
          3   -1    0    0  502    0 -0.00000000000E+00  0.00000000000E+00  0.23773974495E+03  0.23773974495E+03  0.00000000000E+00 0. -1.
         21   -1    0    0  501  502  0.00000000000E+00 -0.00000000000E+00 -0.29072619833E+03  0.29072619833E+03  0.00000000000E+00 0. -1.
         23    2    1    2    0    0  0.35326005594E+02 -0.12266691236E+03  0.34994796293E+01  0.15318104943E+03  0.84599583263E+02 0.  0.
         23    2    1    2    0    0 -0.52276891973E+02  0.21778733714E+03  0.31253908674E+02  0.24477241330E+03  0.93661784374E+02 0.  0.
        -11    1    4    4    0    0  0.79278056247E+01  0.10350814327E+03 -0.20155545269E+02  0.10574985499E+03  0.00000000000E+00 0.  1.
         11    1    4    4    0    0 -0.60204697598E+02  0.11427919388E+03  0.51409453943E+02  0.13902255831E+03  0.00000000000E+00 0. -1.
        -13    1    3    3    0    0  0.58668248655E+02 -0.62090179668E+02 -0.12466166286E+02  0.86328205780E+02  0.00000000000E+00 0. -1.
         13    1    3    3    0    0 -0.23342243061E+02 -0.60576732694E+02  0.15965645915E+02  0.66852843653E+02  0.00000000000E+00 0.  1.
          3    1    1    2  501    0  0.16950886379E+02 -0.95120424783E+02 -0.87739841677E+02  0.13051248054E+03  0.00000000000E+00 0. -1.
<scales pt_clust_5="13000.00000" pt_clust_6="13000.00000" pt_clust_7="13000.00000" pt_clust_8="13000.00000" pt_clust_9="96.61898"></scales>
<clustering>
<clus scale="   84.600">  7  8 -1 -1</clus>
<clus scale="   93.662">  5  6 -1 -1</clus>
<clus scale="   96.619">  2  9  1 -1</clus>
<clus scale="  187.480">  1  7  2 -1</clus>
<clus scale="   96.619">  2  5  1 -1</clus>
</clustering>
</event>
<event>
 9    1  0.1426358E-005  0.1013001E+03  0.7546771E-02  0.1277811E+00
         21   -1    0    0  501  502  0.00000000000E+00  0.00000000000E+00  0.24374722355E+03  0.24374722355E+03  0.00000000000E+00 0. -1.
         -1   -1    0    0    0  501 -0.00000000000E+00 -0.00000000000E+00 -0.97534403625E+02  0.97534403625E+02  0.00000000000E+00 0.  1.
         23    2    1    2    0    0 -0.71846878223E+01 -0.38124532556E+02 -0.16067673419E+02  0.10165984847E+03  0.92582152380E+02 0.  0.
         23    2    1    2    0    0 -0.45318603013E+02  0.51452647044E+02  0.13996007627E+03  0.18103479037E+03  0.92106577983E+02 0.  0.
        -13    1    4    4    0    0 -0.65211970868E+02  0.63830431788E+02  0.11490905660E+03  0.14673451010E+03  0.00000000000E+00 0. -1.
         13    1    4    4    0    0  0.19893367855E+02 -0.12377784744E+02  0.25051019667E+02  0.34300280263E+02  0.00000000000E+00 0.  1.
        -13    1    3    3    0    0 -0.39483702678E+02  0.27166082444E+01  0.13456925831E+02  0.41802291688E+02  0.00000000000E+00 0. -1.
         13    1    3    3    0    0  0.32299014856E+02 -0.40841140801E+02 -0.29524599251E+02  0.59857556778E+02  0.00000000000E+00 0.  1.
         -1    1    1    2    0  502  0.52503290836E+02 -0.13328114488E+02  0.22320417077E+02  0.58586988341E+02  0.00000000000E+00 0.  1.
<scales pt_clust_5="13000.00000" pt_clust_6="13000.00000" pt_clust_7="13000.00000" pt_clust_8="13000.00000" pt_clust_9="54.16860"></scales>
<clustering>
<clus scale="   54.169">  1  9  2 -1</clus>
<clus scale="   92.107">  5  6 -1 -1</clus>
<clus scale="   92.582">  7  8 -1 -1</clus>
<clus scale="  100.866">  1  5  2 -1</clus>
<clus scale="   54.169">  1  5  2 -1</clus>
</clustering>
</event>
<event>
 9    1  0.1426358E-005  0.1057003E+03  0.7546771E-02  0.1269004E+00
          1   -1    0    0  502    0 -0.00000000000E+00  0.00000000000E+00  0.67835314561E+02  0.67835314561E+02  0.00000000000E+00 0. -1.
         21   -1    0    0  501  502  0.00000000000E+00 -0.00000000000E+00 -0.23442276431E+03  0.23442276431E+03  0.00000000000E+00 0.  1.
         23    2    1    2    0    0  0.46650920991E+02  0.37567328521E+02 -0.39357730340E+02  0.11560809922E+03  0.90711570743E+02 0.  0.
         23    2    1    2    0    0 -0.21664226575E+02 -0.45086916608E+02 -0.72442355217E+02  0.12596609070E+03  0.90096572712E+02 0.  0.
        -11    1    4    4    0    0 -0.94930278992E+01  0.18160693157E+02 -0.55798314500E+02  0.59442243023E+02  0.00000000000E+00 0.  1.
         11    1    4    4    0    0 -0.12171198676E+02 -0.63247609766E+02 -0.16644040718E+02  0.66523847677E+02  0.00000000000E+00 0. -1.
        -13    1    3    3    0    0  0.29489871983E+02  0.64219130265E+02 -0.81667767884E+01  0.71136808227E+02  0.00000000000E+00 0.  1.
         13    1    3    3    0    0  0.17161049008E+02 -0.26651801745E+02 -0.31190953551E+02  0.44471290994E+02  0.00000000000E+00 0. -1.
          1    1    1    2  501    0 -0.24986694416E+02  0.75195880876E+01 -0.54787364188E+02  0.60683888945E+02  0.00000000000E+00 0. -1.
<scales pt_clust_5="13000.00000" pt_clust_6="13000.00000" pt_clust_7="13000.00000" pt_clust_8="13000.00000" pt_clust_9="26.09366"></scales>
<clustering>
<clus scale="   26.094">  2  9  1 -1</clus>
<clus scale="   90.097">  5  6 -1 -1</clus>
<clus scale="   90.712">  7  8 -1 -1</clus>
<clus scale="  105.173">  2  5  1 -1</clus>
<clus scale="   26.094">  2  5  1 -1</clus>
</clustering>
</event>
<event>
 9    1  0.1426358E-005  0.1011098E+03  0.7546771E-02  0.1280494E+00
         -1   -1    0    0    0  501 -0.00000000000E+00  0.00000000000E+00  0.84805516661E+02  0.84805516661E+02  0.00000000000E+00 0.  1.
         21   -1    0    0  501  502  0.00000000000E+00 -0.00000000000E+00 -0.20020895119E+03  0.20020895119E+03  0.00000000000E+00 0. -1.
         23    2    1    2    0    0  0.30530282802E+02 -0.12135803759E+01 -0.32084137822E+01  0.96929178893E+02  0.91931500894E+02 0.  0.
         23    2    1    2    0    0 -0.15313771913E+02  0.37988375574E+02 -0.55813724096E+02  0.11907240337E+03  0.96878465911E+02 0.  0.
        -11    1    3    3    0    0  0.19244617344E+02 -0.42043106121E+02  0.17923037752E+02  0.49590456251E+02  0.00000000000E+00 0.  1.
         11    1    3    3    0    0  0.11285665458E+02  0.40829525745E+02 -0.21131451534E+02  0.47338722641E+02  0.00000000000E+00 0. -1.
        -11    1    4    4    0    0  0.24895368252E+02  0.49838542203E+02 -0.53263876399E+02  0.77075937740E+02  0.00000000000E+00 0. -1.
         11    1    4    4    0    0 -0.40209140165E+02 -0.11850166630E+02 -0.25498476972E+01  0.41996465628E+02  0.00000000000E+00 0.  1.
         -1    1    1    2    0  502 -0.15216510889E+02 -0.36774795198E+02 -0.56381296646E+02  0.69012885586E+02  0.00000000000E+00 0.  1.
<scales pt_clust_5="13000.00000" pt_clust_6="13000.00000" pt_clust_7="13000.00000" pt_clust_8="13000.00000" pt_clust_9="39.79859"></scales>
<clustering>
<clus scale="   39.799">  2  9  1 -1</clus>
<clus scale="   91.932">  5  6 -1 -1</clus>
<clus scale="   96.380">  1  5  2 -1</clus>
<clus scale="   96.878">  7  8 -1 -1</clus>
<clus scale="   39.799">  2  5  1 -1</clus>
</clustering>
</event>
<event>
 9    1  0.1426358E-005  0.1051728E+03  0.7546771E-02  0.1272442E+00
         21   -1    0    0  501  502  0.00000000000E+00  0.00000000000E+00  0.24612103038E+03  0.24612103038E+03  0.00000000000E+00 0.  1.
          3   -1    0    0  502    0 -0.00000000000E+00 -0.00000000000E+00 -0.73283872701E+02  0.73283872701E+02  0.00000000000E+00 0. -1.
         23    2    1    2    0    0  0.24238584029E+02  0.26107822410E+02  0.90193490280E+01  0.98060200832E+02  0.90913843741E+02 0.  0.
         23    2    1    2    0    0 -0.56104139681E+02 -0.20380077441E+02  0.10766229571E+03  0.15652447136E+03  0.96673254677E+02 0.  0.
        -11    1    4    4    0    0  0.15856559911E+02 -0.36164137116E+02  0.44391751257E+02  0.59412985830E+02  0.00000000000E+00 0. -1.
         11    1    4    4    0    0 -0.71960699593E+02  0.15784059675E+02  0.63270544453E+02  0.97111485526E+02  0.00000000000E+00 0.  1.
        -11    1    3    3    0    0 -0.24662469569E+02 -0.18699065858E+02 -0.10922657849E+01  0.30969105795E+02  0.00000000000E+00 0.  1.
         11    1    3    3    0    0  0.48901053597E+02  0.44806888268E+02  0.10111614813E+02  0.67091095037E+02  0.00000000000E+00 0. -1.
          3    1    1    2  501    0  0.31865555653E+02 -0.57277449691E+01  0.56155512945E+02  0.64820230897E+02  0.00000000000E+00 0. -1.
<scales pt_clust_5="13000.00000" pt_clust_6="13000.00000" pt_clust_7="13000.00000" pt_clust_8="13000.00000" pt_clust_9="32.37624"></scales>
<clustering>
<clus scale="   32.376">  1  9  2 -1</clus>
<clus scale="   90.914">  7  8 -1 -1</clus>
<clus scale="   96.673">  5  6 -1 -1</clus>
<clus scale="   99.905">  2  7  1 -1</clus>
<clus scale="   32.376">  1  5  2 -1</clus>
</clustering>
</event>
<event>
 9    1  0.1426358E-005  0.1110912E+03  0.7546771E-02  0.1262266E+00
         -3   -1    0    0    0  501 -0.00000000000E+00  0.00000000000E+00  0.18737930530E+03  0.18737930530E+03  0.00000000000E+00 0.  1.
         21   -1    0    0  501  502  0.00000000000E+00 -0.00000000000E+00 -0.15513201416E+03  0.15513201416E+03  0.00000000000E+00 0. -1.
         23    2    1    2    0    0 -0.96783954467E+01 -0.42007694257E+02  0.12856040014E+03  0.16907290123E+03  0.10099283009E+03 0.  0.
         23    2    1    2    0    0  0.27913736039E+02  0.54161403471E+02 -0.48422335388E+02  0.12077185872E+03  0.92349797017E+02 0.  0.
        -11    1    3    3    0    0  0.37133015802E+02  0.83144586890E+01  0.27889916594E+02  0.47178793260E+02  0.00000000000E+00 0. -1.
         11    1    3    3    0    0 -0.46811411248E+02 -0.50322152946E+02  0.10067048354E+03  0.12189410797E+03  0.00000000000E+00 0.  1.
        -13    1    4    4    0    0  0.37734514865E+01  0.71410717001E+02 -0.55201046765E+02  0.90337616765E+02  0.00000000000E+00 0. -1.
         13    1    4    4    0    0  0.24140284553E+02 -0.17249313530E+02  0.67787113777E+01  0.30434241957E+02  0.00000000000E+00 0.  1.
         -3    1    1    2    0  502 -0.18235340593E+02 -0.12153709214E+02 -0.47890773606E+02  0.52666559511E+02  0.00000000000E+00 0.  1.
<scales pt_clust_5="13000.00000" pt_clust_6="13000.00000" pt_clust_7="13000.00000" pt_clust_8="13000.00000" pt_clust_9="21.91439"></scales>
<clustering>
<clus scale="   21.914">  2  9  1 -1</clus>
<clus scale="   92.350">  7  8 -1 -1</clus>
<clus scale="  100.993">  5  6 -1 -1</clus>
<clus scale="  103.297">  2  7  1 -1</clus>
<clus scale="   21.914">  2  5  1 -1</clus>
</clustering>
</event>
<event>
 9    1  0.1426358E-005  0.9099083E+02  0.7546771E-02  0.1300546E+00
          1   -1    0    0  502    0 -0.00000000000E+00  0.00000000000E+00  0.12576931504E+03  0.12576931504E+03  0.00000000000E+00 0. -1.
         21   -1    0    0  501  502  0.00000000000E+00 -0.00000000000E+00 -0.15718854916E+03  0.15718854916E+03  0.00000000000E+00 0.  1.
         23    2    1    2    0    0 -0.15411522130E+02 -0.27497484094E+02  0.37565570909E+02  0.10301791898E+03  0.90597421972E+02 0.  0.
         23    2    1    2    0    0 -0.15767799775E+02 -0.24077566477E+02 -0.97516729254E+01  0.95437283168E+02  0.90470034688E+02 0.  0.
        -13    1    4    4    0    0  0.18429553607E+02  0.26041758677E+02 -0.13511012702E+02  0.34646343319E+02  0.00000000000E+00 0.  1.
         13    1    4    4    0    0 -0.34197353382E+02 -0.50119325154E+02  0.37593397770E+01  0.60790939849E+02  0.00000000000E+00 0. -1.
        -13    1    3    3    0    0 -0.39769562637E+02 -0.13434550095E+02 -0.14025099294E+02  0.44258430370E+02  0.00000000000E+00 0.  1.
         13    1    3    3    0    0  0.24358040507E+02 -0.14062934000E+02  0.51590670203E+02  0.58759488613E+02  0.00000000000E+00 0. -1.
          1    1    1    2  501    0  0.31179321905E+02  0.51575050571E+02 -0.59233132104E+02  0.84502662057E+02  0.00000000000E+00 0. -1.
<scales pt_clust_5="13000.00000" pt_clust_6="13000.00000" pt_clust_7="13000.00000" pt_clust_8="13000.00000" pt_clust_9="60.26720"></scales>
<clustering>
<clus scale="   60.267">  2  9  1 -1</clus>
<clus scale="   90.470">  5  6 -1 -1</clus>
<clus scale="   90.597">  7  8 -1 -1</clus>
<clus scale="   90.864">  2  5  1 -1</clus>
<clus scale="   60.267">  2  5  1 -1</clus>
</clustering>
</event>
<event>
 9    1  0.1426358E-005  0.2178998E+03  0.7546771E-02  0.1135554E+00
          1   -1    0    0  502    0 -0.00000000000E+00  0.00000000000E+00  0.15270862082E+04  0.15270862082E+04  0.00000000000E+00 0. -1.
         21   -1    0    0  501  502  0.00000000000E+00 -0.00000000000E+00 -0.77622263303E+02  0.77622263303E+02  0.00000000000E+00 0. -1.
         23    2    1    2    0    0  0.17997819125E+03 -0.13636233590E+03  0.11980730096E+04  0.12226124276E+04  0.91735357007E+02 0.  0.
         23    2    1    2    0    0 -0.13307953712E+03  0.37744714661E+02  0.20524887708E+03  0.26354644033E+03  0.90525123480E+02 0.  0.
        -11    1    3    3    0    0  0.22819740796E+02 -0.54755507870E+02  0.18808744381E+03  0.19722016309E+03  0.00000000000E+00 0.  1.
         11    1    3    3    0    0  0.15715845045E+03 -0.81606828027E+02  0.10099855658E+04  0.10253922645E+04  0.00000000000E+00 0. -1.
        -13    1    4    4    0    0 -0.82331696680E+02 -0.23406576392E+02  0.99088489962E+02  0.13093855406E+03  0.00000000000E+00 0. -1.
         13    1    4    4    0    0 -0.50747840445E+02  0.61151291054E+02  0.10616038712E+03  0.13260788627E+03  0.00000000000E+00 0.  1.
          1    1    1    2  501    0 -0.46898654122E+02  0.98617621235E+02  0.46142058193E+02  0.11854960359E+03  0.00000000000E+00 0. -1.
<scales pt_clust_5="13000.00000" pt_clust_6="13000.00000" pt_clust_7="13000.00000" pt_clust_8="13000.00000" pt_clust_9="109.20128"></scales>
<clustering>
<clus scale="   90.525">  7  8 -1 -1</clus>
<clus scale="   91.735">  5  6 -1 -1</clus>
<clus scale="  109.201">  2  9  1 -1</clus>
<clus scale="  217.393">  2  7  1 -1</clus>
<clus scale="  109.201">  2  5  1 -1</clus>
</clustering>
</event>
<event>
 9    1  0.1426358E-005  0.9719048E+02  0.7546771E-02  0.1289075E+00
         -3   -1    0    0    0  501 -0.00000000000E+00  0.00000000000E+00  0.17645510482E+03  0.17645510482E+03  0.00000000000E+00 0.  1.
         21   -1    0    0  501  502  0.00000000000E+00 -0.00000000000E+00 -0.85850098085E+02  0.85850098085E+02  0.00000000000E+00 0. -1.
         23    2    1    2    0    0 -0.81250837808E+01 -0.14953930580E+02  0.72979327540E+02  0.12125529812E+03  0.95326953416E+02 0.  0.
         23    2    1    2    0    0  0.33223827113E+02 -0.10665661059E+02  0.32630689400E+02  0.10217239556E+03  0.90315322675E+02 0.  0.
        -11    1    3    3    0    0 -0.29742328228E+01 -0.55530083668E+02  0.46902057421E+02  0.72747778271E+02  0.00000000000E+00 0.  1.
         11    1    3    3    0    0 -0.51508509580E+01  0.40576153087E+02  0.26077270119E+02  0.48507519848E+02  0.00000000000E+00 0. -1.
        -13    1    4    4    0    0 -0.22024674552E+02  0.42463889723E+01 -0.15609086265E+02  0.27326940598E+02  0.00000000000E+00 0.  1.
         13    1    4    4    0    0  0.55248501664E+02 -0.14912050032E+02  0.48239775665E+02  0.74845454962E+02  0.00000000000E+00 0. -1.
         -3    1    1    2    0  502 -0.25098743332E+02  0.25619591640E+02 -0.15005010203E+02  0.38877509229E+02  0.00000000000E+00 0.  1.
<scales pt_clust_5="13000.00000" pt_clust_6="13000.00000" pt_clust_7="13000.00000" pt_clust_8="13000.00000" pt_clust_9="35.86517"></scales>
<clustering>
<clus scale="   35.865">  2  9  1 -1</clus>
<clus scale="   90.315">  7  8 -1 -1</clus>
<clus scale="   92.280">  2  7  1 -1</clus>
<clus scale="   95.327">  5  6 -1 -1</clus>
<clus scale="   35.865">  2  5  1 -1</clus>
</clustering>
</event>
<event>
 9    1  0.1426358E-005  0.1787804E+03  0.7546771E-02  0.1169246E+00
         21   -1    0    0  501  502  0.00000000000E+00  0.00000000000E+00  0.72290652392E+03  0.72290652392E+03  0.00000000000E+00 0. -1.
          2   -1    0    0  502    0 -0.00000000000E+00 -0.00000000000E+00 -0.22657063704E+03  0.22657063704E+03  0.00000000000E+00 0. -1.
         23    2    1    2    0    0 -0.15578387649E+03  0.43469316801E+02 -0.10867979555E+03  0.21562231167E+03  0.92322725539E+02 0.  0.
         23    2    1    2    0    0  0.14334891303E+03  0.42036100181E+02  0.63881056413E+02  0.18586535292E+03  0.90272894398E+02 0.  0.
        -11    1    4    4    0    0  0.63379235280E+02  0.25134981005E+02  0.77258642321E+02  0.10304170296E+03  0.00000000000E+00 0.  1.
         11    1    4    4    0    0  0.79969677753E+02  0.16901119176E+02 -0.13377585908E+02  0.82823649968E+02  0.00000000000E+00 0. -1.
        -13    1    3    3    0    0 -0.67483323411E+02  0.62459809535E+02 -0.32697067160E+02  0.97592648015E+02  0.00000000000E+00 0. -1.
         13    1    3    3    0    0 -0.88300553076E+02 -0.18990492734E+02 -0.75982728393E+02  0.11802966365E+03  0.00000000000E+00 0.  1.
          2    1    1    2  501    0  0.12434963454E+02 -0.85505416982E+02  0.54113462603E+03  0.54798949637E+03  0.00000000000E+00 0. -1.
<scales pt_clust_5="13000.00000" pt_clust_6="13000.00000" pt_clust_7="13000.00000" pt_clust_8="13000.00000" pt_clust_9="86.40489"></scales>
<clustering>
<clus scale="   86.405">  1  9  2 -1</clus>
<clus scale="   90.273">  5  6 -1 -1</clus>
<clus scale="   92.323">  7  8 -1 -1</clus>
<clus scale="  177.730">  1  5  2 -1</clus>
<clus scale="   86.405">  1  5  2 -1</clus>
</clustering>
</event>
<event>
 9    1  0.1426358E-005  0.1137113E+03  0.7546771E-02  0.1254553E+00
         21   -1    0    0  501  502  0.00000000000E+00  0.00000000000E+00  0.64136065538E+03  0.64136065538E+03  0.00000000000E+00 0.  1.
         -3   -1    0    0    0  501 -0.00000000000E+00 -0.00000000000E+00 -0.91466752052E+02  0.91466752052E+02  0.00000000000E+00 0.  1.
         23    2    1    2    0    0 -0.44795904005E+02  0.50198134030E+01  0.17800480800E+02  0.10358502157E+03  0.91548500999E+02 0.  0.
         23    2    1    2    0    0  0.83907379080E+02 -0.75346971450E+02  0.73950795724E+02  0.16408619367E+03  0.93476972526E+02 0.  0.
        -13    1    3    3    0    0 -0.36097506799E+02  0.44078483483E+02  0.26181913692E+02  0.62701158744E+02  0.00000000000E+00 0.  1.
         13    1    3    3    0    0 -0.86983972067E+01 -0.39058670080E+02 -0.83814328921E+01  0.40883862828E+02  0.00000000000E+00 0. -1.
        -13    1    4    4    0    0  0.99793677603E+02 -0.41684511065E+02  0.45945557048E+02  0.11750476911E+03  0.00000000000E+00 0. -1.
         13    1    4    4    0    0 -0.15886298522E+02 -0.33662460385E+02  0.28005238676E+02  0.46581424551E+02  0.00000000000E+00 0.  1.
         -3    1    1    2    0  502 -0.39111475075E+02  0.70327158047E+02  0.45814262681E+03  0.46515619220E+03  0.00000000000E+00 0.  1.
<scales pt_clust_5="13000.00000" pt_clust_6="13000.00000" pt_clust_7="13000.00000" pt_clust_8="13000.00000" pt_clust_9="80.47122"></scales>
<clustering>
<clus scale="   80.471">  1  9  2 -1</clus>
<clus scale="   91.549">  5  6 -1 -1</clus>
<clus scale="   93.477">  7  8 -1 -1</clus>
<clus scale="  112.131">  2  5  1 -1</clus>
<clus scale="   80.471">  1  5  2 -1</clus>
</clustering>
</event>
<event>
 9    1  0.1426358E-005  0.1154885E+03  0.7546771E-02  0.1251659E+00
         -1   -1    0    0    0  501 -0.00000000000E+00  0.00000000000E+00  0.15545535142E+03  0.15545535142E+03  0.00000000000E+00 0.  1.
         21   -1    0    0  501  502  0.00000000000E+00 -0.00000000000E+00 -0.28151315473E+03  0.28151315473E+03  0.00000000000E+00 0.  1.
         23    2    1    2    0    0  0.22927936230E+02  0.92904739708E+02  0.43928855342E+02  0.13959045827E+03  0.91644807747E+02 0.  0.
         23    2    1    2    0    0  0.60191091333E+02 -0.25638772477E+02 -0.25335854241E+02  0.11749659163E+03  0.94250885428E+02 0.  0.
        -11    1    3    3    0    0  0.39756954495E+02  0.10438820466E+03  0.33025030899E+02  0.11648246808E+03  0.00000000000E+00 0.  1.
         11    1    3    3    0    0 -0.16829018265E+02 -0.11483464953E+02  0.10903824443E+02  0.23107990189E+02  0.00000000000E+00 0. -1.
        -13    1    4    4    0    0  0.48167477598E+02  0.61234841957E+01  0.26659438407E+02  0.55392496000E+02  0.00000000000E+00 0.  1.
         13    1    4    4    0    0  0.12023613735E+02 -0.31762256673E+02 -0.51995292649E+02  0.62104095628E+02  0.00000000000E+00 0. -1.
         -1    1    1    2    0  502 -0.83119027563E+02 -0.67265967231E+02 -0.14465080440E+03  0.17988145626E+03  0.00000000000E+00 0.  1.
<scales pt_clust_5="13000.00000" pt_clust_6="13000.00000" pt_clust_7="13000.00000" pt_clust_8="13000.00000" pt_clust_9="106.92747"></scales>
<clustering>
<clus scale="   91.645">  5  6 -1 -1</clus>
<clus scale="   94.251">  7  8 -1 -1</clus>
<clus scale="  106.927">  2  9  1 -1</clus>
<clus scale="  113.372">  1  5  2 -1</clus>
<clus scale="  106.927">  2  5  1 -1</clus>
</clustering>
</event>
<event>
 9    1  0.1426358E-005  0.4335929E+03  0.7546771E-02  0.1032740E+00
         21   -1    0    0  501  502  0.00000000000E+00  0.00000000000E+00  0.66563529750E+03  0.66563529750E+03  0.00000000000E+00 0.  1.
          2   -1    0    0  502    0 -0.00000000000E+00 -0.00000000000E+00 -0.41399558680E+03  0.41399558680E+03  0.00000000000E+00 0. -1.
         23    2    1    2    0    0  0.41202954175E+03  0.49275471135E+02 -0.13911939386E+03  0.44748356501E+03  0.93225103258E+02 0.  0.
         23    2    1    2    0    0 -0.44781146375E+03 -0.37454590130E+02  0.36538275314E+03  0.58671563012E+03  0.93769509682E+02 0.  0.
        -11    1    4    4    0    0 -0.29567183606E+03 -0.10449777668E+02  0.18385749046E+03  0.34833117761E+03  0.00000000000E+00 0.  1.
         11    1    4    4    0    0 -0.15213962769E+03 -0.27004812462E+02  0.18152526268E+03  0.23838445252E+03  0.00000000000E+00 0. -1.
        -13    1    3    3    0    0  0.14060822815E+03 -0.10525406274E+02 -0.84041640037E+02  0.16414766297E+03  0.00000000000E+00 0. -1.
         13    1    3    3    0    0  0.27142131360E+03  0.59800877409E+02 -0.55077753820E+02  0.28333590204E+03  0.00000000000E+00 0.  1.
          2    1    1    2  501    0  0.35781922000E+02 -0.11820881005E+02  0.25376351407E+02  0.45431689166E+02  0.00000000000E+00 0. -1.
<scales pt_clust_5="13000.00000" pt_clust_6="13000.00000" pt_clust_7="13000.00000" pt_clust_8="13000.00000" pt_clust_9="37.68394"></scales>
<clustering>
<clus scale="   37.684">  1  9  2 -1</clus>
<clus scale="   93.225">  7  8 -1 -1</clus>
<clus scale="   93.770">  5  6 -1 -1</clus>
<clus scale="  433.475">  2  7  1 -1</clus>
<clus scale="   37.684">  1  5  2 -1</clus>
</clustering>
</event>
<event>
 9    1  0.1426358E-005  0.1455714E+03  0.7546771E-02  0.1220801E+00
         21   -1    0    0  501  502  0.00000000000E+00  0.00000000000E+00  0.73544022167E+02  0.73544022167E+02  0.00000000000E+00 0. -1.
          1   -1    0    0  502    0 -0.00000000000E+00 -0.00000000000E+00 -0.69433795090E+03  0.69433795090E+03  0.00000000000E+00 0. -1.
         23    2    1    2    0    0  0.49795948037E+02  0.11669659025E+01 -0.41526377944E+03  0.42866996486E+03  0.93983690140E+02 0.  0.
         23    2    1    2    0    0 -0.77756744443E+02 -0.10529719307E+03 -0.14554271313E+03  0.21582885359E+03  0.90916459038E+02 0.  0.
        -11    1    3    3    0    0  0.49563504327E+02  0.42341935329E+02 -0.25267457105E+03  0.26094792451E+03  0.00000000000E+00 0. -1.
         11    1    3    3    0    0  0.23244371010E+00 -0.41174969427E+02 -0.16258920839E+03  0.16772204035E+03  0.00000000000E+00 0.  1.
        -11    1    4    4    0    0 -0.34570606267E+02  0.81710680437E+01 -0.18309233560E+02  0.39963998851E+02  0.00000000000E+00 0.  1.
         11    1    4    4    0    0 -0.43186138176E+02 -0.11346826111E+03 -0.12723347957E+03  0.17586485474E+03  0.00000000000E+00 0. -1.
          1    1    1    2  501    0  0.27960796406E+02  0.10413022716E+03 -0.59987436170E+02  0.12338315462E+03  0.00000000000E+00 0. -1.
<scales pt_clust_5="13000.00000" pt_clust_6="13000.00000" pt_clust_7="13000.00000" pt_clust_8="13000.00000" pt_clust_9="113.68914"></scales>
<clustering>
<clus scale="   90.916">  7  8 -1 -1</clus>
<clus scale="   93.984">  5  6 -1 -1</clus>
<clus scale="  106.367">  2  5  1 -1</clus>
<clus scale="  113.689">  1  9  2 -1</clus>
<clus scale="  113.689">  1  5  2 -1</clus>
</clustering>
</event>
<event>
 9    1  0.1426358E-005  0.1329482E+03  0.7546771E-02  0.1223489E+00
         -3   -1    0    0    0  501 -0.00000000000E+00  0.00000000000E+00  0.10426881586E+03  0.10426881586E+03  0.00000000000E+00 0.  1.
         21   -1    0    0  501  502  0.00000000000E+00 -0.00000000000E+00 -0.30633729608E+03  0.30633729608E+03  0.00000000000E+00 0.  1.
         23    2    1    2    0    0  0.90741235811E+02  0.48043017665E+02  0.18358584450E+02  0.13663812228E+03  0.88265709172E+02 0.  0.
         23    2    1    2    0    0 -0.67297180099E+02 -0.56036115172E+02 -0.13155778825E+03  0.18171149043E+03  0.89680864474E+02 0.  0.
        -11    1    3    3    0    0  0.31391417760E+02 -0.41608882285E+01  0.43399948269E+02  0.53724199479E+02  0.00000000000E+00 0. -1.
         11    1    3    3    0    0  0.59349818051E+02  0.52203905893E+02 -0.25041363819E+02  0.82913922806E+02  0.00000000000E+00 0.  1.
        -13    1    4    4    0    0 -0.73059427853E+02 -0.12744719572E+02 -0.11086642366E+03  0.13338467592E+03  0.00000000000E+00 0. -1.
         13    1    4    4    0    0  0.57622477549E+01 -0.43291395599E+02 -0.20691364589E+02  0.48326814510E+02  0.00000000000E+00 0.  1.
         -3    1    1    2    0  502 -0.23444055713E+02  0.79930975069E+01 -0.88869276426E+02  0.92256499221E+02  0.00000000000E+00 0.  1.
<scales pt_clust_5="13000.00000" pt_clust_6="13000.00000" pt_clust_7="13000.00000" pt_clust_8="13000.00000" pt_clust_9="24.76920"></scales>
<clustering>
<clus scale="   24.769">  2  9  1 -1</clus>
<clus scale="   88.266">  5  6 -1 -1</clus>
<clus scale="   89.681">  7  8 -1 -1</clus>
<clus scale="  131.998">  1  5  2 -1</clus>
<clus scale="   24.769">  2  5  1 -1</clus>
</clustering>
</event>
<event>
 9    1  0.1426358E-005  0.1054704E+03  0.7546771E-02  0.1269582E+00
         21   -1    0    0  501  502  0.00000000000E+00  0.00000000000E+00  0.78164250425E+02  0.78164250425E+02  0.00000000000E+00 0. -1.
          1   -1    0    0  502    0 -0.00000000000E+00 -0.00000000000E+00 -0.37991775625E+03  0.37991775625E+03  0.00000000000E+00 0. -1.
         23    2    1    2    0    0 -0.41154426692E+02  0.29744458541E+02 -0.28227988153E+03  0.30115716562E+03  0.91843819800E+02 0.  0.
         23    2    1    2    0    0  0.67184235980E+02  0.34503653203E+00 -0.27443560144E+02  0.11634838776E+03  0.90939307928E+02 0.  0.
        -11    1    4    4    0    0  0.73092207330E+02  0.29670925021E+02 -0.33707082202E+02  0.85784625397E+02  0.00000000000E+00 0. -1.
         11    1    4    4    0    0 -0.59079713503E+01 -0.29325888489E+02  0.62635220577E+01  0.30563762362E+02  0.00000000000E+00 0.  1.
        -13    1    3    3    0    0 -0.25023601772E+02 -0.16024014915E+02 -0.23548451346E+02  0.37914103714E+02  0.00000000000E+00 0.  1.
         13    1    3    3    0    0 -0.16130824920E+02  0.45768473455E+02 -0.25873143018E+03  0.26324306190E+03  0.00000000000E+00 0. -1.
          1    1    1    2  501    0 -0.26029809288E+02 -0.30089495073E+02  0.79699358451E+01  0.40576453303E+02  0.00000000000E+00 0. -1.
<scales pt_clust_5="13000.00000" pt_clust_6="13000.00000" pt_clust_7="13000.00000" pt_clust_8="13000.00000" pt_clust_9="39.78604"></scales>
<clustering>
<clus scale="   39.786">  1  9  2 -1</clus>
<clus scale="   90.939">  5  6 -1 -1</clus>
<clus scale="   91.844">  7  8 -1 -1</clus>
<clus scale="  104.684">  1  5  2 -1</clus>
<clus scale="   39.786">  1  5  2 -1</clus>
</clustering>
</event>
<event>
 9    1  0.1426358E-005  0.1135917E+03  0.7546771E-02  0.1254613E+00
         -2   -1    0    0    0  501 -0.00000000000E+00  0.00000000000E+00  0.72857353785E+02  0.72857353785E+02  0.00000000000E+00 0.  1.
         21   -1    0    0  501  502  0.00000000000E+00 -0.00000000000E+00 -0.59176692141E+03  0.59176692141E+03  0.00000000000E+00 0.  1.
         23    2    1    2    0    0  0.57047465021E+02 -0.52629875543E+02 -0.22684231860E+02  0.12442395365E+03  0.94564416146E+02 0.  0.
         23    2    1    2    0    0 -0.44145542609E+02  0.32426114612E+01 -0.11046166156E+03  0.15107415462E+03  0.93071360027E+02 0.  0.
        -11    1    4    4    0    0 -0.40326745495E+02  0.41795761098E+02 -0.90392592725E+02  0.10744278881E+03  0.00000000000E+00 0. -1.
         11    1    4    4    0    0 -0.38187971140E+01 -0.38553149636E+02 -0.20069068838E+02  0.43631365809E+02  0.00000000000E+00 0.  1.
        -13    1    3    3    0    0  0.26259751245E+02 -0.51271910720E+02  0.28813337938E+02  0.64409563013E+02  0.00000000000E+00 0.  1.
         13    1    3    3    0    0  0.30787713775E+02 -0.13579648224E+01 -0.51497569799E+02  0.60014390634E+02  0.00000000000E+00 0. -1.
         -2    1    1    2    0  502 -0.12901922412E+02  0.49387264081E+02 -0.38576367420E+03  0.38912616693E+03  0.00000000000E+00 0.  1.
<scales pt_clust_5="13000.00000" pt_clust_6="13000.00000" pt_clust_7="13000.00000" pt_clust_8="13000.00000" pt_clust_9="51.04470"></scales>
<clustering>
<clus scale="   51.045">  2  9  1 -1</clus>
<clus scale="   93.071">  5  6 -1 -1</clus>
<clus scale="   94.564">  7  8 -1 -1</clus>
<clus scale="  112.352">  2  5  1 -1</clus>
<clus scale="   51.045">  2  5  1 -1</clus>
</clustering>
</event>
<event>
 9    1  0.1430648E-005  0.2396026E+03  0.7546771E-02  0.1120316E+00
         21   -1    0    0  501  502  0.00000000000E+00  0.00000000000E+00  0.26752468087E+03  0.26752468087E+03  0.00000000000E+00 0.  1.
         -3   -1    0    0    0  501 -0.00000000000E+00 -0.00000000000E+00 -0.53077392087E+03  0.53077392087E+03  0.00000000000E+00 0.  1.
         23    2    1    2    0    0 -0.21520546599E+03 -0.25643001422E+02 -0.34822663902E+03  0.42030456834E+03  0.91777894571E+02 0.  0.
         23    2    1    2    0    0  0.23357523086E+03  0.51646466680E+02  0.15527586841E+03  0.30082212617E+03  0.95700628478E+02 0.  0.
        -11    1    4    4    0    0  0.76493009726E+02  0.41918752105E+02  0.12106863254E+02  0.88062128369E+02  0.00000000000E+00 0. -1.
         11    1    4    4    0    0  0.15708222114E+03  0.97277145755E+01  0.14316900515E+03  0.21275999780E+03  0.00000000000E+00 0.  1.
        -13    1    3    3    0    0 -0.61466870158E+02 -0.13777965001E+02 -0.37207454002E+02  0.73160119464E+02  0.00000000000E+00 0. -1.
         13    1    3    3    0    0 -0.15373859583E+03 -0.11865036420E+02 -0.31101918502E+03  0.34714444887E+03  0.00000000000E+00 0.  1.
         -3    1    1    2    0  502 -0.18369764877E+02 -0.26003465259E+02 -0.70298469389E+02  0.77171907230E+02  0.00000000000E+00 0.  1.
<scales pt_clust_5="13000.00000" pt_clust_6="13000.00000" pt_clust_7="13000.00000" pt_clust_8="13000.00000" pt_clust_9="31.83755"></scales>
<clustering>
<clus scale="   31.838">  1  9  2 -1</clus>
<clus scale="   91.778">  7  8 -1 -1</clus>
<clus scale="   95.701">  5  6 -1 -1</clus>
<clus scale="  238.063">  2  7  1 -1</clus>
<clus scale="   31.838">  1  5  2 -1</clus>
</clustering>
</event>
<event>
 9    1  0.1426358E-005  0.1649249E+03  0.7546771E-02  0.1183437E+00
          1   -1    0    0  502    0 -0.00000000000E+00  0.00000000000E+00  0.50297942855E+03  0.50297942855E+03  0.00000000000E+00 0. -1.
         21   -1    0    0  501  502  0.00000000000E+00 -0.00000000000E+00 -0.79143897438E+02  0.79143897438E+02  0.00000000000E+00 0.  1.
         23    2    1    2    0    0  0.10293626203E+03  0.10282690269E+03  0.30245706667E+03  0.34754417837E+03  0.90207720197E+02 0.  0.
         23    2    1    2    0    0 -0.62303751197E+02 -0.11200178596E+03  0.11157464503E+03  0.19178552315E+03  0.88919221793E+02 0.  0.
        -11    1    4    4    0    0  0.11857642154E+02 -0.64556149167E+02  0.31609356632E+02  0.72850885372E+02  0.00000000000E+00 0.  1.
         11    1    4    4    0    0 -0.74161393350E+02 -0.47445636790E+02  0.79965288399E+02  0.11893463778E+03  0.00000000000E+00 0. -1.
        -13    1    3    3    0    0  0.86391346480E+02  0.26802914404E+02  0.19416302130E+03  0.21419883242E+03  0.00000000000E+00 0.  1.
         13    1    3    3    0    0  0.16544915554E+02  0.76023988290E+02  0.10829404536E+03  0.13334534595E+03  0.00000000000E+00 0. -1.
          1    1    1    2  501    0 -0.40632510837E+02  0.91748832637E+01  0.98038194091E+01  0.42793624465E+02  0.00000000000E+00 0. -1.
<scales pt_clust_5="13000.00000" pt_clust_6="13000.00000" pt_clust_7="13000.00000" pt_clust_8="13000.00000" pt_clust_9="41.65548"></scales>
<clustering>
<clus scale="   41.655">  2  9  1 -1</clus>
<clus scale="   88.919">  5  6 -1 -1</clus>
<clus scale="   90.208">  7  8 -1 -1</clus>
<clus scale="  164.224">  2  5  1 -1</clus>
<clus scale="   41.655">  2  5  1 -1</clus>
</clustering>
</event>
<event>
 9    1  0.1426358E-005  0.9842357E+02  0.7546771E-02  0.1284118E+00
         21   -1    0    0  501  502  0.00000000000E+00  0.00000000000E+00  0.37792117406E+02  0.37792117406E+02  0.00000000000E+00 0. -1.
          1   -1    0    0  502    0 -0.00000000000E+00 -0.00000000000E+00 -0.72050248820E+03  0.72050248820E+03  0.00000000000E+00 0. -1.
         23    2    1    2    0    0 -0.24849959976E+02  0.16516710820E+02 -0.38476580792E+03  0.39643743494E+03  0.90706067210E+02 0.  0.
         23    2    1    2    0    0  0.45174849437E+02 -0.21588559149E+02 -0.31718065521E+03  0.33341684674E+03  0.89757410512E+02 0.  0.
        -11    1    3    3    0    0  0.10898743031E+02  0.46974728920E+02 -0.17918927020E+03  0.18556455025E+03  0.00000000000E+00 0.  1.
         11    1    3    3    0    0 -0.35748703007E+02 -0.30458018100E+02 -0.20557653773E+03  0.21087288469E+03  0.00000000000E+00 0. -1.
        -13    1    4    4    0    0  0.13021738379E+01  0.24247335315E+02 -0.26712428042E+02  0.36099622414E+02  0.00000000000E+00 0.  1.
         13    1    4    4    0    0  0.43872675599E+02 -0.45835894464E+02 -0.29046822717E+03  0.29731722433E+03  0.00000000000E+00 0. -1.
          1    1    1    2  501    0 -0.20324889461E+02  0.50718483290E+01  0.19236092334E+02  0.28440323932E+02  0.00000000000E+00 0. -1.
<scales pt_clust_5="13000.00000" pt_clust_6="13000.00000" pt_clust_7="13000.00000" pt_clust_8="13000.00000" pt_clust_9="20.94814"></scales>
<clustering>
<clus scale="   20.948">  1  9  2 -1</clus>
<clus scale="   89.757">  7  8 -1 -1</clus>
<clus scale="   90.706">  5  6 -1 -1</clus>
<clus scale="   97.550">  1  7  2 -1</clus>
<clus scale="   20.948">  1  5  2 -1</clus>
</clustering>
</event>
<event>
 9    1  0.1426358E-005  0.1040781E+03  0.7546771E-02  0.1273870E+00
         21   -1    0    0  501  502  0.00000000000E+00  0.00000000000E+00  0.48618449213E+03  0.48618449213E+03  0.00000000000E+00 0. -1.
         -3   -1    0    0    0  501 -0.00000000000E+00 -0.00000000000E+00 -0.75529491157E+02  0.75529491157E+02  0.00000000000E+00 0.  1.
         23    2    1    2    0    0 -0.33524723830E+01 -0.40153715759E+02  0.49851009087E+01  0.95021562838E+02  0.85910920219E+02 0.  0.
         23    2    1    2    0    0  0.40607631063E+02  0.78146521902E+02  0.11338896745E+03  0.16960734217E+03  0.90298028731E+02 0.  0.
        -11    1    3    3    0    0  0.21302443956E+02 -0.27899919550E+02  0.38200179362E+02  0.51879218698E+02  0.00000000000E+00 0. -1.
         11    1    3    3    0    0 -0.24654916340E+02 -0.12253796209E+02 -0.33215078454E+02  0.43142344140E+02  0.00000000000E+00 0.  1.
        -13    1    4    4    0    0  0.66249998031E+01  0.78416317644E+02  0.11028311460E+03  0.13548200937E+03  0.00000000000E+00 0. -1.
         13    1    4    4    0    0  0.33982631260E+02 -0.26979574267E+00  0.31058528485E+01  0.34125332805E+02  0.00000000000E+00 0.  1.
         -3    1    1    2    0  502 -0.37255158680E+02 -0.37992806143E+02  0.29228093261E+03  0.29708507828E+03  0.00000000000E+00 0.  1.
<scales pt_clust_5="13000.00000" pt_clust_6="13000.00000" pt_clust_7="13000.00000" pt_clust_8="13000.00000" pt_clust_9="53.21090"></scales>
<clustering>
<clus scale="   53.211">  1  9  2 -1</clus>
<clus scale="   85.911">  5  6 -1 -1</clus>
<clus scale="   90.298">  7  8 -1 -1</clus>
<clus scale="  100.296">  2  5  1 -1</clus>
<clus scale="   53.211">  1  5  2 -1</clus>
</clustering>
</event>
<event>
 9    1  0.1426358E-005  0.1481987E+03  0.7546771E-02  0.1205218E+00
         21   -1    0    0  501  502  0.00000000000E+00  0.00000000000E+00  0.21943803432E+03  0.21943803432E+03  0.00000000000E+00 0. -1.
         -1   -1    0    0    0  501 -0.00000000000E+00 -0.00000000000E+00 -0.36988694280E+03  0.36988694280E+03  0.00000000000E+00 0.  1.
         23    2    1    2    0    0  0.18758402789E+02  0.10722318932E+03 -0.32552296046E+03  0.35825001264E+03  0.10261181107E+03 0.  0.
         23    2    1    2    0    0 -0.19492752053E+02 -0.86380054966E+02  0.13152932566E+03  0.18279330431E+03  0.90950246366E+02 0.  0.
        -11    1    4    4    0    0  0.24528189798E+02 -0.71329601890E+02  0.10485205921E+03  0.12916461792E+03  0.00000000000E+00 0.  1.
         11    1    4    4    0    0 -0.44020941851E+02 -0.15050453075E+02  0.26677266446E+02  0.53628686394E+02  0.00000000000E+00 0. -1.
        -13    1    3    3    0    0 -0.22941478752E+02  0.93886214696E+02 -0.15901523764E+03  0.18608271967E+03  0.00000000000E+00 0. -1.
         13    1    3    3    0    0  0.41699881540E+02  0.13336974623E+02 -0.16650772282E+03  0.17216729297E+03  0.00000000000E+00 0.  1.
         -1    1    1    2    0  502  0.73434926461E+00 -0.20843134353E+02  0.43544726317E+02  0.48281660167E+02  0.00000000000E+00 0.  1.
<scales pt_clust_5="13000.00000" pt_clust_6="13000.00000" pt_clust_7="13000.00000" pt_clust_8="13000.00000" pt_clust_9="20.85607"></scales>
<clustering>
<clus scale="   20.856">  1  9  2 -1</clus>
<clus scale="   90.950">  5  6 -1 -1</clus>
<clus scale="  102.612">  7  8 -1 -1</clus>
<clus scale="  140.377">  1  5  2 -1</clus>
<clus scale="   20.856">  1  5  2 -1</clus>
</clustering>
</event>
<event>
 9    1  0.1426358E-005  0.1023010E+03  0.7546771E-02  0.1281765E+00
         21   -1    0    0  501  502  0.00000000000E+00  0.00000000000E+00  0.44767686160E+03  0.44767686160E+03  0.00000000000E+00 0.  1.
         -4   -1    0    0    0  501 -0.00000000000E+00 -0.00000000000E+00 -0.87861996721E+02  0.87861996721E+02  0.00000000000E+00 0.  1.
         23    2    1    2    0    0 -0.19780172571E+01  0.88320104891E+00 -0.30746627475E+02  0.10645976683E+03  0.10190011902E+03 0.  0.
         23    2    1    2    0    0  0.12823281234E+01  0.50135211850E+02  0.14377869104E+03  0.17707688224E+03  0.90381006832E+02 0.  0.
        -11    1    3    3    0    0 -0.27440805698E+00 -0.36919078416E+02  0.20906778146E+02  0.42428610905E+02  0.00000000000E+00 0. -1.
         11    1    3    3    0    0 -0.17036092002E+01  0.37802279465E+02 -0.51653405621E+02  0.64031155927E+02  0.00000000000E+00 0.  1.
        -13    1    4    4    0    0  0.13543331844E+02  0.74684919225E+02  0.10708113780E+03  0.13125406306E+03  0.00000000000E+00 0.  1.
         13    1    4    4    0    0 -0.12261003720E+02 -0.24549707374E+02  0.36697553234E+02  0.45822819181E+02  0.00000000000E+00 0. -1.
         -4    1    1    2    0  502  0.69568913370E+00 -0.51018412899E+02  0.24678280132E+03  0.25200220924E+03  0.00000000000E+00 0.  1.
<scales pt_clust_5="13000.00000" pt_clust_6="13000.00000" pt_clust_7="13000.00000" pt_clust_8="13000.00000" pt_clust_9="51.02316"></scales>
<clustering>
<clus scale="   51.023">  1  9  2 -1</clus>
<clus scale="   90.381">  7  8 -1 -1</clus>
<clus scale="   90.833">  1  7  2 -1</clus>
<clus scale="  101.900">  5  6 -1 -1</clus>
<clus scale="   51.023">  1  5  2 -1</clus>
</clustering>
</event>
<event>
 9    1  0.1426358E-005  0.1150025E+03  0.7546771E-02  0.1252545E+00
         21   -1    0    0  501  502  0.00000000000E+00  0.00000000000E+00  0.67070170836E+02  0.67070170836E+02  0.00000000000E+00 0. -1.
          3   -1    0    0  502    0 -0.00000000000E+00 -0.00000000000E+00 -0.27926350937E+03  0.27926350937E+03  0.00000000000E+00 0. -1.
         23    2    1    2    0    0 -0.17740442993E+02  0.68275800271E+02 -0.15710734161E+03  0.19497343051E+03  0.91409045481E+02 0.  0.
         23    2    1    2    0    0 -0.25628387899E+01 -0.70023474551E+02 -0.26151885052E+02  0.11597013178E+03  0.88630103476E+02 0.  0.
        -13    1    4    4    0    0  0.29724285803E+02 -0.69326328132E+02 -0.33995315867E+02  0.82736657170E+02  0.00000000000E+00 0.  1.
         13    1    4    4    0    0 -0.32287124593E+02 -0.69714641873E+00  0.78434308151E+01  0.33233474609E+02  0.00000000000E+00 0. -1.
        -13    1    3    3    0    0 -0.40962462131E+02  0.67365172406E+02 -0.72071023496E+02  0.10681864156E+03  0.00000000000E+00 0. -1.
         13    1    3    3    0    0  0.23222019137E+02  0.91062786553E+00 -0.85036318112E+02  0.88154788945E+02  0.00000000000E+00 0.  1.
          3    1    1    2  501    0  0.20303281783E+02  0.17476742793E+01 -0.28934111874E+02  0.35390117921E+02  0.00000000000E+00 0. -1.
<scales pt_clust_5="13000.00000" pt_clust_6="13000.00000" pt_clust_7="13000.00000" pt_clust_8="13000.00000" pt_clust_9="20.37837"></scales>
<clustering>
<clus scale="   20.378">  1  9  2 -1</clus>
<clus scale="   88.630">  5  6 -1 -1</clus>
<clus scale="   91.409">  7  8 -1 -1</clus>
<clus scale="  112.806">  1  5  2 -1</clus>
<clus scale="   20.378">  1  5  2 -1</clus>
</clustering>
</event>
<event>
 9    1  0.1426358E-005  0.1090565E+03  0.7546771E-02  0.1267221E+00
         21   -1    0    0  501  502  0.00000000000E+00  0.00000000000E+00  0.44000655175E+02  0.44000655175E+02  0.00000000000E+00 0.  1.
          3   -1    0    0  502    0 -0.00000000000E+00 -0.00000000000E+00 -0.68825734127E+03  0.68825734127E+03  0.00000000000E+00 0. -1.
         23    2    1    2    0    0 -0.39860819353E+02 -0.72957738163E+01 -0.41304347850E+03  0.42435361252E+03  0.88481411001E+02 0.  0.
         23    2    1    2    0    0  0.42691377576E+02  0.45108545020E+02 -0.24162607741E+03  0.26858205460E+03  0.99477757382E+02 0.  0.
        -11    1    3    3    0    0  0.21320525971E+02  0.20542951754E+02 -0.10739926562E+03  0.11140547540E+03  0.00000000000E+00 0.  1.
         11    1    3    3    0    0 -0.61181345325E+02 -0.27838725571E+02 -0.30564421288E+03  0.31294813711E+03  0.00000000000E+00 0. -1.
        -13    1    4    4    0    0 -0.83751085217E+01 -0.20159989134E+02 -0.11632115505E+03  0.11835192739E+03  0.00000000000E+00 0. -1.
         13    1    4    4    0    0  0.51066486098E+02  0.65268534154E+02 -0.12530492236E+03  0.15023012721E+03  0.00000000000E+00 0.  1.
          3    1    1    2  501    0 -0.28305582231E+01 -0.37812771204E+02  0.10412869815E+02  0.39322329328E+02  0.00000000000E+00 0. -1.
<scales pt_clust_5="13000.00000" pt_clust_6="13000.00000" pt_clust_7="13000.00000" pt_clust_8="13000.00000" pt_clust_9="37.91857"></scales>
<clustering>
<clus scale="   37.919">  1  9  2 -1</clus>
<clus scale="   88.481">  5  6 -1 -1</clus>
<clus scale="   99.128">  2  5  1 -1</clus>
<clus scale="   99.478">  7  8 -1 -1</clus>
<clus scale="   37.919">  1  5  2 -1</clus>
</clustering>
</event>
<event>
 9    1  0.1426358E-005  0.1020037E+03  0.7546771E-02  0.1276692E+00
          2   -1    0    0  502    0 -0.00000000000E+00  0.00000000000E+00  0.60360451706E+02  0.60360451706E+02  0.00000000000E+00 0. -1.
         21   -1    0    0  501  502  0.00000000000E+00 -0.00000000000E+00 -0.31671353297E+03  0.31671353297E+03  0.00000000000E+00 0. -1.
         23    2    1    2    0    0 -0.27753859618E+02  0.53949259820E+02 -0.57392745407E+02  0.12363104700E+03  0.91158703356E+02 0.  0.
         23    2    1    2    0    0  0.36420874435E+02 -0.88861213523E+01 -0.80488031968E+02  0.12639377246E+03  0.89953427834E+02 0.  0.
        -11    1    4    4    0    0  0.98983050947E+01  0.37737522461E+02 -0.53867511547E+02  0.66511697058E+02  0.00000000000E+00 0. -1.
         11    1    4    4    0    0  0.26522569341E+02 -0.46623643814E+02 -0.26620520422E+02  0.59882075402E+02  0.00000000000E+00 0.  1.
        -11    1    3    3    0    0 -0.26908322559E+02 -0.40404906988E+01 -0.59679747310E+02  0.65590057379E+02  0.00000000000E+00 0.  1.
         11    1    3    3    0    0 -0.84553705826E+00  0.57989750519E+02  0.22870019026E+01  0.58040989618E+02  0.00000000000E+00 0. -1.
          2    1    1    2  501    0 -0.86670148178E+01 -0.45063138468E+02 -0.11847230389E+03  0.12704916522E+03  0.00000000000E+00 0. -1.
<scales pt_clust_5="13000.00000" pt_clust_6="13000.00000" pt_clust_7="13000.00000" pt_clust_8="13000.00000" pt_clust_9="45.88904"></scales>
<clustering>
<clus scale="   45.889">  2  9  1 -1</clus>
<clus scale="   89.953">  5  6 -1 -1</clus>
<clus scale="   91.159">  7  8 -1 -1</clus>
<clus scale="  100.928">  2  5  1 -1</clus>
<clus scale="   45.889">  2  5  1 -1</clus>
</clustering>
</event>
<event>
 9    1  0.1426358E-005  0.1091826E+03  0.7546771E-02  0.1262363E+00
         21   -1    0    0  501  502  0.00000000000E+00  0.00000000000E+00  0.39943374480E+03  0.39943374480E+03  0.00000000000E+00 0. -1.
          1   -1    0    0  502    0 -0.00000000000E+00 -0.00000000000E+00 -0.39324529483E+02  0.39324529483E+02  0.00000000000E+00 0. -1.
         23    2    1    2    0    0 -0.28766503965E+02 -0.54805073746E+02  0.13506296805E+03  0.17459114454E+03  0.91700351990E+02 0.  0.
         23    2    1    2    0    0  0.43106254926E+02  0.39361609087E+02  0.14193398601E+03  0.17842462552E+03  0.91008818940E+02 0.  0.
        -11    1    4    4    0    0  0.32607306395E+02  0.67513703261E+02  0.80323363761E+02  0.10987802021E+03  0.00000000000E+00 0. -1.
         11    1    4    4    0    0  0.10498948530E+02 -0.28152094175E+02  0.61610622250E+02  0.68546605319E+02  0.00000000000E+00 0.  1.
        -11    1    3    3    0    0 -0.59153815286E+02 -0.16376659520E+02  0.69076895022E+02  0.92406635399E+02  0.00000000000E+00 0.  1.
         11    1    3    3    0    0  0.30387311321E+02 -0.38428414226E+02  0.65986073028E+02  0.82184509143E+02  0.00000000000E+00 0. -1.
          1    1    1    2  501    0 -0.14339750960E+02  0.15443464660E+02  0.83112261253E+02  0.85742504214E+02  0.00000000000E+00 0. -1.
<scales pt_clust_5="13000.00000" pt_clust_6="13000.00000" pt_clust_7="13000.00000" pt_clust_8="13000.00000" pt_clust_9="21.07437"></scales>
<clustering>
<clus scale="   21.074">  1  9  2 -1</clus>
<clus scale="   91.009">  5  6 -1 -1</clus>
<clus scale="   91.700">  7  8 -1 -1</clus>
<clus scale="  108.602">  1  5  2 -1</clus>
<clus scale="   21.074">  1  5  2 -1</clus>
</clustering>
</event>
<event>
 9    1  0.1426358E-005  0.9522546E+02  0.7546771E-02  0.1293039E+00
          1   -1    0    0  502    0 -0.00000000000E+00  0.00000000000E+00  0.29582368761E+03  0.29582368761E+03  0.00000000000E+00 0. -1.
         21   -1    0    0  501  502  0.00000000000E+00 -0.00000000000E+00 -0.67590592112E+02  0.67590592112E+02  0.00000000000E+00 0.  1.
         23    2    1    2    0    0 -0.24573748627E+02  0.74725606173E+00  0.22613470884E+03  0.24578526294E+03  0.93107794637E+02 0.  0.
         23    2    1    2    0    0 -0.25083927948E+01 -0.48770652838E+01 -0.54196731483E+01  0.89220938149E+02  0.88887148379E+02 0.  0.
        -11    1    3    3    0    0  0.35768214112E+02  0.17377070416E+01  0.90666395082E+02  0.97482203317E+02  0.00000000000E+00 0. -1.
         11    1    3    3    0    0 -0.60341962739E+02 -0.99045097987E+00  0.13546831376E+03  0.14830305962E+03  0.00000000000E+00 0.  1.
        -11    1    4    4    0    0 -0.23469795093E+02  0.11223541546E+02 -0.38755921042E+02  0.46677838236E+02  0.00000000000E+00 0.  1.
         11    1    4    4    0    0  0.20961402298E+02 -0.16100606830E+02  0.33336247894E+02  0.42543099913E+02  0.00000000000E+00 0. -1.
          1    1    1    2  501    0  0.27082141422E+02  0.41298092221E+01  0.75180598008E+01  0.28408078629E+02  0.00000000000E+00 0. -1.
<scales pt_clust_5="13000.00000" pt_clust_6="13000.00000" pt_clust_7="13000.00000" pt_clust_8="13000.00000" pt_clust_9="27.39521"></scales>
<clustering>
<clus scale="   27.395">  2  9  1 -1</clus>
<clus scale="   88.887">  7  8 -1 -1</clus>
<clus scale="   91.103">  2  7  1 -1</clus>
<clus scale="   93.108">  5  6 -1 -1</clus>
<clus scale="   27.395">  2  5  1 -1</clus>
</clustering>
</event>
<event>
 9    1  0.1426358E-005  0.1915712E+03  0.7546771E-02  0.1160390E+00
          2   -1    0    0  502    0 -0.00000000000E+00  0.00000000000E+00  0.47542489971E+03  0.47542489971E+03  0.00000000000E+00 0. -1.
         21   -1    0    0  501  502  0.00000000000E+00 -0.00000000000E+00 -0.10660649077E+03  0.10660649077E+03  0.00000000000E+00 0.  1.
         23    2    1    2    0    0 -0.10127312160E+03 -0.12771191891E+03  0.23559996341E+03  0.30122241661E+03  0.93064612596E+02 0.  0.
         23    2    1    2    0    0  0.43411862603E+02  0.12509648529E+03  0.59716152911E+02  0.18722824505E+03  0.11812991315E+03 0.  0.
        -11    1    3    3    0    0 -0.52846252202E+02 -0.92008019495E+02  0.75595934802E+02  0.13028026474E+03  0.00000000000E+00 0.  1.
         11    1    3    3    0    0 -0.48426869399E+02 -0.35703899419E+02  0.16000402861E+03  0.17094215187E+03  0.00000000000E+00 0. -1.
        -13    1    4    4    0    0 -0.23778498907E+02  0.11673887752E+02  0.48068708294E+02  0.54884400175E+02  0.00000000000E+00 0. -1.
         13    1    4    4    0    0  0.67190361510E+02  0.11342259753E+03  0.11647444617E+02  0.13234384488E+03  0.00000000000E+00 0.  1.
          2    1    1    2  501    0  0.57861258998E+02  0.26154336271E+01  0.73502292617E+02  0.93580728817E+02  0.00000000000E+00 0. -1.
<scales pt_clust_5="13000.00000" pt_clust_6="13000.00000" pt_clust_7="13000.00000" pt_clust_8="13000.00000" pt_clust_9="57.92037"></scales>
<clustering>
<clus scale="   57.920">  2  9  1 -1</clus>
<clus scale="   93.065">  5  6 -1 -1</clus>
<clus scale="  118.130">  7  8 -1 -1</clus>
<clus scale="  177.217">  1  5  2 -1</clus>
<clus scale="   57.920">  2  5  1 -1</clus>
</clustering>
</event>
<event>
 9    1  0.1426358E-005  0.9428774E+02  0.7546771E-02  0.1296713E+00
         -2   -1    0    0    0  501 -0.00000000000E+00  0.00000000000E+00  0.40085283349E+03  0.40085283349E+03  0.00000000000E+00 0.  1.
         21   -1    0    0  501  502  0.00000000000E+00 -0.00000000000E+00 -0.16154502845E+03  0.16154502845E+03  0.00000000000E+00 0.  1.
         23    2    1    2    0    0  0.18955364230E+01  0.98558785227E+01  0.26108408987E+03  0.27681600476E+03  0.91441058113E+02 0.  0.
         23    2    1    2    0    0 -0.15619146679E+02 -0.54112201601E+02  0.10769413795E+03  0.14806985775E+03  0.84584675437E+02 0.  0.
        -11    1    4    4    0    0  0.11527799593E+02 -0.47882394667E+02  0.10959473876E+03  0.12015248914E+03  0.00000000000E+00 0.  1.
         11    1    4    4    0    0 -0.27146946273E+02 -0.62298069338E+01 -0.19006008102E+01  0.27917368605E+02  0.00000000000E+00 0. -1.
        -11    1    3    3    0    0  0.40288619195E+02  0.27376400943E+02  0.16074883773E+03  0.16796674967E+03  0.00000000000E+00 0. -1.
         11    1    3    3    0    0 -0.38393082772E+02 -0.17520522420E+02  0.10033525214E+03  0.10884925509E+03  0.00000000000E+00 0.  1.
         -2    1    1    2    0  502  0.13723610256E+02  0.44256323078E+02 -0.12947042278E+03  0.13751199943E+03  0.00000000000E+00 0.  1.
<scales pt_clust_5="13000.00000" pt_clust_6="13000.00000" pt_clust_7="13000.00000" pt_clust_8="13000.00000" pt_clust_9="46.33530"></scales>
<clustering>
<clus scale="   46.335">  2  9  1 -1</clus>
<clus scale="   84.585">  5  6 -1 -1</clus>
<clus scale="   87.654">  2  5  1 -1</clus>
<clus scale="   91.441">  7  8 -1 -1</clus>
<clus scale="   46.335">  2  5  1 -1</clus>
</clustering>
</event>
<event>
 9    1  0.1426358E-005  0.1071896E+03  0.7546771E-02  0.1266308E+00
         21   -1    0    0  501  502  0.00000000000E+00  0.00000000000E+00  0.63928850169E+02  0.63928850169E+02  0.00000000000E+00 0.  1.
          1   -1    0    0  502    0 -0.00000000000E+00 -0.00000000000E+00 -0.37457839262E+03  0.37457839262E+03  0.00000000000E+00 0. -1.
         23    2    1    2    0    0  0.22105564077E+01  0.46534931058E+02 -0.19613508184E+03  0.22037079562E+03  0.89016464010E+02 0.  0.
         23    2    1    2    0    0 -0.34658152214E+02 -0.79449377312E+02 -0.11781830938E+03  0.17179939220E+03  0.90113739611E+02 0.  0.
        -11    1    4    4    0    0 -0.29332429585E+02 -0.30131176648E+02  0.20208681302E+01  0.42099443459E+02  0.00000000000E+00 0.  1.
         11    1    4    4    0    0 -0.53257226288E+01 -0.49318200664E+02 -0.11983917751E+03  0.12969994875E+03  0.00000000000E+00 0. -1.
        -13    1    3    3    0    0  0.25674938188E+02 -0.54434236373E+01 -0.14481984633E+02  0.29976010254E+02  0.00000000000E+00 0.  1.
         13    1    3    3    0    0 -0.23464381780E+02  0.51978354696E+02 -0.18165309721E+03  0.19039478537E+03  0.00000000000E+00 0. -1.
          1    1    1    2  501    0  0.32447595807E+02  0.32914446253E+02  0.33038487731E+01  0.46337054962E+02  0.00000000000E+00 0. -1.
<scales pt_clust_5="13000.00000" pt_clust_6="13000.00000" pt_clust_7="13000.00000" pt_clust_8="13000.00000" pt_clust_9="46.21912"></scales>
<clustering>
<clus scale="   46.219">  1  9  2 -1</clus>
<clus scale="   89.016">  7  8 -1 -1</clus>
<clus scale="   90.114">  5  6 -1 -1</clus>
<clus scale="  106.269">  2  7  1 -1</clus>
<clus scale="   46.219">  1  5  2 -1</clus>
</clustering>
</event>
<event>
 9    1  0.1426358E-005  0.1206859E+03  0.7546771E-02  0.1242172E+00
         21   -1    0    0  501  502  0.00000000000E+00  0.00000000000E+00  0.40783414497E+02  0.40783414497E+02  0.00000000000E+00 0. -1.
          4   -1    0    0  502    0 -0.00000000000E+00 -0.00000000000E+00 -0.55316118673E+03  0.55316118673E+03  0.00000000000E+00 0. -1.
         23    2    1    2    0    0  0.73694631364E+02  0.29831838406E+01 -0.28779136249E+03  0.31071980233E+03  0.91011697913E+02 0.  0.
         23    2    1    2    0    0 -0.85266170490E+02 -0.42496556460E+02 -0.16712961920E+03  0.21253894520E+03  0.90356053881E+02 0.  0.
        -13    1    4    4    0    0 -0.80756455228E+02 -0.67811549997E+02 -0.13812940375E+03  0.17378073413E+03  0.00000000000E+00 0. -1.
         13    1    4    4    0    0 -0.45097152620E+01  0.25314993537E+02 -0.29000215455E+02  0.38758211078E+02  0.00000000000E+00 0.  1.
        -13    1    3    3    0    0  0.14485300280E+02 -0.17817785680E+02 -0.85336725112E+01  0.24497366742E+02  0.00000000000E+00 0.  1.
         13    1    3    3    0    0  0.59209331084E+02  0.20800969521E+02 -0.27925768998E+03  0.28622243558E+03  0.00000000000E+00 0. -1.
          4    1    1    2  501    0  0.11571539125E+02  0.39513372619E+02 -0.57456790544E+02  0.70685853698E+02  0.00000000000E+00 0. -1.
<scales pt_clust_5="13000.00000" pt_clust_6="13000.00000" pt_clust_7="13000.00000" pt_clust_8="13000.00000" pt_clust_9="41.17289"></scales>
<clustering>
<clus scale="   41.173">  1  9  2 -1</clus>
<clus scale="   90.356">  5  6 -1 -1</clus>
<clus scale="   91.012">  7  8 -1 -1</clus>
<clus scale="  120.192">  1  5  2 -1</clus>
<clus scale="   41.173">  1  5  2 -1</clus>
</clustering>
</event>
<event>
 9    1  0.1426358E-005  0.1200077E+03  0.7546771E-02  0.1243429E+00
          1   -1    0    0  502    0 -0.00000000000E+00  0.00000000000E+00  0.16578635859E+03  0.16578635859E+03  0.00000000000E+00 0. -1.
         21   -1    0    0  501  502  0.00000000000E+00 -0.00000000000E+00 -0.12179537718E+03  0.12179537718E+03  0.00000000000E+00 0. -1.
         23    2    1    2    0    0  0.35652710601E+02  0.60642805667E+02  0.59831296652E+02  0.12995743696E+03  0.91435691659E+02 0.  0.
         23    2    1    2    0    0 -0.55999916267E+02 -0.71387789732E+02 -0.26499235434E+02  0.13226535482E+03  0.92518687094E+02 0.  0.
        -11    1    4    4    0    0  0.10086157168E+02 -0.19324897733E+02 -0.41435260778E+02  0.46819473241E+02  0.00000000000E+00 0.  1.
         11    1    4    4    0    0 -0.66086073434E+02 -0.52062891999E+02  0.14936025344E+02  0.85445881576E+02  0.00000000000E+00 0. -1.
        -11    1    3    3    0    0  0.25168553881E+02  0.78056847727E+02  0.69450718532E+02  0.10746966961E+03  0.00000000000E+00 0. -1.
         11    1    3    3    0    0  0.10484156720E+02 -0.17414042060E+02 -0.96194218793E+01  0.22487767348E+02  0.00000000000E+00 0.  1.
          1    1    1    2  501    0  0.20347205666E+02  0.10744984065E+02  0.10658920189E+02  0.25358943996E+02  0.00000000000E+00 0. -1.
<scales pt_clust_5="13000.00000" pt_clust_6="13000.00000" pt_clust_7="13000.00000" pt_clust_8="13000.00000" pt_clust_9="23.01008"></scales>
<clustering>
<clus scale="   23.010">  2  9  1 -1</clus>
<clus scale="   91.436">  7  8 -1 -1</clus>
<clus scale="   92.519">  5  6 -1 -1</clus>
<clus scale="  119.175">  1  7  2 -1</clus>
<clus scale="   23.010">  2  5  1 -1</clus>
</clustering>
</event>
<event>
 9    1  0.1426358E-005  0.9320991E+02  0.7546771E-02  0.1297152E+00
         21   -1    0    0  501  502  0.00000000000E+00  0.00000000000E+00  0.98614188919E+02  0.98614188919E+02  0.00000000000E+00 0.  1.
          1   -1    0    0  502    0 -0.00000000000E+00 -0.00000000000E+00 -0.52711746841E+03  0.52711746841E+03  0.00000000000E+00 0. -1.
         23    2    1    2    0    0 -0.34568485505E+02  0.17820518879E+02 -0.25911638429E+03  0.27664304550E+03  0.88755410716E+02 0.  0.
         23    2    1    2    0    0 -0.86514817689E+01  0.30393175114E+02 -0.23656288341E+03  0.25578727609E+03  0.92013800981E+02 0.  0.
        -11    1    4    4    0    0 -0.13785001316E+02 -0.19949931729E+02 -0.14988113050E+02  0.28507359928E+02  0.00000000000E+00 0. -1.
         11    1    4    4    0    0  0.51335195468E+01  0.50343106843E+02 -0.22157477036E+03  0.22727991616E+03  0.00000000000E+00 0.  1.
        -13    1    3    3    0    0 -0.29629828896E+02  0.50131648848E+02 -0.11544843978E+03  0.12930371698E+03  0.00000000000E+00 0.  1.
         13    1    3    3    0    0 -0.49386566087E+01 -0.32311129969E+02 -0.14366794451E+03  0.14733932852E+03  0.00000000000E+00 0. -1.
          1    1    1    2  501    0  0.43219967274E+02 -0.48213693993E+02  0.67175988209E+02  0.93301335743E+02  0.00000000000E+00 0. -1.
<scales pt_clust_5="13000.00000" pt_clust_6="13000.00000" pt_clust_7="13000.00000" pt_clust_8="13000.00000" pt_clust_9="64.74972"></scales>
<clustering>
<clus scale="   64.750">  1  9  2 -1</clus>
<clus scale="   88.755">  7  8 -1 -1</clus>
<clus scale="   89.995">  2  7  1 -1</clus>
<clus scale="   92.014">  5  6 -1 -1</clus>
<clus scale="   64.750">  1  5  2 -1</clus>
</clustering>
</event>
<event>
 9    1  0.1426358E-005  0.2392527E+03  0.7546771E-02  0.1120368E+00
         21   -1    0    0  501  502  0.00000000000E+00  0.00000000000E+00  0.42283471121E+03  0.42283471121E+03  0.00000000000E+00 0.  1.
         -1   -1    0    0    0  501 -0.00000000000E+00 -0.00000000000E+00 -0.22698154925E+03  0.22698154925E+03  0.00000000000E+00 0.  1.
         23    2    1    2    0    0 -0.23379331167E+03 -0.67388268243E+02  0.77575548274E+02  0.27200756975E+03  0.93646468361E+02 0.  0.
         23    2    1    2    0    0  0.14698837740E+03  0.15201238047E+03  0.11170130046E+03  0.25640199864E+03  0.92474090836E+02 0.  0.
        -11    1    3    3    0    0 -0.12792014887E+03 -0.76308311809E+02  0.72447476992E+02  0.16563562376E+03  0.00000000000E+00 0.  1.
         11    1    3    3    0    0 -0.10587316280E+03  0.89200435666E+01  0.51280712817E+01  0.10637194599E+03  0.00000000000E+00 0. -1.
        -13    1    4    4    0    0  0.89559289238E+02  0.55106466693E+02  0.96524252656E+02  0.14273934395E+03  0.00000000000E+00 0. -1.
         13    1    4    4    0    0  0.57429088166E+02  0.96905913773E+02  0.15177047806E+02  0.11366265469E+03  0.00000000000E+00 0.  1.
         -1    1    1    2    0  502  0.86804934264E+02 -0.84624112223E+02  0.65763132166E+01  0.12140669206E+03  0.00000000000E+00 0.  1.
<scales pt_clust_5="13000.00000" pt_clust_6="13000.00000" pt_clust_7="13000.00000" pt_clust_8="13000.00000" pt_clust_9="121.22851"></scales>
<clustering>
<clus scale="   92.474">  7  8 -1 -1</clus>
<clus scale="   93.646">  5  6 -1 -1</clus>
<clus scale="  121.229">  1  9  2 -1</clus>
<clus scale="  238.796">  1  7  2 -1</clus>
<clus scale="  121.229">  1  5  2 -1</clus>
</clustering>
</event>
<event>
 9    1  0.1426358E-005  0.1052613E+03  0.7546771E-02  0.1270207E+00
         21   -1    0    0  501  502  0.00000000000E+00  0.00000000000E+00  0.23459690239E+03  0.23459690239E+03  0.00000000000E+00 0.  1.
          2   -1    0    0  502    0 -0.00000000000E+00 -0.00000000000E+00 -0.19961642033E+03  0.19961642033E+03  0.00000000000E+00 0.  1.
         23    2    1    2    0    0 -0.16729354680E+02  0.58923092087E+02 -0.15267672525E+03  0.18720130798E+03  0.89343971169E+02 0.  0.
         23    2    1    2    0    0 -0.20429453709E+02 -0.32188239451E+02  0.64188352272E+02  0.11533024854E+03  0.87906065340E+02 0.  0.
        -13    1    3    3    0    0 -0.28866519380E+02 -0.58895187853E+01 -0.11950654703E+02  0.31792774658E+02  0.00000000000E+00 0. -1.
         13    1    3    3    0    0  0.12137164700E+02  0.64812610872E+02 -0.14072607055E+03  0.15540853332E+03  0.00000000000E+00 0.  1.
        -13    1    4    4    0    0 -0.27177596910E+02 -0.53905864729E+02  0.69416475195E+02  0.91995168647E+02  0.00000000000E+00 0. -1.
         13    1    4    4    0    0  0.67481432007E+01  0.21717625278E+02 -0.52281229239E+01  0.23335079894E+02  0.00000000000E+00 0.  1.
          2    1    1    2  501    0  0.37158808389E+02 -0.26734852637E+02  0.12346885504E+03  0.13168176621E+03  0.00000000000E+00 0.  1.
<scales pt_clust_5="13000.00000" pt_clust_6="13000.00000" pt_clust_7="13000.00000" pt_clust_8="13000.00000" pt_clust_9="45.77695"></scales>
<clustering>
<clus scale="   45.777">  1  9  2 -1</clus>
<clus scale="   87.906">  7  8 -1 -1</clus>
<clus scale="   89.344">  5  6 -1 -1</clus>
<clus scale="  104.044">  1  7  2 -1</clus>
<clus scale="   45.777">  1  5  2 -1</clus>
</clustering>
</event>
<event>
 9    1  0.1426358E-005  0.2055885E+03  0.7546771E-02  0.1147071E+00
          1   -1    0    0  502    0 -0.00000000000E+00  0.00000000000E+00  0.33776399956E+03  0.33776399956E+03  0.00000000000E+00 0. -1.
         21   -1    0    0  501  502  0.00000000000E+00 -0.00000000000E+00 -0.32306597829E+03  0.32306597829E+03  0.00000000000E+00 0. -1.
         23    2    1    2    0    0  0.10156135330E+03  0.14625943779E+03  0.24554408303E+03  0.32350146485E+03  0.11249341945E+03 0.  0.
         23    2    1    2    0    0 -0.34275446659E+02 -0.14172608675E+03 -0.19455734455E+03  0.26074642958E+03  0.94207485455E+02 0.  0.
        -11    1    3    3    0    0 -0.13021284246E+02  0.42739479882E+02  0.17265332961E+02  0.47898942643E+02  0.00000000000E+00 0.  1.
         11    1    3    3    0    0  0.11458263754E+03  0.10351995791E+03  0.22827875007E+03  0.27560252221E+03  0.00000000000E+00 0. -1.
        -13    1    4    4    0    0 -0.15225262580E+02 -0.23265871310E+02 -0.11126615919E+03  0.11468769581E+03  0.00000000000E+00 0.  1.
         13    1    4    4    0    0 -0.19050184079E+02 -0.11846021543E+03 -0.83291185355E+02  0.14605873378E+03  0.00000000000E+00 0. -1.
          1    1    1    2  501    0 -0.67285906640E+02 -0.45333510422E+01 -0.36288717216E+02  0.76582083421E+02  0.00000000000E+00 0. -1.
<scales pt_clust_5="13000.00000" pt_clust_6="13000.00000" pt_clust_7="13000.00000" pt_clust_8="13000.00000" pt_clust_9="67.43845"></scales>
<clustering>
<clus scale="   67.438">  2  9  1 -1</clus>
<clus scale="   94.207">  7  8 -1 -1</clus>
<clus scale="  112.493">  5  6 -1 -1</clus>
<clus scale="  196.181">  2  7  1 -1</clus>
<clus scale="   67.438">  2  5  1 -1</clus>
</clustering>
</event>
<event>
 9    1  0.1426358E-005  0.1107829E+03  0.7546771E-02  0.1265113E+00
         21   -1    0    0  501  502  0.00000000000E+00  0.00000000000E+00  0.11609466764E+03  0.11609466764E+03  0.00000000000E+00 0. -1.
          2   -1    0    0  502    0 -0.00000000000E+00 -0.00000000000E+00 -0.20752665805E+03  0.20752665805E+03  0.00000000000E+00 0. -1.
         23    2    1    2    0    0  0.16849416833E+02  0.16147836174E+02 -0.90129368069E+02  0.13019097905E+03  0.91004025052E+02 0.  0.
         23    2    1    2    0    0 -0.65552609485E+02 -0.50526594234E+02 -0.89286895535E+01  0.13332995662E+03  0.10414928948E+03 0.  0.
        -13    1    3    3    0    0  0.40617188006E+02  0.33113970391E+02 -0.85985320647E+02  0.10069640690E+03  0.00000000000E+00 0.  1.
         13    1    3    3    0    0 -0.23767771173E+02 -0.16966134217E+02 -0.41440474222E+01  0.29494572142E+02  0.00000000000E+00 0. -1.
        -13    1    4    4    0    0 -0.35991205394E+02 -0.34066374026E+01  0.43726013399E+02  0.56735670366E+02  0.00000000000E+00 0.  1.
         13    1    4    4    0    0 -0.29561404091E+02 -0.47119956831E+02 -0.52654702953E+02  0.76594286253E+02  0.00000000000E+00 0. -1.
          2    1    1    2  501    0  0.48703192651E+02  0.34378758059E+02  0.76260672184E+01  0.60100390027E+02  0.00000000000E+00 0. -1.
<scales pt_clust_5="13000.00000" pt_clust_6="13000.00000" pt_clust_7="13000.00000" pt_clust_8="13000.00000" pt_clust_9="59.61460"></scales>
<clustering>
<clus scale="   59.615">  1  9  2 -1</clus>
<clus scale="   91.004">  5  6 -1 -1</clus>
<clus scale="   98.527">  2  5  1 -1</clus>
<clus scale="  104.149">  7  8 -1 -1</clus>
<clus scale="   59.615">  1  5  2 -1</clus>
</clustering>
</event>
<event>
 9    1  0.1426358E-005  0.1276165E+03  0.7546771E-02  0.1235598E+00
         -4   -1    0    0    0  501 -0.00000000000E+00  0.00000000000E+00  0.22110972851E+03  0.22110972851E+03  0.00000000000E+00 0.  1.
         21   -1    0    0  501  502  0.00000000000E+00 -0.00000000000E+00 -0.48693019918E+03  0.48693019918E+03  0.00000000000E+00 0. -1.
         23    2    1    2    0    0  0.53801470033E+02 -0.67321565826E+02  0.16122987497E+03  0.19716019654E+03  0.73826005676E+02 0.  0.
         23    2    1    2    0    0 -0.50970396898E+02  0.15774790714E+03 -0.30793348736E+03  0.36130110932E+03  0.90736295892E+02 0.  0.
        -13    1    3    3    0    0  0.48050989293E+02 -0.16245010823E+02  0.37199759763E+02  0.62901669891E+02  0.00000000000E+00 0. -1.
         13    1    3    3    0    0  0.57504807405E+01 -0.51076555002E+02  0.12403011521E+03  0.13425852665E+03  0.00000000000E+00 0.  1.
        -13    1    4    4    0    0 -0.72567288833E+02  0.78855704598E+02 -0.17759772924E+03  0.20742513586E+03  0.00000000000E+00 0.  1.
         13    1    4    4    0    0  0.21596891935E+02  0.78892202547E+02 -0.13033575812E+03  0.15387597346E+03  0.00000000000E+00 0. -1.
         -4    1    1    2    0  502 -0.28310731352E+01 -0.90426341319E+02 -0.11911685828E+03  0.14957862182E+03  0.00000000000E+00 0.  1.
<scales pt_clust_5="13000.00000" pt_clust_6="13000.00000" pt_clust_7="13000.00000" pt_clust_8="13000.00000" pt_clust_9="90.47065"></scales>
<clustering>
<clus scale="   73.826">  5  6 -1 -1</clus>
<clus scale="   90.471">  2  9  1 -1</clus>
<clus scale="   90.736">  7  8 -1 -1</clus>
<clus scale="  116.203">  1  5  2 -1</clus>
<clus scale="   90.471">  2  5  1 -1</clus>
</clustering>
</event>
<event>
 9    1  0.1426358E-005  0.1496374E+03  0.7546771E-02  0.1222326E+00
         21   -1    0    0  501  502  0.00000000000E+00  0.00000000000E+00  0.14295688241E+04  0.14295688241E+04  0.00000000000E+00 0.  1.
          3   -1    0    0  502    0 -0.00000000000E+00 -0.00000000000E+00 -0.32162753213E+02  0.32162753213E+02  0.00000000000E+00 0. -1.
         23    2    1    2    0    0 -0.86107442190E+01  0.92284839233E+01  0.11125786187E+03  0.14620252458E+03  0.94008279065E+02 0.  0.
         23    2    1    2    0    0  0.25844682637E+02 -0.12288537058E+03  0.59894710049E+03  0.61877926976E+03  0.91549951264E+02 0.  0.
        -11    1    3    3    0    0  0.36849833637E+02 -0.15129671665E+02  0.68357078021E+02  0.79117048222E+02  0.00000000000E+00 0. -1.
         11    1    3    3    0    0 -0.45460577856E+02  0.24358155589E+02  0.42900783851E+02  0.67085476354E+02  0.00000000000E+00 0.  1.
        -13    1    4    4    0    0  0.50943375580E+02 -0.31537117488E+02  0.20302418464E+03  0.21168050653E+03  0.00000000000E+00 0. -1.
         13    1    4    4    0    0 -0.25098692944E+02 -0.91348253096E+02  0.39592291585E+03  0.40709876323E+03  0.00000000000E+00 0.  1.
          3    1    1    2  501    0 -0.17233938418E+02  0.11365688666E+03  0.68720110854E+03  0.69674978299E+03  0.00000000000E+00 0. -1.
<scales pt_clust_5="13000.00000" pt_clust_6="13000.00000" pt_clust_7="13000.00000" pt_clust_8="13000.00000" pt_clust_9="118.36362"></scales>
<clustering>
<clus scale="   91.550">  7  8 -1 -1</clus>
<clus scale="   94.008">  5  6 -1 -1</clus>
<clus scale="   94.852">  2  5  1 -1</clus>
<clus scale="  118.364">  1  9  2 -1</clus>
<clus scale="  118.364">  1  5  2 -1</clus>
</clustering>
</event>
<event>
 9    1  0.1426358E-005  0.1005745E+03  0.7546771E-02  0.1279727E+00
          2   -1    0    0  502    0 -0.00000000000E+00  0.00000000000E+00  0.59825771353E+02  0.59825771353E+02  0.00000000000E+00 0. -1.
         21   -1    0    0  501  502  0.00000000000E+00 -0.00000000000E+00 -0.27032520249E+03  0.27032520249E+03  0.00000000000E+00 0.  1.
         23    2    1    2    0    0  0.20933414348E+02 -0.24815602203E+02 -0.62469969911E+02  0.11380085160E+03  0.89409813415E+02 0.  0.
         23    2    1    2    0    0 -0.54228435169E+02  0.19922331990E+02 -0.62448544732E+02  0.12439037141E+03  0.90749772828E+02 0.  0.
        -11    1    3    3    0    0 -0.29435644938E+02 -0.32767798342E+02 -0.31300845307E+02  0.54036364774E+02  0.00000000000E+00 0.  1.
         11    1    3    3    0    0  0.50369059286E+02  0.79521961386E+01 -0.31169124604E+02  0.59764486825E+02  0.00000000000E+00 0. -1.
        -13    1    4    4    0    0 -0.93024071371E+01  0.29527766389E+02  0.14953741324E+02  0.34380781638E+02  0.00000000000E+00 0. -1.
         13    1    4    4    0    0 -0.44926028032E+02 -0.96054343986E+01 -0.77402286056E+02  0.90009589775E+02  0.00000000000E+00 0.  1.
          2    1    1    2  501    0  0.33295020821E+02  0.48932702133E+01 -0.85580916499E+02  0.91959750835E+02  0.00000000000E+00 0. -1.
<scales pt_clust_5="13000.00000" pt_clust_6="13000.00000" pt_clust_7="13000.00000" pt_clust_8="13000.00000" pt_clust_9="33.65267"></scales>
<clustering>
<clus scale="   33.653">  2  9  1 -1</clus>
<clus scale="   89.410">  5  6 -1 -1</clus>
<clus scale="   90.750">  7  8 -1 -1</clus>
<clus scale="   99.367">  1  5  2 -1</clus>
<clus scale="   33.653">  2  5  1 -1</clus>
</clustering>
</event>
<event>
 9    1  0.1426358E-005  0.1067434E+03  0.7546771E-02  0.1269855E+00
         21   -1    0    0  501  502  0.00000000000E+00  0.00000000000E+00  0.16485518592E+03  0.16485518592E+03  0.00000000000E+00 0. -1.
         -2   -1    0    0    0  501 -0.00000000000E+00 -0.00000000000E+00 -0.22565294812E+03  0.22565294812E+03  0.00000000000E+00 0.  1.
         23    2    1    2    0    0  0.21071576376E+01 -0.46733385829E+02 -0.17951982400E+03  0.20655476440E+03  0.90824303053E+02 0.  0.
         23    2    1    2    0    0 -0.15810205698E+02  0.16220819051E+02  0.61515710143E+02  0.11768605547E+03  0.97738157767E+02 0.  0.
        -13    1    4    4    0    0  0.23060294510E+02  0.31489121217E+02 -0.47920362852E+01  0.39323091812E+02  0.00000000000E+00 0.  1.
         13    1    4    4    0    0 -0.38870500209E+02 -0.15268302165E+02  0.66307746428E+02  0.78362963662E+02  0.00000000000E+00 0. -1.
        -13    1    3    3    0    0  0.27635552102E+02 -0.45508552884E+02 -0.17179325922E+03  0.17985459693E+03  0.00000000000E+00 0.  1.
         13    1    3    3    0    0 -0.25528394464E+02 -0.12248329451E+01 -0.77265647818E+01  0.26700167471E+02  0.00000000000E+00 0. -1.
         -2    1    1    2    0  502  0.13703048061E+02  0.30512566777E+02  0.57206351647E+02  0.66267314162E+02  0.00000000000E+00 0.  1.
<scales pt_clust_5="13000.00000" pt_clust_6="13000.00000" pt_clust_7="13000.00000" pt_clust_8="13000.00000" pt_clust_9="33.44832"></scales>
<clustering>
<clus scale="   33.448">  1  9  2 -1</clus>
<clus scale="   90.824">  7  8 -1 -1</clus>
<clus scale="   97.738">  5  6 -1 -1</clus>
<clus scale="  100.451">  2  7  1 -1</clus>
<clus scale="   33.448">  1  5  2 -1</clus>
</clustering>
</event>
<event>
 9    1  0.1426358E-005  0.9464675E+02  0.7546771E-02  0.1292393E+00
         21   -1    0    0  501  502  0.00000000000E+00  0.00000000000E+00  0.62893848324E+02  0.62893848324E+02  0.00000000000E+00 0.  1.
          1   -1    0    0  502    0 -0.00000000000E+00 -0.00000000000E+00 -0.33663206528E+03  0.33663206528E+03  0.00000000000E+00 0. -1.
         23    2    1    2    0    0 -0.24294668786E+02 -0.20715631384E+02 -0.17785715400E+03  0.20158903747E+03  0.89362209473E+02 0.  0.
         23    2    1    2    0    0 -0.28194844083E+02  0.42419356299E+02 -0.95919699615E+02  0.14113720950E+03  0.90137517775E+02 0.  0.
        -11    1    4    4    0    0  0.23575148304E+02 -0.10810496586E+02 -0.10565604974E+02  0.28005114934E+02  0.00000000000E+00 0. -1.
         11    1    4    4    0    0 -0.51769992387E+02  0.53229852884E+02 -0.85354094640E+02  0.11313209457E+03  0.00000000000E+00 0.  1.
        -13    1    3    3    0    0 -0.22866553385E+02 -0.46840124968E+02 -0.16378956592E+03  0.17188338627E+03  0.00000000000E+00 0.  1.
         13    1    3    3    0    0 -0.14281154016E+01  0.26124493583E+02 -0.14067588078E+02  0.29705651195E+02  0.00000000000E+00 0. -1.
          1    1    1    2  501    0  0.52489512870E+02 -0.21703724914E+02  0.38636663566E-01  0.56799666630E+02  0.00000000000E+00 0. -1.
<scales pt_clust_5="13000.00000" pt_clust_6="13000.00000" pt_clust_7="13000.00000" pt_clust_8="13000.00000" pt_clust_9="56.79965"></scales>
<clustering>
<clus scale="   56.800">  1  9  2 -1</clus>
<clus scale="   89.362">  7  8 -1 -1</clus>
<clus scale="   90.138">  5  6 -1 -1</clus>
<clus scale="   93.909">  2  7  1 -1</clus>
<clus scale="   56.800">  1  5  2 -1</clus>
</clustering>
</event>
<event>
 9    1  0.1426358E-005  0.1445000E+03  0.7546771E-02  0.1209197E+00
         21   -1    0    0  501  502  0.00000000000E+00  0.00000000000E+00  0.57054725929E+03  0.57054725929E+03  0.00000000000E+00 0.  1.
         -3   -1    0    0    0  501 -0.00000000000E+00 -0.00000000000E+00 -0.53405497504E+02  0.53405497504E+02  0.00000000000E+00 0.  1.
         23    2    1    2    0    0  0.73263833552E+02  0.64137298171E+02  0.11317598029E+03  0.17959501266E+03  0.99821759833E+02 0.  0.
         23    2    1    2    0    0 -0.77459835561E+02 -0.95479796280E+02  0.33976857245E+03  0.37279490273E+03  0.91743877450E+02 0.  0.
        -11    1    3    3    0    0  0.63117894810E+02 -0.10450891427E+02  0.56741543972E+02  0.85514282954E+02  0.00000000000E+00 0. -1.
         11    1    3    3    0    0  0.10145938742E+02  0.74588189597E+02  0.56434436316E+02  0.94080729710E+02  0.00000000000E+00 0.  1.
        -13    1    4    4    0    0 -0.69174884258E+02 -0.73219414075E+02  0.33328461401E+03  0.34817363649E+03  0.00000000000E+00 0.  1.
         13    1    4    4    0    0 -0.82849513025E+01 -0.22260382205E+02  0.64839584401E+01  0.24621266236E+02  0.00000000000E+00 0. -1.
         -3    1    1    2    0  502  0.41960020082E+01  0.31342498110E+02  0.64197209046E+02  0.71562841404E+02  0.00000000000E+00 0.  1.
<scales pt_clust_5="13000.00000" pt_clust_6="13000.00000" pt_clust_7="13000.00000" pt_clust_8="13000.00000" pt_clust_9="31.62212"></scales>
<clustering>
<clus scale="   31.622">  1  9  2 -1</clus>
<clus scale="   91.744">  7  8 -1 -1</clus>
<clus scale="   99.822">  5  6 -1 -1</clus>
<clus scale="  139.042">  1  7  2 -1</clus>
<clus scale="   31.622">  1  5  2 -1</clus>
</clustering>
</event>
<event>
 9    1  0.1426358E-005  0.1042898E+03  0.7546771E-02  0.1272552E+00
         21   -1    0    0  501  502  0.00000000000E+00  0.00000000000E+00  0.23089429444E+03  0.23089429444E+03  0.00000000000E+00 0. -1.
          1   -1    0    0  502    0 -0.00000000000E+00 -0.00000000000E+00 -0.18948958108E+03  0.18948958108E+03  0.00000000000E+00 0. -1.
         23    2    1    2    0    0  0.46065101676E+02  0.42558718672E+01 -0.11707188201E+03  0.15445496621E+03  0.89500865869E+02 0.  0.
         23    2    1    2    0    0 -0.83124502689E+02 -0.10612848530E+02  0.18285840790E+03  0.22111503716E+03  0.91827810693E+02 0.  0.
        -11    1    4    4    0    0 -0.10153496106E+03  0.27357183920E+01  0.15013103830E+03  0.18126268544E+03  0.00000000000E+00 0. -1.
         11    1    4    4    0    0  0.18410458372E+02 -0.13348566922E+02  0.32727369596E+02  0.39852351713E+02  0.00000000000E+00 0.  1.
        -11    1    3    3    0    0 -0.13075436240E+02 -0.25254814515E+02 -0.62779386114E+02  0.68920417947E+02  0.00000000000E+00 0. -1.
         11    1    3    3    0    0  0.59140537915E+02  0.29510686382E+02 -0.54292495894E+02  0.85534548260E+02  0.00000000000E+00 0.  1.
          1    1    1    2  501    0  0.37059401013E+02  0.63569766631E+01 -0.24381812531E+02  0.44813872161E+02  0.00000000000E+00 0. -1.
<scales pt_clust_5="13000.00000" pt_clust_6="13000.00000" pt_clust_7="13000.00000" pt_clust_8="13000.00000" pt_clust_9="37.60069"></scales>
<clustering>
<clus scale="   37.601">  1  9  2 -1</clus>
<clus scale="   89.501">  7  8 -1 -1</clus>
<clus scale="   91.828">  5  6 -1 -1</clus>
<clus scale="  102.247">  2  7  1 -1</clus>
<clus scale="   37.601">  1  5  2 -1</clus>
</clustering>
</event>
<event>
 9    1  0.1426358E-005  0.1483763E+03  0.7546771E-02  0.1202763E+00
         21   -1    0    0  501  502  0.00000000000E+00  0.00000000000E+00  0.46428612336E+02  0.46428612336E+02  0.00000000000E+00 0. -1.
         -2   -1    0    0    0  501 -0.00000000000E+00 -0.00000000000E+00 -0.57115421361E+03  0.57115421361E+03  0.00000000000E+00 0.  1.
         23    2    1    2    0    0  0.60769489610E+02  0.93345504712E+02 -0.27282386324E+03  0.30809532591E+03  0.89908594548E+02 0.  0.
         23    2    1    2    0    0 -0.51658141652E+02 -0.11477856159E+03 -0.20719621627E+03  0.25907940282E+03  0.91373864592E+02 0.  0.
        -11    1    3    3    0    0  0.15817615220E+02  0.64753894938E+02 -0.23082451635E+03  0.24025657371E+03  0.00000000000E+00 0.  1.
         11    1    3    3    0    0  0.44951874391E+02  0.28591609774E+02 -0.41999346892E+02  0.67838752200E+02  0.00000000000E+00 0. -1.
        -11    1    4    4    0    0 -0.67260416228E+02 -0.53264137009E+02 -0.15393001407E+03  0.17622565396E+03  0.00000000000E+00 0.  1.
         11    1    4    4    0    0  0.15602274576E+02 -0.61514424584E+02 -0.53266202202E+02  0.82853748864E+02  0.00000000000E+00 0. -1.
         -2    1    1    2    0  502 -0.91113479580E+01  0.21433056881E+02 -0.44705521763E+02  0.50408097217E+02  0.00000000000E+00 0.  1.
<scales pt_clust_5="13000.00000" pt_clust_6="13000.00000" pt_clust_7="13000.00000" pt_clust_8="13000.00000" pt_clust_9="23.28934"></scales>
<clustering>
<clus scale="   23.289">  1  9  2 -1</clus>
<clus scale="   89.909">  5  6 -1 -1</clus>
<clus scale="   91.374">  7  8 -1 -1</clus>
<clus scale="  147.478">  2  5  1 -1</clus>
<clus scale="   23.289">  1  5  2 -1</clus>
</clustering>
</event>
<event>
 9    1  0.1426358E-005  0.9947377E+02  0.7546771E-02  0.1281903E+00
          1   -1    0    0  502    0 -0.00000000000E+00  0.00000000000E+00  0.75180824564E+02  0.75180824564E+02  0.00000000000E+00 0. -1.
         21   -1    0    0  501  502  0.00000000000E+00 -0.00000000000E+00 -0.55962766893E+03  0.55962766893E+03  0.00000000000E+00 0. -1.
         23    2    1    2    0    0  0.36625075667E+02  0.33740868924E+02  0.61742366687E+01  0.10469076771E+03  0.91881408577E+02 0.  0.
         23    2    1    2    0    0  0.24303109394E+02 -0.27115644686E+02 -0.12192259943E+03  0.15636017379E+03  0.90870701463E+02 0.  0.
        -11    1    4    4    0    0  0.47230977726E+02 -0.14345918926E+01 -0.24902505555E+02  0.53413089162E+02  0.00000000000E+00 0. -1.
         11    1    4    4    0    0 -0.22927868333E+02 -0.25681052794E+02 -0.97020093875E+02  0.10294708463E+03  0.00000000000E+00 0.  1.
        -13    1    3    3    0    0 -0.22543363800E+02 -0.15637589412E+02  0.21423983312E+01  0.27519580750E+02  0.00000000000E+00 0.  1.
         13    1    3    3    0    0  0.59168439467E+02  0.49378458336E+02  0.40318383376E+01  0.77171186961E+02  0.00000000000E+00 0. -1.
          1    1    1    2  501    0 -0.60928185060E+02 -0.66252242376E+01 -0.36869848160E+03  0.37375755198E+03  0.00000000000E+00 0. -1.
<scales pt_clust_5="13000.00000" pt_clust_6="13000.00000" pt_clust_7="13000.00000" pt_clust_8="13000.00000" pt_clust_9="61.28733"></scales>
<clustering>
<clus scale="   61.287">  2  9  1 -1</clus>
<clus scale="   90.871">  5  6 -1 -1</clus>
<clus scale="   91.881">  7  8 -1 -1</clus>
<clus scale="   98.541">  2  5  1 -1</clus>
<clus scale="   61.287">  2  5  1 -1</clus>
</clustering>
</event>
<event>
 9    1  0.1426358E-005  0.3176594E+03  0.7546771E-02  0.1076899E+00
          2   -1    0    0  502    0 -0.00000000000E+00  0.00000000000E+00  0.13270499523E+04  0.13270499523E+04  0.00000000000E+00 0. -1.
         21   -1    0    0  501  502  0.00000000000E+00 -0.00000000000E+00 -0.10210533811E+03  0.10210533811E+03  0.00000000000E+00 0.  1.
         23    2    1    2    0    0 -0.21154182268E+03  0.22631508460E+03  0.65062142883E+03  0.72629192966E+03  0.90682209791E+02 0.  0.
         23    2    1    2    0    0  0.18949644644E+03 -0.22775884919E+03  0.59568733563E+03  0.67213047954E+03  0.95566642173E+02 0.  0.
        -13    1    4    4    0    0  0.10791043281E+03 -0.57247257443E+02  0.22430254350E+03  0.25540857663E+03  0.00000000000E+00 0.  1.
         13    1    4    4    0    0  0.81586013629E+02 -0.17051159175E+03  0.37138479213E+03  0.41672190291E+03  0.00000000000E+00 0. -1.
        -13    1    3    3    0    0 -0.52819628601E+02  0.11104509194E+02  0.13651097540E+03  0.14679397022E+03  0.00000000000E+00 0. -1.
         13    1    3    3    0    0 -0.15872219408E+03  0.21521057541E+03  0.51411045343E+03  0.57949795943E+03  0.00000000000E+00 0.  1.
          2    1    1    2  501    0  0.22045376242E+02  0.14437645891E+01 -0.21364150279E+02  0.30732881202E+02  0.00000000000E+00 0. -1.
<scales pt_clust_5="13000.00000" pt_clust_6="13000.00000" pt_clust_7="13000.00000" pt_clust_8="13000.00000" pt_clust_9="22.09260"></scales>
<clustering>
<clus scale="   22.093">  2  9  1 -1</clus>
<clus scale="   90.682">  7  8 -1 -1</clus>
<clus scale="   95.567">  5  6 -1 -1</clus>
<clus scale="  316.224">  1  7  2 -1</clus>
<clus scale="   22.093">  2  5  1 -1</clus>
</clustering>
</event>
<event>
 9    1  0.1426358E-005  0.9596009E+02  0.7546771E-02  0.1289789E+00
         21   -1    0    0  501  502  0.00000000000E+00  0.00000000000E+00  0.46831183917E+02  0.46831183917E+02  0.00000000000E+00 0.  1.
          1   -1    0    0  502    0 -0.00000000000E+00 -0.00000000000E+00 -0.37473381685E+03  0.37473381685E+03  0.00000000000E+00 0. -1.
         23    2    1    2    0    0 -0.67385357031E+01 -0.32934806063E+01 -0.12633204377E+03  0.15540220013E+03  0.90187602493E+02 0.  0.
         23    2    1    2    0    0  0.43646220040E+02  0.52562863896E+02 -0.13697239245E+03  0.17692953155E+03  0.88739932710E+02 0.  0.
        -13    1    4    4    0    0  0.40348637199E+02 -0.10786504916E+02 -0.26270552984E+02  0.49340684695E+02  0.00000000000E+00 0.  1.
         13    1    4    4    0    0  0.32975828413E+01  0.63349368812E+02 -0.11070183947E+03  0.12758884686E+03  0.00000000000E+00 0. -1.
        -13    1    3    3    0    0 -0.96297275975E+01 -0.44020383451E+02 -0.90421175350E+02  0.10102729713E+03  0.00000000000E+00 0. -1.
         13    1    3    3    0    0  0.28911918944E+01  0.40726902844E+02 -0.35910868421E+02  0.54374903003E+02  0.00000000000E+00 0.  1.
          1    1    1    2  501    0 -0.36907684337E+02 -0.49269383290E+02 -0.64598196706E+02  0.89233269079E+02  0.00000000000E+00 0. -1.
<scales pt_clust_5="13000.00000" pt_clust_6="13000.00000" pt_clust_7="13000.00000" pt_clust_8="13000.00000" pt_clust_9="61.56013"></scales>
<clustering>
<clus scale="   61.560">  1  9  2 -1</clus>
<clus scale="   88.740">  5  6 -1 -1</clus>
<clus scale="   90.188">  7  8 -1 -1</clus>
<clus scale="   94.601">  1  5  2 -1</clus>
<clus scale="   61.560">  1  5  2 -1</clus>
</clustering>
</event>
<event>
 9    1  0.1438553E-005  0.1090574E+03  0.7546771E-02  0.1269127E+00
         21   -1    0    0  501  502  0.00000000000E+00  0.00000000000E+00  0.19877657855E+03  0.19877657855E+03  0.00000000000E+00 0.  1.
         -3   -1    0    0    0  501 -0.00000000000E+00 -0.00000000000E+00 -0.31865471201E+03  0.31865471201E+03  0.00000000000E+00 0.  1.
         23    2    1    2    0    0  0.35769724937E+02 -0.16620480568E+02 -0.18100322382E+03  0.20670128193E+03  0.91692635045E+02 0.  0.
         23    2    1    2    0    0 -0.84310614161E+01 -0.12489079913E+02 -0.99052116053E+02  0.14564970548E+03  0.10571402507E+03 0.  0.
        -13    1    4    4    0    0  0.35171037496E+02  0.35286647565E+01 -0.92139395152E+02  0.98686987453E+02  0.00000000000E+00 0.  1.
         13    1    4    4    0    0 -0.43602098912E+02 -0.16017744669E+02 -0.69127209011E+01  0.46962718023E+02  0.00000000000E+00 0. -1.
        -13    1    3    3    0    0  0.52461425684E+02 -0.40254419010E+02 -0.15186897856E+03  0.16564059310E+03  0.00000000000E+00 0.  1.
         13    1    3    3    0    0 -0.16691700747E+02  0.23633938442E+02 -0.29134245265E+02  0.41060688831E+02  0.00000000000E+00 0. -1.
         -3    1    1    2    0  502 -0.27338663521E+02  0.29109560481E+02  0.16017720642E+03  0.16508030315E+03  0.00000000000E+00 0.  1.
<scales pt_clust_5="13000.00000" pt_clust_6="13000.00000" pt_clust_7="13000.00000" pt_clust_8="13000.00000" pt_clust_9="39.93456"></scales>
<clustering>
<clus scale="   39.935">  1  9  2 -1</clus>
<clus scale="   91.693">  7  8 -1 -1</clus>
<clus scale="   95.528">  2  7  1 -1</clus>
<clus scale="  105.714">  5  6 -1 -1</clus>
<clus scale="   39.935">  1  5  2 -1</clus>
</clustering>
</event>
<event>
 9    1  0.1426358E-005  0.2418521E+03  0.7546771E-02  0.1157841E+00
         21   -1    0    0  501  502  0.00000000000E+00  0.00000000000E+00  0.99554674817E+03  0.99554674817E+03  0.00000000000E+00 0.  1.
         -1   -1    0    0    0  501 -0.00000000000E+00 -0.00000000000E+00 -0.45701928142E+03  0.45701928142E+03  0.00000000000E+00 0.  1.
         23    2    1    2    0    0 -0.17518714433E+02  0.11293148533E+02 -0.17526015531E+03  0.19862582194E+03  0.91113415830E+02 0.  0.
         23    2    1    2    0    0  0.17944207605E+03  0.14195729319E+03 -0.19718386911E+03  0.31608417892E+03  0.93147185569E+02 0.  0.
        -11    1    4    4    0    0  0.38165352090E+02  0.25333271813E+02 -0.97029751914E+02  0.10729930809E+03  0.00000000000E+00 0. -1.
         11    1    4    4    0    0  0.14127672396E+03  0.11662402137E+03 -0.10015411719E+03  0.20878487082E+03  0.00000000000E+00 0.  1.
        -11    1    3    3    0    0 -0.34689682013E+02 -0.29400916961E+02 -0.60683033512E+02  0.75830195255E+02  0.00000000000E+00 0. -1.
         11    1    3    3    0    0  0.17170967580E+02  0.40694065494E+02 -0.11457712180E+03  0.12279562669E+03  0.00000000000E+00 0.  1.
         -1    1    1    2    0  502 -0.16192336161E+03 -0.15325044172E+03  0.91097149117E+03  0.93785602874E+03  0.00000000000E+00 0.  1.
<scales pt_clust_5="13000.00000" pt_clust_6="13000.00000" pt_clust_7="13000.00000" pt_clust_8="13000.00000" pt_clust_9="223.19509"></scales>
<clustering>
<clus scale="   91.113">  7  8 -1 -1</clus>
<clus scale="   93.147">  5  6 -1 -1</clus>
<clus scale="   93.467">  2  7  1 -1</clus>
<clus scale="  223.195">  1  9  2 -1</clus>
<clus scale="  223.195">  1  5  2 -1</clus>
</clustering>
</event>
<event>
 9    1  0.1426358E-005  0.1136000E+03  0.7546771E-02  0.1255118E+00
         21   -1    0    0  501  502  0.00000000000E+00  0.00000000000E+00  0.37290775477E+02  0.37290775477E+02  0.00000000000E+00 0. -1.
          2   -1    0    0  502    0 -0.00000000000E+00 -0.00000000000E+00 -0.44534079107E+03  0.44534079107E+03  0.00000000000E+00 0. -1.
         23    2    1    2    0    0 -0.28412394419E+02  0.59747728998E+02 -0.23957439411E+03  0.26492720449E+03  0.91725013421E+02 0.  0.
         23    2    1    2    0    0  0.76999816293E+01 -0.70191144200E+02 -0.15001024960E+03  0.18805577148E+03  0.88745770379E+02 0.  0.
        -11    1    4    4    0    0  0.25956814711E+02 -0.49581781532E+02 -0.27251882938E+02  0.62247686009E+02  0.00000000000E+00 0.  1.
         11    1    4    4    0    0 -0.18256833081E+02 -0.20609362668E+02 -0.12275836667E+03  0.12580808547E+03  0.00000000000E+00 0. -1.
        -11    1    3    3    0    0 -0.49232136801E+02  0.30526897790E+01 -0.76462492452E+02  0.90992499475E+02  0.00000000000E+00 0.  1.
         11    1    3    3    0    0  0.20819742381E+02  0.56695039219E+02 -0.16311190166E+03  0.17393470501E+03  0.00000000000E+00 0. -1.
          2    1    1    2  501    0  0.20712412790E+02  0.10443415203E+02 -0.18465371881E+02  0.29648590580E+02  0.00000000000E+00 0. -1.
<scales pt_clust_5="13000.00000" pt_clust_6="13000.00000" pt_clust_7="13000.00000" pt_clust_8="13000.00000" pt_clust_9="23.19631"></scales>
<clustering>
<clus scale="   23.196">  1  9  2 -1</clus>
<clus scale="   88.746">  5  6 -1 -1</clus>
<clus scale="   91.725">  7  8 -1 -1</clus>
<clus scale="  111.208">  1  5  2 -1</clus>
<clus scale="   23.196">  1  5  2 -1</clus>
</clustering>
</event>
<event>
 9    1  0.1426358E-005  0.1065220E+03  0.7546771E-02  0.1267564E+00
          1   -1    0    0  502    0 -0.00000000000E+00  0.00000000000E+00  0.44519377542E+03  0.44519377542E+03  0.00000000000E+00 0. -1.
         21   -1    0    0  501  502  0.00000000000E+00 -0.00000000000E+00 -0.12559397283E+03  0.12559397283E+03  0.00000000000E+00 0. -1.
         23    2    1    2    0    0 -0.13397179571E+02  0.64062923552E+02  0.34564839062E+03  0.36388893819E+03  0.93052709809E+02 0.  0.
         23    2    1    2    0    0 -0.22814531858E+02 -0.91107792843E+00  0.43623797154E+02  0.10613331543E+03  0.94020806414E+02 0.  0.
        -13    1    4    4    0    0 -0.44028670000E+02  0.29949405336E+02  0.69203284237E+01  0.53697128484E+02  0.00000000000E+00 0. -1.
         13    1    4    4    0    0  0.21214138142E+02 -0.30860483265E+02  0.36703468730E+02  0.52436186944E+02  0.00000000000E+00 0.  1.
        -13    1    3    3    0    0 -0.51675279839E+02  0.20826280504E+02  0.15645310418E+03  0.16607721792E+03  0.00000000000E+00 0.  1.
         13    1    3    3    0    0  0.38278100268E+02  0.43236643049E+02  0.18919528644E+03  0.19781172027E+03  0.00000000000E+00 0. -1.
          1    1    1    2  501    0  0.36211711428E+02 -0.63151845624E+02 -0.69672385191E+02  0.10076549463E+03  0.00000000000E+00 0. -1.
<scales pt_clust_5="13000.00000" pt_clust_6="13000.00000" pt_clust_7="13000.00000" pt_clust_8="13000.00000" pt_clust_9="72.79728"></scales>
<clustering>
<clus scale="   72.797">  2  9  1 -1</clus>
<clus scale="   93.053">  7  8 -1 -1</clus>
<clus scale="   94.021">  5  6 -1 -1</clus>
<clus scale="  105.668">  1  7  2 -1</clus>
<clus scale="   72.797">  2  5  1 -1</clus>
</clustering>
</event>
<event>
 9    1  0.1426358E-005  0.1084997E+03  0.7546771E-02  0.1264144E+00
         -1   -1    0    0    0  501 -0.00000000000E+00  0.00000000000E+00  0.19833725265E+03  0.19833725265E+03  0.00000000000E+00 0.  1.
         21   -1    0    0  501  502  0.00000000000E+00 -0.00000000000E+00 -0.10649542350E+03  0.10649542350E+03  0.00000000000E+00 0. -1.
         23    2    1    2    0    0 -0.85690372041E+01 -0.34832933083E+02  0.30480358308E+02  0.98788777543E+02  0.86852799034E+02 0.  0.
         23    2    1    2    0    0  0.63099546097E+01  0.89688463299E+02  0.78182116349E+02  0.14862293759E+03  0.88839733698E+02 0.  0.
        -11    1    3    3    0    0 -0.42340383791E+02  0.39420596521E+01  0.14945646608E+02  0.45073498715E+02  0.00000000000E+00 0.  1.
         11    1    3    3    0    0  0.33771346587E+02 -0.38774992735E+02  0.15534711700E+02  0.53715278828E+02  0.00000000000E+00 0. -1.
        -13    1    4    4    0    0  0.13475701877E+02  0.30377371384E+02  0.82282487743E+02  0.88739996746E+02  0.00000000000E+00 0.  1.
         13    1    4    4    0    0 -0.71657472674E+01  0.59311091915E+02 -0.41003713941E+01  0.59882940839E+02  0.00000000000E+00 0. -1.
         -1    1    1    2    0  502  0.22590825944E+01 -0.54855530216E+02 -0.16820645499E+02  0.57420961020E+02  0.00000000000E+00 0.  1.
<scales pt_clust_5="13000.00000" pt_clust_6="13000.00000" pt_clust_7="13000.00000" pt_clust_8="13000.00000" pt_clust_9="54.90203"></scales>
<clustering>
<clus scale="   54.902">  2  9  1 -1</clus>
<clus scale="   86.853">  5  6 -1 -1</clus>
<clus scale="   88.840">  7  8 -1 -1</clus>
<clus scale="  106.879">  1  5  2 -1</clus>
<clus scale="   54.902">  2  5  1 -1</clus>
</clustering>
</event>
<event>
 9    1  0.1426358E-005  0.1020138E+03  0.7546771E-02  0.1280398E+00
          1   -1    0    0  502    0 -0.00000000000E+00  0.00000000000E+00  0.29978450060E+03  0.29978450060E+03  0.00000000000E+00 0. -1.
         21   -1    0    0  501  502  0.00000000000E+00 -0.00000000000E+00 -0.14446903904E+03  0.14446903904E+03  0.00000000000E+00 0.  1.
         23    2    1    2    0    0  0.15555434095E+02  0.72297282392E+01  0.18882683324E+03  0.21390579982E+03  0.99024632017E+02 0.  0.
         23    2    1    2    0    0 -0.62049236217E+02  0.68473915881E+02  0.12812978527E+02  0.13015462234E+03  0.90759398561E+02 0.  0.
        -11    1    3    3    0    0  0.28398859144E+02 -0.22941273206E+02  0.19413650751E+02  0.41348362150E+02  0.00000000000E+00 0. -1.
         11    1    3    3    0    0 -0.12843425050E+02  0.30171001445E+02  0.16941318249E+03  0.17255743767E+03  0.00000000000E+00 0.  1.
        -13    1    4    4    0    0 -0.13553922256E+02  0.65541328909E+02 -0.21926558035E+02  0.70428322080E+02  0.00000000000E+00 0.  1.
         13    1    4    4    0    0 -0.48495313961E+02  0.29325869719E+01  0.34739536562E+02  0.59726300263E+02  0.00000000000E+00 0. -1.
          1    1    1    2  501    0  0.46493802122E+02 -0.75703644121E+02 -0.46324350199E+02  0.10019311748E+03  0.00000000000E+00 0. -1.
<scales pt_clust_5="13000.00000" pt_clust_6="13000.00000" pt_clust_7="13000.00000" pt_clust_8="13000.00000" pt_clust_9="88.84096"></scales>
<clustering>
<clus scale="   88.841">  2  9  1 -1</clus>
<clus scale="   90.759">  7  8 -1 -1</clus>
<clus scale="   94.012">  2  7  1 -1</clus>
<clus scale="   99.025">  5  6 -1 -1</clus>
<clus scale="   88.841">  2  5  1 -1</clus>
</clustering>
</event>
<event>
 9    1  0.1426358E-005  0.1431596E+03  0.7546771E-02  0.1209226E+00
         21   -1    0    0  501  502  0.00000000000E+00  0.00000000000E+00  0.43299343617E+03  0.43299343617E+03  0.00000000000E+00 0.  1.
         -3   -1    0    0    0  501 -0.00000000000E+00 -0.00000000000E+00 -0.14884754860E+03  0.14884754860E+03  0.00000000000E+00 0.  1.
         23    2    1    2    0    0 -0.66863810867E+02  0.81100097198E+02 -0.62615204897E+02  0.15596074627E+03  0.96721742769E+02 0.  0.
         23    2    1    2    0    0  0.97673087575E+02 -0.53524764271E+02  0.10665240331E+03  0.18223748132E+03  0.97112471076E+02 0.  0.
        -11    1    3    3    0    0 -0.23096014771E+02  0.90918734826E+02 -0.24135525183E+02  0.96861580704E+02  0.00000000000E+00 0.  1.
         11    1    3    3    0    0 -0.43767796096E+02 -0.98186376278E+01 -0.38479679714E+02  0.59099165568E+02  0.00000000000E+00 0. -1.
        -11    1    4    4    0    0  0.32689309164E+02 -0.72916282036E+02  0.59939866966E+02  0.99890754185E+02  0.00000000000E+00 0. -1.
         11    1    4    4    0    0  0.64983778411E+02  0.19391517766E+02  0.46712536340E+02  0.82346727131E+02  0.00000000000E+00 0.  1.
         -3    1    1    2    0  502 -0.30809276708E+02 -0.27575332927E+02  0.24010868916E+03  0.24364275719E+03  0.00000000000E+00 0.  1.
<scales pt_clust_5="13000.00000" pt_clust_6="13000.00000" pt_clust_7="13000.00000" pt_clust_8="13000.00000" pt_clust_9="41.34744"></scales>
<clustering>
<clus scale="   41.347">  1  9  2 -1</clus>
<clus scale="   96.722">  5  6 -1 -1</clus>
<clus scale="   97.112">  7  8 -1 -1</clus>
<clus scale="  142.895">  2  5  1 -1</clus>
<clus scale="   41.347">  1  5  2 -1</clus>
</clustering>
</event>
<event>
 9    1  0.1426358E-005  0.1158920E+03  0.7546771E-02  0.1250343E+00
          1   -1    0    0  502    0 -0.00000000000E+00  0.00000000000E+00  0.12999129858E+03  0.12999129858E+03  0.00000000000E+00 0. -1.
         21   -1    0    0  501  502  0.00000000000E+00 -0.00000000000E+00 -0.16053008303E+03  0.16053008303E+03  0.00000000000E+00 0.  1.
         23    2    1    2    0    0  0.66607321035E+02  0.42797873754E+02  0.49378570175E+02  0.13094578908E+03  0.91871449717E+02 0.  0.
         23    2    1    2    0    0 -0.43991453464E+02 -0.32061532104E+02 -0.41757898412E+02  0.11393689627E+03  0.90965402390E+02 0.  0.
        -11    1    3    3    0    0  0.47106715858E+02  0.59548114597E+02  0.65774330167E+02  0.10045537885E+03  0.00000000000E+00 0. -1.
         11    1    3    3    0    0  0.19500605177E+02 -0.16750240843E+02 -0.16395759992E+02  0.30490410234E+02  0.00000000000E+00 0.  1.
        -11    1    4    4    0    0 -0.26744261177E+02 -0.52471535847E+02 -0.58006078289E+02  0.82663309265E+02  0.00000000000E+00 0.  1.
         11    1    4    4    0    0 -0.17247192286E+02  0.20410003743E+02  0.16248179877E+02  0.31273587000E+02  0.00000000000E+00 0. -1.
          1    1    1    2  501    0 -0.22615867572E+02 -0.10736341650E+02 -0.38159456213E+02  0.45638696262E+02  0.00000000000E+00 0. -1.
<scales pt_clust_5="13000.00000" pt_clust_6="13000.00000" pt_clust_7="13000.00000" pt_clust_8="13000.00000" pt_clust_9="25.03491"></scales>
<clustering>
<clus scale="   25.035">  2  9  1 -1</clus>
<clus scale="   90.965">  7  8 -1 -1</clus>
<clus scale="   91.871">  5  6 -1 -1</clus>
<clus scale="  115.175">  2  7  1 -1</clus>
<clus scale="   25.035">  2  5  1 -1</clus>
</clustering>
</event>
<event>
 9    1  0.1426358E-005  0.2548212E+03  0.7546771E-02  0.1110603E+00
          2   -1    0    0  502    0 -0.00000000000E+00  0.00000000000E+00  0.16013427509E+04  0.16013427509E+04  0.00000000000E+00 0. -1.
         21   -1    0    0  501  502  0.00000000000E+00 -0.00000000000E+00 -0.47503822108E+02  0.47503822108E+02  0.00000000000E+00 0. -1.
         23    2    1    2    0    0  0.23672021592E+03 -0.61683473469E+02  0.92804211245E+03  0.96473430535E+03  0.98024516945E+02 0.  0.
         23    2    1    2    0    0 -0.22104666039E+03  0.30920572740E+02  0.55499914522E+03  0.60534471952E+03  0.92738720926E+02 0.  0.
        -13    1    3    3    0    0  0.35649429317E+02 -0.59942163428E+01  0.46830126845E+02  0.59159726339E+02  0.00000000000E+00 0.  1.
         13    1    3    3    0    0  0.20107078660E+03 -0.55689257126E+02  0.88121198560E+03  0.90557457901E+03  0.00000000000E+00 0. -1.
        -13    1    4    4    0    0 -0.75977915550E+02  0.44243287805E+02  0.28884929493E+03  0.30193381286E+03  0.00000000000E+00 0.  1.
         13    1    4    4    0    0 -0.14506874484E+03 -0.13322715064E+02  0.26614985029E+03  0.30341090666E+03  0.00000000000E+00 0. -1.
          2    1    1    2  501    0 -0.15673555526E+02  0.30762900729E+02  0.70797671124E+02  0.78767548144E+02  0.00000000000E+00 0. -1.
<scales pt_clust_5="13000.00000" pt_clust_6="13000.00000" pt_clust_7="13000.00000" pt_clust_8="13000.00000" pt_clust_9="34.52559"></scales>
<clustering>
<clus scale="   34.526">  2  9  1 -1</clus>
<clus scale="   92.739">  7  8 -1 -1</clus>
<clus scale="   98.025">  5  6 -1 -1</clus>
<clus scale="  252.835">  2  7  1 -1</clus>
<clus scale="   34.526">  2  5  1 -1</clus>
</clustering>
</event>
<event>
 9    1  0.1426358E-005  0.9340708E+02  0.7546771E-02  0.1295098E+00
          2   -1    0    0  502    0 -0.00000000000E+00  0.00000000000E+00  0.82622063600E+03  0.82622063600E+03  0.00000000000E+00 0. -1.
         21   -1    0    0  501  502  0.00000000000E+00 -0.00000000000E+00 -0.23354212034E+02  0.23354212034E+02  0.00000000000E+00 0. -1.
         23    2    1    2    0    0 -0.34775992042E+02  0.16318495033E+02  0.40846706701E+03  0.42035515661E+03  0.91528410602E+02 0.  0.
         23    2    1    2    0    0 -0.35126885476E+02 -0.14104495802E+02  0.20930713220E+03  0.23135497567E+03  0.91009968099E+02 0.  0.
        -11    1    4    4    0    0 -0.31041868691E+02 -0.49942046978E+02  0.97354791732E+02  0.11373548761E+03  0.00000000000E+00 0. -1.
         11    1    4    4    0    0 -0.40850167857E+01  0.35837551176E+02  0.11195234046E+03  0.11761948806E+03  0.00000000000E+00 0.  1.
        -13    1    3    3    0    0 -0.44933795823E+02 -0.28407584272E+02  0.20472257087E+03  0.21151209865E+03  0.00000000000E+00 0. -1.
         13    1    3    3    0    0  0.10157803781E+02  0.44726079306E+02  0.20374449614E+03  0.20884305795E+03  0.00000000000E+00 0.  1.
          2    1    1    2  501    0  0.69902877518E+02 -0.22139992311E+01  0.18509222476E+03  0.19786471576E+03  0.00000000000E+00 0. -1.
<scales pt_clust_5="13000.00000" pt_clust_6="13000.00000" pt_clust_7="13000.00000" pt_clust_8="13000.00000" pt_clust_9="69.93793"></scales>
<clustering>
<clus scale="   69.938">  2  9  1 -1</clus>
<clus scale="   91.010">  5  6 -1 -1</clus>
<clus scale="   91.528">  7  8 -1 -1</clus>
<clus scale="   92.899">  2  5  1 -1</clus>
<clus scale="   69.938">  2  5  1 -1</clus>
</clustering>
</event>
<event>
 9    1  0.1426358E-005  0.9757420E+02  0.7546771E-02  0.1286300E+00
         -2   -1    0    0    0  501 -0.00000000000E+00  0.00000000000E+00  0.61431985241E+02  0.61431985241E+02  0.00000000000E+00 0.  1.
         21   -1    0    0  501  502  0.00000000000E+00 -0.00000000000E+00 -0.54065840460E+03  0.54065840460E+03  0.00000000000E+00 0. -1.
         23    2    1    2    0    0  0.39778140866E+02 -0.67850758596E+01  0.68372353680E+01  0.98217796292E+02  0.89284096992E+02 0.  0.
         23    2    1    2    0    0  0.25295212255E+00 -0.49941603796E+01 -0.33738304691E+03  0.34944733023E+03  0.90890652082E+02 0.  0.
        -11    1    4    4    0    0 -0.38907839694E+00 -0.47923107869E+02 -0.16727639717E+03  0.17400623179E+03  0.00000000000E+00 0.  1.
         11    1    4    4    0    0  0.64203051948E+00  0.42928947490E+02 -0.17010664974E+03  0.17544109844E+03  0.00000000000E+00 0. -1.
        -13    1    3    3    0    0  0.33048807778E+02 -0.31121032183E+02  0.37226897926E+02  0.58707616788E+02  0.00000000000E+00 0.  1.
         13    1    3    3    0    0  0.67293330881E+01  0.24335956324E+02 -0.30389662558E+02  0.39510179504E+02  0.00000000000E+00 0. -1.
         -2    1    1    2    0  502 -0.40031092989E+02  0.11779236239E+02 -0.14868060782E+03  0.15442526332E+03  0.00000000000E+00 0.  1.
<scales pt_clust_5="13000.00000" pt_clust_6="13000.00000" pt_clust_7="13000.00000" pt_clust_8="13000.00000" pt_clust_9="41.72815"></scales>
<clustering>
<clus scale="   41.728">  2  9  1 -1</clus>
<clus scale="   89.284">  7  8 -1 -1</clus>
<clus scale="   90.891">  5  6 -1 -1</clus>
<clus scale="   96.079">  1  7  2 -1</clus>
<clus scale="   41.728">  2  5  1 -1</clus>
</clustering>
</event>
<event>
 9    1  0.1426358E-005  0.1947125E+03  0.7546771E-02  0.1182918E+00
         -3   -1    0    0    0  501 -0.00000000000E+00  0.00000000000E+00  0.27491179984E+03  0.27491179984E+03  0.00000000000E+00 0.  1.
         21   -1    0    0  501  502  0.00000000000E+00 -0.00000000000E+00 -0.24190414912E+03  0.24190414912E+03  0.00000000000E+00 0.  1.
         23    2    1    2    0    0 -0.38999239919E+02  0.82904978361E+01  0.54481641768E+01  0.10110649089E+03  0.92753258370E+02 0.  0.
         23    2    1    2    0    0  0.13895071741E+03  0.12741728076E+03  0.10097418332E+03  0.23187089648E+03  0.89587173350E+02 0.  0.
        -11    1    3    3    0    0 -0.52051821646E+02  0.23855697924E+02  0.33601756335E+02  0.66389490802E+02  0.00000000000E+00 0.  1.
         11    1    3    3    0    0  0.13052581728E+02 -0.15565200088E+02 -0.28153592158E+02  0.34717000086E+02  0.00000000000E+00 0. -1.
        -11    1    4    4    0    0  0.39084026692E+02  0.39426954785E+02  0.79627207229E+02  0.97069758613E+02  0.00000000000E+00 0.  1.
         11    1    4    4    0    0  0.99866690719E+02  0.87990325979E+02  0.21346976094E+02  0.13480113786E+03  0.00000000000E+00 0. -1.
         -3    1    1    2    0  502 -0.99951477493E+02 -0.13570777860E+03 -0.73414696776E+02  0.18383856159E+03  0.00000000000E+00 0.  1.
<scales pt_clust_5="13000.00000" pt_clust_6="13000.00000" pt_clust_7="13000.00000" pt_clust_8="13000.00000" pt_clust_9="172.87886"></scales>
<clustering>
<clus scale="   89.587">  7  8 -1 -1</clus>
<clus scale="   92.753">  5  6 -1 -1</clus>
<clus scale="  100.960">  1  5  2 -1</clus>
<clus scale="  172.879">  2  9  1 -1</clus>
<clus scale="  172.879">  2  5  1 -1</clus>
</clustering>
</event>
<event>
 9    1  0.1426358E-005  0.2202280E+03  0.7546771E-02  0.1133751E+00
          1   -1    0    0  502    0 -0.00000000000E+00  0.00000000000E+00  0.22194057311E+03  0.22194057311E+03  0.00000000000E+00 0. -1.
         21   -1    0    0  501  502  0.00000000000E+00 -0.00000000000E+00 -0.27580315298E+03  0.27580315298E+03  0.00000000000E+00 0.  1.
         23    2    1    2    0    0  0.10858046423E+03  0.16807514442E+03  0.30634019268E+02  0.22128616302E+03  0.89387646930E+02 0.  0.
         23    2    1    2    0    0 -0.12753040494E+03 -0.15860999133E+03 -0.37931166109E+02  0.22530065807E+03  0.88884642273E+02 0.  0.
        -13    1    4    4    0    0 -0.42834366666E+02 -0.57104901909E+02  0.29088235908E+02  0.77083579691E+02  0.00000000000E+00 0. -1.
         13    1    4    4    0    0 -0.84696038276E+02 -0.10150508942E+03 -0.67019402016E+02  0.14821707838E+03  0.00000000000E+00 0.  1.
        -13    1    3    3    0    0  0.52992955182E+01  0.57599936226E+02  0.39094427931E+02  0.69815538969E+02  0.00000000000E+00 0. -1.
         13    1    3    3    0    0  0.10328116871E+03  0.11047520820E+03 -0.84604086635E+01  0.15147062405E+03  0.00000000000E+00 0.  1.
          1    1    1    2  501    0  0.18949940713E+02 -0.94651530947E+01 -0.46565433027E+02  0.51156904999E+02  0.00000000000E+00 0. -1.
<scales pt_clust_5="13000.00000" pt_clust_6="13000.00000" pt_clust_7="13000.00000" pt_clust_8="13000.00000" pt_clust_9="21.18229"></scales>
<clustering>
<clus scale="   21.182">  2  9  1 -1</clus>
<clus scale="   88.885">  5  6 -1 -1</clus>
<clus scale="   89.388">  7  8 -1 -1</clus>
<clus scale="  220.024">  2  5  1 -1</clus>
<clus scale="   21.182">  2  5  1 -1</clus>
</clustering>
</event>
<event>
 9    1  0.1426358E-005  0.1166190E+03  0.7546771E-02  0.1250004E+00
         21   -1    0    0  501  502  0.00000000000E+00  0.00000000000E+00  0.17708430352E+03  0.17708430352E+03  0.00000000000E+00 0. -1.
          1   -1    0    0  502    0 -0.00000000000E+00 -0.00000000000E+00 -0.28209504724E+03  0.28209504724E+03  0.00000000000E+00 0. -1.
         23    2    1    2    0    0  0.29352866087E+02 -0.40972562168E+02 -0.13764764299E+03  0.17591387551E+03  0.97254698487E+02 0.  0.
         23    2    1    2    0    0 -0.20383896170E+02  0.73506008233E+02 -0.90689747160E+02  0.15540489003E+03  0.10053563117E+03 0.  0.
        -13    1    3    3    0    0 -0.35163193692E+02 -0.23757731997E+02 -0.60221238156E+02  0.73671416067E+02  0.00000000000E+00 0. -1.
         13    1    3    3    0    0  0.64516059779E+02 -0.17214830171E+02 -0.77426404830E+02  0.10224245944E+03  0.00000000000E+00 0.  1.
        -13    1    4    4    0    0  0.87928391014E+00  0.40444864113E+02 -0.10581677370E+03  0.11328614112E+03  0.00000000000E+00 0. -1.
         13    1    4    4    0    0 -0.21263180080E+02  0.33061144120E+02  0.15127026542E+02  0.42118748908E+02  0.00000000000E+00 0.  1.
          1    1    1    2  501    0 -0.89689699174E+01 -0.32533446065E+02  0.12332664643E+03  0.12786058523E+03  0.00000000000E+00 0. -1.
<scales pt_clust_5="13000.00000" pt_clust_6="13000.00000" pt_clust_7="13000.00000" pt_clust_8="13000.00000" pt_clust_9="33.74711"></scales>
<clustering>
<clus scale="   33.747">  1  9  2 -1</clus>
<clus scale="   97.255">  5  6 -1 -1</clus>
<clus scale="  100.536">  7  8 -1 -1</clus>
<clus scale="  113.803">  2  5  1 -1</clus>
<clus scale="   33.747">  1  5  2 -1</clus>
</clustering>
</event>
<event>
 9    1  0.1426358E-005  0.1011533E+03  0.7546771E-02  0.1277917E+00
         -1   -1    0    0    0  501 -0.00000000000E+00  0.00000000000E+00  0.23135323612E+03  0.23135323612E+03  0.00000000000E+00 0.  1.
         21   -1    0    0  501  502  0.00000000000E+00 -0.00000000000E+00 -0.12386063745E+03  0.12386063745E+03  0.00000000000E+00 0.  1.
         23    2    1    2    0    0 -0.52706667837E+02 -0.19138580663E+02  0.15103841713E+03  0.18492618416E+03  0.90778918457E+02 0.  0.
         23    2    1    2    0    0  0.47542201590E+01 -0.28377877085E+02 -0.37889093333E+02  0.10254368942E+03  0.90838969223E+02 0.  0.
        -11    1    4    4    0    0 -0.40277905413E+02 -0.29998510378E+02 -0.20444012558E+02  0.54223407665E+02  0.00000000000E+00 0.  1.
         11    1    4    4    0    0  0.45032125572E+02  0.16206332931E+01 -0.17445080775E+02  0.48320281757E+02  0.00000000000E+00 0. -1.
        -11    1    3    3    0    0 -0.71027048762E+02 -0.36270025796E+02  0.12832359630E+03  0.15108706694E+03  0.00000000000E+00 0.  1.
         11    1    3    3    0    0  0.18320380925E+02  0.17131445133E+02  0.22714820825E+02  0.33839117227E+02  0.00000000000E+00 0. -1.
         -1    1    1    2    0  502  0.47952447678E+02  0.47516457748E+02 -0.56567251256E+01  0.67743999988E+02  0.00000000000E+00 0.  1.
<scales pt_clust_5="13000.00000" pt_clust_6="13000.00000" pt_clust_7="13000.00000" pt_clust_8="13000.00000" pt_clust_9="67.50741"></scales>
<clustering>
<clus scale="   67.507">  2  9  1 -1</clus>
<clus scale="   90.779">  7  8 -1 -1</clus>
<clus scale="   90.839">  5  6 -1 -1</clus>
<clus scale="  101.099">  1  7  2 -1</clus>
<clus scale="   67.507">  2  5  1 -1</clus>
</clustering>
</event>
<event>
 9    1  0.1426358E-005  0.1101722E+03  0.7546771E-02  0.1260481E+00
         21   -1    0    0  501  502  0.00000000000E+00  0.00000000000E+00  0.41524268440E+02  0.41524268440E+02  0.00000000000E+00 0.  1.
          1   -1    0    0  502    0 -0.00000000000E+00 -0.00000000000E+00 -0.36853296091E+03  0.36853296091E+03  0.00000000000E+00 0. -1.
         23    2    1    2    0    0 -0.93019392695E+01  0.51059096408E+02 -0.14223204141E+03  0.17677052658E+03  0.91237646096E+02 0.  0.
         23    2    1    2    0    0  0.29041033603E+02 -0.66407183098E+02 -0.14510274952E+03  0.18639092392E+03  0.91833942533E+02 0.  0.
        -11    1    4    4    0    0 -0.28759025547E+02 -0.46661778494E+02 -0.81423315113E+02  0.98153753707E+02  0.00000000000E+00 0. -1.
         11    1    4    4    0    0  0.57800059150E+02 -0.19745404604E+02 -0.63679434407E+02  0.88237170212E+02  0.00000000000E+00 0.  1.
        -11    1    3    3    0    0 -0.30139978560E+02  0.52328710386E+02 -0.14366899683E+03  0.15584445094E+03  0.00000000000E+00 0. -1.
         11    1    3    3    0    0  0.20838039291E+02 -0.12696139785E+01  0.14369554183E+01  0.20926075647E+02  0.00000000000E+00 0.  1.
          1    1    1    2  501    0 -0.19739094334E+02  0.15348086690E+02 -0.39673901542E+02  0.46895778848E+02  0.00000000000E+00 0. -1.
<scales pt_clust_5="13000.00000" pt_clust_6="13000.00000" pt_clust_7="13000.00000" pt_clust_8="13000.00000" pt_clust_9="25.00392"></scales>
<clustering>
<clus scale="   25.004">  1  9  2 -1</clus>
<clus scale="   91.238">  7  8 -1 -1</clus>
<clus scale="   91.834">  5  6 -1 -1</clus>
<clus scale="  109.676">  2  7  1 -1</clus>
<clus scale="   25.004">  1  5  2 -1</clus>
</clustering>
</event>
<event>
 9    1  0.1426358E-005  0.1166590E+03  0.7546771E-02  0.1248862E+00
         21   -1    0    0  501  502  0.00000000000E+00  0.00000000000E+00  0.87779871950E+02  0.87779871950E+02  0.00000000000E+00 0. -1.
          2   -1    0    0  502    0 -0.00000000000E+00 -0.00000000000E+00 -0.67932778248E+03  0.67932778248E+03  0.00000000000E+00 0. -1.
         23    2    1    2    0    0  0.51500825109E+02 -0.49172733625E+02 -0.56570203425E+03  0.57755166877E+03  0.92069787770E+02 0.  0.
         23    2    1    2    0    0 -0.26122278393E+02  0.72662088485E+02 -0.65329498835E+02  0.13707001729E+03  0.92509965354E+02 0.  0.
        -11    1    3    3    0    0  0.35233552673E+02 -0.76141285714E+02 -0.37539219454E+03  0.38465334828E+03  0.00000000000E+00 0.  1.
         11    1    3    3    0    0  0.16267272435E+02  0.26968552089E+02 -0.19030983972E+03  0.19289832049E+03  0.00000000000E+00 0. -1.
        -13    1    4    4    0    0 -0.16397555935E+02  0.34598595572E+02 -0.84933243214E+02  0.93164362603E+02  0.00000000000E+00 0. -1.
         13    1    4    4    0    0 -0.97247224581E+01  0.38063492913E+02  0.19603744380E+02  0.43905654685E+02  0.00000000000E+00 0.  1.
          2    1    1    2  501    0 -0.25378546715E+02 -0.23489354860E+02  0.39483622562E+02  0.52485968370E+02  0.00000000000E+00 0. -1.
<scales pt_clust_5="13000.00000" pt_clust_6="13000.00000" pt_clust_7="13000.00000" pt_clust_8="13000.00000" pt_clust_9="34.58064"></scales>
<clustering>
<clus scale="   34.581">  1  9  2 -1</clus>
<clus scale="   92.070">  5  6 -1 -1</clus>
<clus scale="   92.510">  7  8 -1 -1</clus>
<clus scale="  116.310">  2  5  1 -1</clus>
<clus scale="   34.581">  1  5  2 -1</clus>
</clustering>
</event>
<event>
 9    1  0.1426358E-005  0.4721551E+03  0.7546771E-02  0.1038159E+00
         21   -1    0    0  501  502  0.00000000000E+00  0.00000000000E+00  0.16694756495E+03  0.16694756495E+03  0.00000000000E+00 0. -1.
          1   -1    0    0  502    0 -0.00000000000E+00 -0.00000000000E+00 -0.25920837450E+04  0.25920837450E+04  0.00000000000E+00 0. -1.
         23    2    1    2    0    0  0.34771420492E+02  0.26894789695E+03 -0.88891770805E+03  0.93389451292E+03  0.91881698978E+02 0.  0.
         23    2    1    2    0    0 -0.41146226321E+03 -0.34851872166E+03 -0.60019682094E+03  0.81302808826E+03  0.10005975740E+03 0.  0.
        -13    1    3    3    0    0 -0.26947551780E+02  0.12415755973E+03 -0.34447414614E+03  0.36715624405E+03  0.00000000000E+00 0. -1.
         13    1    3    3    0    0  0.61718972272E+02  0.14479033723E+03 -0.54444356191E+03  0.56673826887E+03  0.00000000000E+00 0.  1.
        -13    1    4    4    0    0 -0.32279246112E+02 -0.68436927248E+02 -0.10387545911E+03  0.12851332128E+03  0.00000000000E+00 0.  1.
         13    1    4    4    0    0 -0.37918301709E+03 -0.28008179441E+03 -0.49632136183E+03  0.68451476698E+03  0.00000000000E+00 0. -1.
          1    1    1    2  501    0  0.37669084271E+03  0.79570824706E+02 -0.93602165104E+03  0.10121087088E+04  0.00000000000E+00 0. -1.
<scales pt_clust_5="13000.00000" pt_clust_6="13000.00000" pt_clust_7="13000.00000" pt_clust_8="13000.00000" pt_clust_9="461.43113"></scales>
<clustering>
<clus scale="   91.882">  5  6 -1 -1</clus>
<clus scale="  100.060">  7  8 -1 -1</clus>
<clus scale="  286.329">  2  5  1 -1</clus>
<clus scale="  461.431">  1  9  2 -1</clus>
<clus scale="  461.431">  1  5  2 -1</clus>
</clustering>
</event>
<event>
 9    1  0.1426358E-005  0.9600628E+02  0.7546771E-02  0.1289415E+00
          1   -1    0    0  502    0 -0.00000000000E+00  0.00000000000E+00  0.73981316485E+02  0.73981316485E+02  0.00000000000E+00 0. -1.
         21   -1    0    0  501  502  0.00000000000E+00 -0.00000000000E+00 -0.39944688861E+03  0.39944688861E+03  0.00000000000E+00 0. -1.
         23    2    1    2    0    0 -0.43689840027E+02  0.28736254328E+02 -0.39375158191E+02  0.11269538417E+03  0.91734792184E+02 0.  0.
         23    2    1    2    0    0  0.63223984984E+01  0.53489345680E+02 -0.70425000642E+02  0.12691890886E+03  0.90816550732E+02 0.  0.
        -11    1    3    3    0    0 -0.65661669028E+01 -0.23192003352E+02 -0.42419553145E+02  0.48789364172E+02  0.00000000000E+00 0.  1.
         11    1    3    3    0    0 -0.37123673124E+02  0.51928257680E+02  0.30443949536E+01  0.63906020002E+02  0.00000000000E+00 0. -1.
        -13    1    4    4    0    0  0.20781392337E+02  0.75650140250E+02 -0.46208266220E+02  0.91049513203E+02  0.00000000000E+00 0.  1.
         13    1    4    4    0    0 -0.14458993839E+02 -0.22160794570E+02 -0.24216734421E+02  0.35869395658E+02  0.00000000000E+00 0. -1.
          1    1    1    2  501    0  0.37367441528E+02 -0.82225600008E+02 -0.21566541329E+03  0.23381391206E+03  0.00000000000E+00 0. -1.
<scales pt_clust_5="13000.00000" pt_clust_6="13000.00000" pt_clust_7="13000.00000" pt_clust_8="13000.00000" pt_clust_9="90.31819"></scales>
<clustering>
<clus scale="   90.318">  2  9  1 -1</clus>
<clus scale="   90.817">  7  8 -1 -1</clus>
<clus scale="   91.735">  5  6 -1 -1</clus>
<clus scale="   95.129">  2  7  1 -1</clus>
<clus scale="   90.318">  2  5  1 -1</clus>
</clustering>
</event>
<event>
 9    1  0.1426358E-005  0.3885686E+03  0.7546771E-02  0.1048124E+00
         21   -1    0    0  501  502  0.00000000000E+00  0.00000000000E+00  0.89956799941E+03  0.89956799941E+03  0.00000000000E+00 0.  1.
          3   -1    0    0  502    0 -0.00000000000E+00 -0.00000000000E+00 -0.20698158276E+03  0.20698158276E+03  0.00000000000E+00 0. -1.
         23    2    1    2    0    0  0.35980616074E+03 -0.61232664778E+02  0.21822541262E+03  0.43814650560E+03  0.10554675321E+03 0.  0.
         23    2    1    2    0    0 -0.38795545680E+03  0.10676386689E+02  0.34763175071E+03  0.52908823971E+03  0.91995160809E+02 0.  0.
        -11    1    3    3    0    0  0.13060278514E+03 -0.40737245986E+02  0.13832520502E+03  0.19455198031E+03  0.00000000000E+00 0.  1.
         11    1    3    3    0    0  0.22920337560E+03 -0.20495418793E+02  0.79900207599E+02  0.24359452530E+03  0.00000000000E+00 0. -1.
        -11    1    4    4    0    0 -0.36398989720E+03 -0.19462903231E+01  0.28995155721E+03  0.46536473743E+03  0.00000000000E+00 0.  1.
         11    1    4    4    0    0 -0.23965559591E+02  0.12622677012E+02  0.57680193500E+02  0.63723502286E+02  0.00000000000E+00 0. -1.
          3    1    1    2  501    0  0.28149296054E+02  0.50556278090E+02  0.12672925331E+03  0.13931483686E+03  0.00000000000E+00 0. -1.
<scales pt_clust_5="13000.00000" pt_clust_6="13000.00000" pt_clust_7="13000.00000" pt_clust_8="13000.00000" pt_clust_9="57.86467"></scales>
<clustering>
<clus scale="   57.865">  1  9  2 -1</clus>
<clus scale="   91.995">  7  8 -1 -1</clus>
<clus scale="  105.547">  5  6 -1 -1</clus>
<clus scale="  385.109">  1  7  2 -1</clus>
<clus scale="   57.865">  1  5  2 -1</clus>
</clustering>
</event>
<event>
 9    1  0.1426358E-005  0.9110998E+02  0.7546771E-02  0.1302005E+00
          1   -1    0    0  502    0 -0.00000000000E+00  0.00000000000E+00  0.57535459154E+03  0.57535459154E+03  0.00000000000E+00 0. -1.
         21   -1    0    0  501  502  0.00000000000E+00 -0.00000000000E+00 -0.22045026219E+02  0.22045026219E+02  0.00000000000E+00 0. -1.
         23    2    1    2    0    0  0.14103559753E+02  0.16909215490E+01  0.26424437117E+03  0.27871559819E+03  0.87495870568E+02 0.  0.
         23    2    1    2    0    0 -0.33550804107E+02  0.25901559751E+02  0.24896587295E+03  0.26626745828E+03  0.84367091852E+02 0.  0.
        -11    1    3    3    0    0  0.50903216465E+02 -0.48376985674E+01  0.16017985875E+03  0.16814317686E+03  0.00000000000E+00 0.  1.
         11    1    3    3    0    0 -0.36799656712E+02  0.65286201164E+01  0.10406451241E+03  0.11057242133E+03  0.00000000000E+00 0. -1.
        -13    1    4    4    0    0  0.44994509638E+01 -0.20387452336E+02  0.17719434842E+02  0.27383784304E+02  0.00000000000E+00 0.  1.
         13    1    4    4    0    0 -0.38050255070E+02  0.46289012086E+02  0.23124643811E+03  0.23888367397E+03  0.00000000000E+00 0. -1.
          1    1    1    2  501    0  0.19447244354E+02 -0.27592481300E+02  0.40099321197E+02  0.52416561292E+02  0.00000000000E+00 0. -1.
<scales pt_clust_5="13000.00000" pt_clust_6="13000.00000" pt_clust_7="13000.00000" pt_clust_8="13000.00000" pt_clust_9="33.75708"></scales>
<clustering>
<clus scale="   33.757">  2  9  1 -1</clus>
<clus scale="   84.367">  7  8 -1 -1</clus>
<clus scale="   87.496">  5  6 -1 -1</clus>
<clus scale="   88.110">  2  7  1 -1</clus>
<clus scale="   33.757">  2  5  1 -1</clus>
</clustering>
</event>
<event>
 9    1  0.1426358E-005  0.1369980E+03  0.7546771E-02  0.1224558E+00
         21   -1    0    0  501  502  0.00000000000E+00  0.00000000000E+00  0.22127536905E+03  0.22127536905E+03  0.00000000000E+00 0. -1.
          3   -1    0    0  502    0 -0.00000000000E+00 -0.00000000000E+00 -0.17293970446E+03  0.17293970446E+03  0.00000000000E+00 0. -1.
         23    2    1    2    0    0 -0.80973957405E+02  0.67073112114E+02 -0.10656579281E+03  0.16064957734E+03  0.58278935790E+02 0.  0.
         23    2    1    2    0    0  0.57818229730E+02 -0.73553552489E+02  0.75637988367E+02  0.15073505880E+03  0.90812333386E+02 0.  0.
        -11    1    3    3    0    0 -0.82210778845E+02  0.39055106977E+02 -0.90387863867E+02  0.12827267626E+03  0.00000000000E+00 0. -1.
         11    1    3    3    0    0  0.12368214400E+01  0.28018005138E+02 -0.16177928943E+02  0.32376901088E+02  0.00000000000E+00 0.  1.
        -13    1    4    4    0    0  0.68438691308E+02 -0.17432825914E+02  0.56674373991E+02  0.90552429866E+02  0.00000000000E+00 0.  1.
         13    1    4    4    0    0 -0.10620461579E+02 -0.56120726575E+02  0.18963614376E+02  0.60182628936E+02  0.00000000000E+00 0. -1.
          3    1    1    2  501    0  0.23155727675E+02  0.64804403743E+01  0.79263469032E+02  0.82830437368E+02  0.00000000000E+00 0. -1.
<scales pt_clust_5="13000.00000" pt_clust_6="13000.00000" pt_clust_7="13000.00000" pt_clust_8="13000.00000" pt_clust_9="24.04545"></scales>
<clustering>
<clus scale="   24.045">  1  9  2 -1</clus>
<clus scale="   58.279">  5  6 -1 -1</clus>
<clus scale="   90.812">  7  8 -1 -1</clus>
<clus scale="  117.975">  2  5  1 -1</clus>
<clus scale="   24.045">  1  5  2 -1</clus>
</clustering>
</event>
<event>
 9    1  0.1426358E-005  0.1496033E+03  0.7546771E-02  0.1207515E+00
         -3   -1    0    0    0  501 -0.00000000000E+00  0.00000000000E+00  0.68509998853E+03  0.68509998853E+03  0.00000000000E+00 0.  1.
         21   -1    0    0  501  502  0.00000000000E+00 -0.00000000000E+00 -0.55670037125E+02  0.55670037125E+02  0.00000000000E+00 0. -1.
         23    2    1    2    0    0 -0.55155419249E+02 -0.70536341663E+02  0.50084408333E+03  0.51707179819E+03  0.92200612325E+02 0.  0.
         23    2    1    2    0    0  0.46839439773E+02  0.92332418551E+02  0.98248026236E+02  0.18542801542E+03  0.11837088159E+03 0.  0.
        -11    1    3    3    0    0 -0.77537732140E+02 -0.32636145991E+02  0.30941681377E+03  0.32064931401E+03  0.00000000000E+00 0. -1.
         11    1    3    3    0    0  0.22382312892E+02 -0.37900195672E+02  0.19142726955E+03  0.19642248418E+03  0.00000000000E+00 0.  1.
        -11    1    4    4    0    0  0.31383496609E+02  0.11007394638E+02  0.97101771072E+02  0.10263937130E+03  0.00000000000E+00 0.  1.
         11    1    4    4    0    0  0.15455943164E+02  0.81325023913E+02  0.11462551637E+01  0.82788644115E+02  0.00000000000E+00 0. -1.
         -3    1    1    2    0  502  0.83159794752E+01 -0.21796076888E+02  0.30337841842E+02  0.38270212044E+02  0.00000000000E+00 0.  1.
<scales pt_clust_5="13000.00000" pt_clust_6="13000.00000" pt_clust_7="13000.00000" pt_clust_8="13000.00000" pt_clust_9="23.32862"></scales>
<clustering>
<clus scale="   23.329">  2  9  1 -1</clus>
<clus scale="   92.201">  5  6 -1 -1</clus>
<clus scale="  118.371">  7  8 -1 -1</clus>
<clus scale="  129.886">  1  5  2 -1</clus>
<clus scale="   23.329">  2  5  1 -1</clus>
</clustering>
</event>
<event>
 9    1  0.1426358E-005  0.1014115E+03  0.7546771E-02  0.1287471E+00
         21   -1    0    0  501  502  0.00000000000E+00  0.00000000000E+00  0.13145340381E+03  0.13145340381E+03  0.00000000000E+00 0. -1.
          2   -1    0    0  502    0 -0.00000000000E+00 -0.00000000000E+00 -0.16396515097E+03  0.16396515097E+03  0.00000000000E+00 0. -1.
         23    2    1    2    0    0 -0.11229182828E+01  0.38978849144E+02 -0.98489605819E+02  0.14014354250E+03  0.91757279954E+02 0.  0.
         23    2    1    2    0    0  0.21138115648E+02 -0.50928528669E+02  0.56964132777E+01  0.90643320171E+02  0.71716298021E+02 0.  0.
        -11    1    4    4    0    0  0.40225555878E+02 -0.20910386560E+02 -0.17031946892E+02  0.48429606923E+02  0.00000000000E+00 0. -1.
         11    1    4    4    0    0 -0.19087440230E+02 -0.30018142109E+02  0.22728360169E+02  0.42213713248E+02  0.00000000000E+00 0.  1.
        -13    1    3    3    0    0 -0.21457741145E+02 -0.17331599859E+02 -0.34213429477E+01  0.27794326692E+02  0.00000000000E+00 0.  1.
         13    1    3    3    0    0  0.20334822862E+02  0.56310449003E+02 -0.95068262871E+02  0.11234921581E+03  0.00000000000E+00 0. -1.
          2    1    1    2  501    0 -0.20015197365E+02  0.11949679525E+02  0.60281445388E+02  0.64631692105E+02  0.00000000000E+00 0. -1.
<scales pt_clust_5="13000.00000" pt_clust_6="13000.00000" pt_clust_7="13000.00000" pt_clust_8="13000.00000" pt_clust_9="23.31101"></scales>
<clustering>
<clus scale="   23.311">  1  9  2 -1</clus>
<clus scale="   71.716">  5  6 -1 -1</clus>
<clus scale="   83.715">  1  5  2 -1</clus>
<clus scale="   91.757">  7  8 -1 -1</clus>
<clus scale="   23.311">  1  5  2 -1</clus>
</clustering>
</event>
<event>
 9    1  0.1426358E-005  0.1274219E+03  0.7546771E-02  0.1232791E+00
          1   -1    0    0  502    0 -0.00000000000E+00  0.00000000000E+00  0.83161281247E+03  0.83161281247E+03  0.00000000000E+00 0. -1.
         21   -1    0    0  501  502  0.00000000000E+00 -0.00000000000E+00 -0.27716579363E+02  0.27716579363E+02  0.00000000000E+00 0. -1.
         23    2    1    2    0    0  0.88280913292E+02  0.43953392486E+02  0.43233776923E+03  0.45344421905E+03  0.94711629256E+02 0.  0.
         23    2    1    2    0    0 -0.75041838125E+02 -0.50961336458E+01  0.31487410687E+03  0.33589748812E+03  0.89577738880E+02 0.  0.
        -11    1    4    4    0    0 -0.34101380933E+02 -0.47115301973E+02  0.14854776166E+03  0.15952803314E+03  0.00000000000E+00 0.  1.
         11    1    4    4    0    0 -0.40940457193E+02  0.42019168327E+02  0.16632634521E+03  0.17636945499E+03  0.00000000000E+00 0. -1.
        -13    1    3    3    0    0  0.75292346465E+02  0.70184128639E+02  0.37752940832E+03  0.39130960057E+03  0.00000000000E+00 0. -1.
         13    1    3    3    0    0  0.12988566827E+02 -0.26230736153E+02  0.54808360913E+02  0.62134618477E+02  0.00000000000E+00 0.  1.
          1    1    1    2  501    0 -0.13239075166E+02 -0.38857258840E+02  0.56684357001E+02  0.69987684663E+02  0.00000000000E+00 0. -1.
<scales pt_clust_5="13000.00000" pt_clust_6="13000.00000" pt_clust_7="13000.00000" pt_clust_8="13000.00000" pt_clust_9="41.05070"></scales>
<clustering>
<clus scale="   41.051">  2  9  1 -1</clus>
<clus scale="   89.578">  5  6 -1 -1</clus>
<clus scale="   94.712">  7  8 -1 -1</clus>
<clus scale="  123.654">  2  5  1 -1</clus>
<clus scale="   41.051">  2  5  1 -1</clus>
</clustering>
</event>
<event>
 9    1  0.1426358E-005  0.1069712E+03  0.7546771E-02  0.1266473E+00
         21   -1    0    0  501  502  0.00000000000E+00  0.00000000000E+00  0.21335848520E+02  0.21335848520E+02  0.00000000000E+00 0.  1.
          2   -1    0    0  502    0 -0.00000000000E+00 -0.00000000000E+00 -0.72074091934E+03  0.72074091934E+03  0.00000000000E+00 0. -1.
         23    2    1    2    0    0  0.52840067606E+02  0.52904203606E+01 -0.40488675701E+03  0.41833906359E+03  0.90852764575E+02 0.  0.
         23    2    1    2    0    0 -0.58289659732E+02 -0.27413467281E+02 -0.25524296253E+03  0.27833197251E+03  0.90391008264E+02 0.  0.
        -11    1    3    3    0    0  0.69345018601E+02  0.22172853155E+02 -0.36325207358E+03  0.37047595871E+03  0.00000000000E+00 0.  1.
         11    1    3    3    0    0 -0.16504950995E+02 -0.16882432795E+02 -0.41634683430E+02  0.47863104880E+02  0.00000000000E+00 0. -1.
        -11    1    4    4    0    0 -0.15916971854E+02 -0.53458018590E+02 -0.91100264007E+02  0.10681932338E+03  0.00000000000E+00 0. -1.
         11    1    4    4    0    0 -0.42372687878E+02  0.26044551310E+02 -0.16414269853E+03  0.17151264913E+03  0.00000000000E+00 0.  1.
          2    1    1    2  501    0  0.54495921264E+01  0.22123046920E+02 -0.39275351278E+02  0.45405731768E+02  0.00000000000E+00 0. -1.
<scales pt_clust_5="13000.00000" pt_clust_6="13000.00000" pt_clust_7="13000.00000" pt_clust_8="13000.00000" pt_clust_9="22.78436"></scales>
<clustering>
<clus scale="   22.784">  1  9  2 -1</clus>
<clus scale="   90.391">  7  8 -1 -1</clus>
<clus scale="   90.853">  5  6 -1 -1</clus>
<clus scale="  106.579">  1  7  2 -1</clus>
<clus scale="   22.784">  1  5  2 -1</clus>
</clustering>
</event>
<event>
 9    1  0.1426358E-005  0.1212521E+03  0.7546771E-02  0.1242575E+00
         21   -1    0    0  501  502  0.00000000000E+00  0.00000000000E+00  0.13401235892E+03  0.13401235892E+03  0.00000000000E+00 0. -1.
         -1   -1    0    0    0  501 -0.00000000000E+00 -0.00000000000E+00 -0.14128924180E+03  0.14128924180E+03  0.00000000000E+00 0.  1.
         23    2    1    2    0    0 -0.53793504290E+02  0.64732004628E+02 -0.44104046635E+02  0.12810478560E+03  0.85916794845E+02 0.  0.
         23    2    1    2    0    0  0.39208571890E+02 -0.80686298223E+02  0.27795482217E+02  0.12376967256E+03  0.80614838482E+02 0.  0.
        -11    1    3    3    0    0  0.23322704617E+02  0.95488912646E+01 -0.59809353510E+01  0.25901765629E+02  0.00000000000E+00 0. -1.
         11    1    3    3    0    0 -0.77116208907E+02  0.55183113363E+02 -0.38123111284E+02  0.10220301997E+03  0.00000000000E+00 0.  1.
        -13    1    4    4    0    0  0.18118725804E+02 -0.13960485475E+02 -0.26639153187E+02  0.35111648523E+02  0.00000000000E+00 0.  1.
         13    1    4    4    0    0  0.21089846085E+02 -0.66725812748E+02  0.54434635404E+02  0.88658024038E+02  0.00000000000E+00 0. -1.
         -1    1    1    2    0  502  0.14584932401E+02  0.15954293596E+02  0.90316815437E+01  0.23427142565E+02  0.00000000000E+00 0.  1.
<scales pt_clust_5="13000.00000" pt_clust_6="13000.00000" pt_clust_7="13000.00000" pt_clust_8="13000.00000" pt_clust_9="21.61619"></scales>
<clustering>
<clus scale="   21.616">  1  9  2 -1</clus>
<clus scale="   80.615">  7  8 -1 -1</clus>
<clus scale="   85.917">  5  6 -1 -1</clus>
<clus scale="  117.555">  1  7  2 -1</clus>
<clus scale="   21.616">  1  5  2 -1</clus>
</clustering>
</event>
<event>
 9    1  0.1426358E-005  0.9307512E+02  0.7546771E-02  0.1295861E+00
         21   -1    0    0  501  502  0.00000000000E+00  0.00000000000E+00  0.32218137282E+03  0.32218137282E+03  0.00000000000E+00 0.  1.
         -1   -1    0    0    0  501 -0.00000000000E+00 -0.00000000000E+00 -0.50817313981E+02  0.50817313981E+02  0.00000000000E+00 0.  1.
         23    2    1    2    0    0 -0.32880438883E+02 -0.14590118964E+02  0.32386845641E+02  0.10050278690E+03  0.88078984851E+02 0.  0.
         23    2    1    2    0    0  0.10393996990E+02  0.10822158918E+02  0.11252951923E+03  0.14400910329E+03  0.88603469659E+02 0.  0.
        -11    1    4    4    0    0 -0.34838901294E+02 -0.77955155444E+01  0.24487514767E+02  0.43291540576E+02  0.00000000000E+00 0.  1.
         11    1    4    4    0    0  0.45232898284E+02  0.18617674462E+02  0.88042004464E+02  0.10071756272E+03  0.00000000000E+00 0. -1.
        -13    1    3    3    0    0  0.18622688325E+02  0.24277866142E+02  0.94528300615E+01  0.32024604619E+02  0.00000000000E+00 0. -1.
         13    1    3    3    0    0 -0.51503127208E+02 -0.38867985106E+02  0.22934015579E+02  0.68478182285E+02  0.00000000000E+00 0.  1.
         -1    1    1    2    0  502  0.22486441893E+02  0.37679600461E+01  0.12644769397E+03  0.12848679660E+03  0.00000000000E+00 0.  1.
<scales pt_clust_5="13000.00000" pt_clust_6="13000.00000" pt_clust_7="13000.00000" pt_clust_8="13000.00000" pt_clust_9="22.79995"></scales>
<clustering>
<clus scale="   22.800">  1  9  2 -1</clus>
<clus scale="   88.079">  7  8 -1 -1</clus>
<clus scale="   88.603">  5  6 -1 -1</clus>
<clus scale="   92.576">  2  7  1 -1</clus>
<clus scale="   22.800">  1  5  2 -1</clus>
</clustering>
</event>
<event>
 9    1  0.1426358E-005  0.9187688E+02  0.7546771E-02  0.1299285E+00
         21   -1    0    0  501  502  0.00000000000E+00  0.00000000000E+00  0.89487768289E+02  0.89487768289E+02  0.00000000000E+00 0. -1.
         -1   -1    0    0    0  501 -0.00000000000E+00 -0.00000000000E+00 -0.17863079400E+03  0.17863079400E+03  0.00000000000E+00 0.  1.
         23    2    1    2    0    0  0.12177257797E+02 -0.37312501078E+00 -0.10200695093E+03  0.13717100539E+03  0.90895774663E+02 0.  0.
         23    2    1    2    0    0 -0.95323125219E+01  0.21855344471E+02 -0.17050152226E+02  0.94024210394E+02  0.89338252644E+02 0.  0.
        -11    1    3    3    0    0  0.14136262984E+02  0.28735705143E+02 -0.10311680272E+03  0.10797522718E+03  0.00000000000E+00 0.  1.
         11    1    3    3    0    0 -0.19590051873E+01 -0.29108830154E+02  0.11098517907E+01  0.29195778209E+02  0.00000000000E+00 0. -1.
        -13    1    4    4    0    0 -0.17389679059E+02 -0.31904479226E+02  0.21524652633E+01  0.36399585700E+02  0.00000000000E+00 0.  1.
         13    1    4    4    0    0  0.78573665369E+01  0.53759823696E+02 -0.19202617489E+02  0.57624624694E+02  0.00000000000E+00 0. -1.
         -1    1    1    2    0  502 -0.26449452747E+01 -0.21482219460E+02  0.29914077440E+02  0.36923346510E+02  0.00000000000E+00 0.  1.
<scales pt_clust_5="13000.00000" pt_clust_6="13000.00000" pt_clust_7="13000.00000" pt_clust_8="13000.00000" pt_clust_9="21.64443"></scales>
<clustering>
<clus scale="   21.644">  1  9  2 -1</clus>
<clus scale="   89.338">  7  8 -1 -1</clus>
<clus scale="   90.336">  1  7  2 -1</clus>
<clus scale="   90.896">  5  6 -1 -1</clus>
<clus scale="   21.644">  1  5  2 -1</clus>
</clustering>
</event>
<event>
 9    1  0.1426358E-005  0.1218286E+03  0.7546771E-02  0.1240751E+00
          2   -1    0    0  502    0 -0.00000000000E+00  0.00000000000E+00  0.29365644042E+03  0.29365644042E+03  0.00000000000E+00 0. -1.
         21   -1    0    0  501  502  0.00000000000E+00 -0.00000000000E+00 -0.72035186176E+02  0.72035186176E+02  0.00000000000E+00 0. -1.
         23    2    1    2    0    0  0.64957921233E+02  0.13399426521E+02  0.11806453268E+03  0.16404982273E+03  0.92596081450E+02 0.  0.
         23    2    1    2    0    0 -0.10084071346E+03 -0.32436343357E+01  0.84950965698E+02  0.15996580305E+03  0.90515307647E+02 0.  0.
        -11    1    4    4    0    0 -0.97620406081E+02 -0.31713185804E+02  0.48282683063E+02  0.11343142122E+03  0.00000000000E+00 0. -1.
         11    1    4    4    0    0 -0.32203073740E+01  0.28469551469E+02  0.36668282635E+02  0.46534381824E+02  0.00000000000E+00 0.  1.
        -11    1    3    3    0    0  0.25567265114E+02 -0.13165960436E+02  0.11261250683E+03  0.11622652130E+03  0.00000000000E+00 0. -1.
         11    1    3    3    0    0  0.39390656119E+02  0.26565386957E+02  0.54520258470E+01  0.47823301428E+02  0.00000000000E+00 0.  1.
          2    1    1    2  501    0  0.35882792222E+02 -0.10155792185E+02  0.18605755871E+02  0.41676000817E+02  0.00000000000E+00 0. -1.
<scales pt_clust_5="13000.00000" pt_clust_6="13000.00000" pt_clust_7="13000.00000" pt_clust_8="13000.00000" pt_clust_9="37.29229"></scales>
<clustering>
<clus scale="   37.292">  2  9  1 -1</clus>
<clus scale="   90.515">  5  6 -1 -1</clus>
<clus scale="   92.596">  7  8 -1 -1</clus>
<clus scale="  120.255">  2  5  1 -1</clus>
<clus scale="   37.292">  2  5  1 -1</clus>
</clustering>
</event>
<event>
 9    1  0.1426358E-005  0.1045221E+03  0.7546771E-02  0.1272743E+00
          2   -1    0    0  502    0 -0.00000000000E+00  0.00000000000E+00  0.46298422094E+03  0.46298422094E+03  0.00000000000E+00 0. -1.
         21   -1    0    0  501  502  0.00000000000E+00 -0.00000000000E+00 -0.46392263351E+02  0.46392263351E+02  0.00000000000E+00 0. -1.
         23    2    1    2    0    0  0.25148142490E+02  0.40110703082E+02  0.19707186468E+03  0.22103992272E+03  0.88204478430E+02 0.  0.
         23    2    1    2    0    0 -0.57438336034E+02 -0.15570696289E+02  0.22214001304E+03  0.24769504937E+03  0.92005668641E+02 0.  0.
        -11    1    3    3    0    0  0.54911990652E+02  0.25871663149E+02  0.16145568124E+03  0.17248943932E+03  0.00000000000E+00 0.  1.
         11    1    3    3    0    0 -0.29763848163E+02  0.14239039932E+02  0.35616183435E+02  0.48550483397E+02  0.00000000000E+00 0. -1.
        -13    1    4    4    0    0 -0.60650105465E+02  0.22272305173E+02  0.17855129848E+03  0.18988169227E+03  0.00000000000E+00 0. -1.
         13    1    4    4    0    0  0.32117694309E+01 -0.37843001462E+02  0.43588714551E+02  0.57813357097E+02  0.00000000000E+00 0.  1.
          2    1    1    2  501    0  0.32290193544E+02 -0.24540006792E+02 -0.26199201264E+01  0.40641512201E+02  0.00000000000E+00 0. -1.
<scales pt_clust_5="13000.00000" pt_clust_6="13000.00000" pt_clust_7="13000.00000" pt_clust_8="13000.00000" pt_clust_9="40.55698"></scales>
<clustering>
<clus scale="   40.557">  2  9  1 -1</clus>
<clus scale="   88.204">  5  6 -1 -1</clus>
<clus scale="   92.006">  7  8 -1 -1</clus>
<clus scale="  101.192">  1  5  2 -1</clus>
<clus scale="   40.557">  2  5  1 -1</clus>
</clustering>
</event>
<event>
 9    1  0.1426358E-005  0.1003683E+03  0.7546771E-02  0.1282527E+00
         21   -1    0    0  501  502  0.00000000000E+00  0.00000000000E+00  0.27279075524E+03  0.27279075524E+03  0.00000000000E+00 0. -1.
          1   -1    0    0  502    0 -0.00000000000E+00 -0.00000000000E+00 -0.17016798938E+03  0.17016798938E+03  0.00000000000E+00 0. -1.
         23    2    1    2    0    0  0.49997247751E+01  0.26688383067E+02 -0.69613439506E+02  0.12176011554E+03  0.96136505753E+02 0.  0.
         23    2    1    2    0    0  0.41792730035E+02 -0.22346839551E+02 -0.35670686220E+02  0.10804690284E+03  0.90309035182E+02 0.  0.
        -11    1    3    3    0    0 -0.28861938176E+02  0.50614012063E+02 -0.44163287696E+02  0.73110776719E+02  0.00000000000E+00 0. -1.
         11    1    3    3    0    0  0.33861662952E+02 -0.23925628996E+02 -0.25450151811E+02  0.48649338823E+02  0.00000000000E+00 0.  1.
        -13    1    4    4    0    0  0.29270734205E+02 -0.53366070251E+02 -0.24699889373E+01  0.60916452459E+02  0.00000000000E+00 0.  1.
         13    1    4    4    0    0  0.12521995830E+02  0.31019230699E+02 -0.33200697283E+02  0.47130450378E+02  0.00000000000E+00 0. -1.
          1    1    1    2  501    0 -0.46792454810E+02 -0.43415435158E+01  0.20790689159E+03  0.21315172623E+03  0.00000000000E+00 0. -1.
<scales pt_clust_5="13000.00000" pt_clust_6="13000.00000" pt_clust_7="13000.00000" pt_clust_8="13000.00000" pt_clust_9="46.99343"></scales>
<clustering>
<clus scale="   46.993">  1  9  2 -1</clus>
<clus scale="   90.309">  7  8 -1 -1</clus>
<clus scale="   94.801">  1  7  2 -1</clus>
<clus scale="   96.137">  5  6 -1 -1</clus>
<clus scale="   46.993">  1  5  2 -1</clus>
</clustering>
</event>
<event>
 9    1  0.1426358E-005  0.1128464E+03  0.7546771E-02  0.1256252E+00
         21   -1    0    0  501  502  0.00000000000E+00  0.00000000000E+00  0.37060830893E+03  0.37060830893E+03  0.00000000000E+00 0.  1.
          1   -1    0    0  502    0 -0.00000000000E+00 -0.00000000000E+00 -0.42738337918E+02  0.42738337918E+02  0.00000000000E+00 0. -1.
         23    2    1    2    0    0 -0.54234347713E+02 -0.50316402593E+02  0.14703499016E+03  0.18761982809E+03  0.90048912937E+02 0.  0.
         23    2    1    2    0    0  0.32719829808E+02  0.44464131731E+02  0.16931598291E+03  0.20063078583E+03  0.92396774191E+02 0.  0.
        -11    1    4    4    0    0 -0.16150688989E+02  0.52989235538E+02  0.11110054527E+03  0.12414521737E+03  0.00000000000E+00 0.  1.
         11    1    4    4    0    0  0.48870518798E+02 -0.85251038070E+01  0.58215437647E+02  0.76485568462E+02  0.00000000000E+00 0. -1.
        -13    1    3    3    0    0 -0.60490698452E+02 -0.28791897691E+02  0.15068783518E+03  0.16490882828E+03  0.00000000000E+00 0.  1.
         13    1    3    3    0    0  0.62563507390E+01 -0.21524504902E+02 -0.36528450248E+01  0.22710999815E+02  0.00000000000E+00 0. -1.
          1    1    1    2  501    0  0.21514517905E+02  0.58522708619E+01  0.11518997945E+02  0.25096032925E+02  0.00000000000E+00 0. -1.
<scales pt_clust_5="13000.00000" pt_clust_6="13000.00000" pt_clust_7="13000.00000" pt_clust_8="13000.00000" pt_clust_9="22.29628"></scales>
<clustering>
<clus scale="   22.296">  1  9  2 -1</clus>
<clus scale="   90.049">  7  8 -1 -1</clus>
<clus scale="   92.397">  5  6 -1 -1</clus>
<clus scale="  110.932">  2  7  1 -1</clus>
<clus scale="   22.296">  1  5  2 -1</clus>
</clustering>
</event>
<event>
 9    1  0.1426358E-005  0.1859371E+03  0.7546771E-02  0.1162678E+00
          2   -1    0    0  502    0 -0.00000000000E+00  0.00000000000E+00  0.16933274978E+04  0.16933274978E+04  0.00000000000E+00 0. -1.
         21   -1    0    0  501  502  0.00000000000E+00 -0.00000000000E+00 -0.27320734031E+02  0.27320734031E+02  0.00000000000E+00 0.  1.
         23    2    1    2    0    0  0.45593574065E+02  0.15291521026E+03  0.76720767460E+03  0.78885863623E+03  0.90711060340E+02 0.  0.
         23    2    1    2    0    0 -0.88918935533E+02 -0.13778448298E+03  0.59238364030E+03  0.62195665164E+03  0.94976620180E+02 0.  0.
        -11    1    4    4    0    0  0.13066150495E+02 -0.21992192427E+02  0.33419097426E+02  0.42085827653E+02  0.00000000000E+00 0. -1.
         11    1    4    4    0    0 -0.10198508603E+03 -0.11579229056E+03  0.55896454288E+03  0.57987082399E+03  0.00000000000E+00 0.  1.
        -11    1    3    3    0    0 -0.12172644026E+02  0.56387125110E+02  0.13636444049E+03  0.14806397864E+03  0.00000000000E+00 0.  1.
         11    1    3    3    0    0  0.57766218091E+02  0.96528085154E+02  0.63084323411E+03  0.64079465759E+03  0.00000000000E+00 0. -1.
          2    1    1    2  501    0  0.43325361468E+02 -0.15130727281E+02  0.30641544890E+03  0.30983294399E+03  0.00000000000E+00 0. -1.
<scales pt_clust_5="13000.00000" pt_clust_6="13000.00000" pt_clust_7="13000.00000" pt_clust_8="13000.00000" pt_clust_9="45.89148"></scales>
<clustering>
<clus scale="   45.891">  2  9  1 -1</clus>
<clus scale="   90.711">  7  8 -1 -1</clus>
<clus scale="   94.977">  5  6 -1 -1</clus>
<clus scale="  183.795">  1  7  2 -1</clus>
<clus scale="   45.891">  2  5  1 -1</clus>
</clustering>
</event>
<event>
 9    1  0.1426358E-005  0.1793904E+03  0.7546771E-02  0.1169070E+00
         21   -1    0    0  501  502  0.00000000000E+00  0.00000000000E+00  0.17549082754E+03  0.17549082754E+03  0.00000000000E+00 0.  1.
          2   -1    0    0  502    0 -0.00000000000E+00 -0.00000000000E+00 -0.25682326584E+03  0.25682326584E+03  0.00000000000E+00 0. -1.
         23    2    1    2    0    0 -0.11288898003E+03 -0.65541974073E+02 -0.48023897536E+02  0.16761471112E+03  0.93534616429E+02 0.  0.
         23    2    1    2    0    0  0.15984434375E+03  0.96093061222E+02 -0.31336357552E+02  0.20864526007E+03  0.88129374226E+02 0.  0.
        -13    1    4    4    0    0  0.76746338369E+02  0.86876820077E+02 -0.44185395786E+02  0.12405616277E+03  0.00000000000E+00 0.  1.
         13    1    4    4    0    0  0.83098005380E+02  0.92162411452E+01  0.12849038234E+02  0.84589097303E+02  0.00000000000E+00 0. -1.
        -13    1    3    3    0    0 -0.66628460954E+02 -0.84622396956E+02 -0.17831225311E+02  0.10917075832E+03  0.00000000000E+00 0. -1.
         13    1    3    3    0    0 -0.46260519077E+02  0.19080422883E+02 -0.30192672225E+02  0.58443952799E+02  0.00000000000E+00 0.  1.
          2    1    1    2  501    0 -0.46955363718E+02 -0.30551087149E+02 -0.19721832162E+01  0.56054122190E+02  0.00000000000E+00 0. -1.
<scales pt_clust_5="13000.00000" pt_clust_6="13000.00000" pt_clust_7="13000.00000" pt_clust_8="13000.00000" pt_clust_9="56.01942"></scales>
<clustering>
<clus scale="   56.019">  1  9  2 -1</clus>
<clus scale="   88.129">  5  6 -1 -1</clus>
<clus scale="   93.535">  7  8 -1 -1</clus>
<clus scale="  176.632">  1  5  2 -1</clus>
<clus scale="   56.019">  1  5  2 -1</clus>
</clustering>
</event>
